Job started on c494-114.stampede2.tacc.utexas.edu at Sun May 23 00:00:15 CDT 2021
TACC:  Starting up job 7770680 
TACC:  Starting parallel tasks... 
 running on   48 total cores
 distrk:  each k-point on   48 cores,    1 groups
 distr:  one band on   12 cores,    4 groups
 using from now: INCAR     
 vasp.5.4.4.18Apr17-6-g9f103f2a35 (build May 01 2020 14:57:12) complex          
  
 POSCAR found type information on POSCAR  C  F  O 
 POSCAR found :  3 types and      13 ions
 scaLAPACK will be used

 ----------------------------------------------------------------------------- 
|                                                                             |
|  ADVICE TO THIS USER RUNNING 'VASP/VAMP'   (HEAR YOUR MASTER'S VOICE ...):  |
|                                                                             |
|      You have switched on vdW-DFT.                                          |
|      This routine was written and supplied by Jiri Klimes.                  |
|      We recommed that you carefully read and cite the following             |
|      publication                                                            |
|      J. Klimes, D.R. Bowler, A. Michelides                                  |
|        J. Phys.: Cond Matt. 22 022201 (2010)                                |
|      J. Klimes, D.R. Bowler, A. Michelides                                  |
|        Phys. Rev. B. 83, 195131 (2011)                                      |
|      and references therein.                                                |
|                                                                             |
 ----------------------------------------------------------------------------- 

 LDA part: xc-table for Pade appr. of Perdew
 found WAVECAR, reading the header
 POSCAR, INCAR and KPOINTS ok, starting setup
 FFT: planning ...
 reading WAVECAR
 the WAVECAR file was read successfully
 initial charge from wavefunction
 entering main loop
       N       E                     dE             d eps       ncg     rms          rms(c)
SOL:   1  -0.15853E+01    0.00000E+00   -0.15853E+01   110
  FERMI_SHIFT =   1.662044491061054E-002
Total rVV10 correction in eV:      2.1035662    78.1950580
DAV:   1    -0.986327815764E+02   -0.98633E+02   -0.72581E-01   320   0.563E+00    0.608E-01
SOL:   2  -0.16061E+01    0.00000E+00   -0.16061E+01    92
  FERMI_SHIFT =   1.662061030616954E-002
Total rVV10 correction in eV:      2.1039356    78.1988708
RMM:   2    -0.986291158977E+02    0.36657E-02   -0.10339E-01   224   0.130E+00    0.308E-01
SOL:   3  -0.16281E+01    0.00000E+00   -0.16281E+01    90
  FERMI_SHIFT =   1.662061030621195E-002
Total rVV10 correction in eV:      2.1040901    78.2011043
RMM:   3    -0.986264671481E+02    0.26487E-02   -0.12629E-02   228   0.375E-01    0.180E-01
SOL:   4  -0.16469E+01    0.00000E+00   -0.16469E+01    89
  FERMI_SHIFT =   1.661829510596249E-002
Total rVV10 correction in eV:      2.1041734    78.2035375
RMM:   4    -0.986247053750E+02    0.17618E-02   -0.22313E-03   226   0.202E-01    0.900E-02
SOL:   5  -0.16758E+01    0.00000E+00   -0.16758E+01    90
  FERMI_SHIFT =   1.662061030627821E-002
Total rVV10 correction in eV:      2.1043307    78.2075302
RMM:   5    -0.986226063646E+02    0.20990E-02   -0.28163E-03   224   0.258E-01    0.481E-02
SOL:   6  -0.16972E+01    0.00000E+00   -0.16972E+01    89
  FERMI_SHIFT =   1.662059859372703E-002
Total rVV10 correction in eV:      2.1044187    78.2088976
RMM:   6    -0.986234364742E+02   -0.83011E-03   -0.14718E-03   228   0.128E-01    0.574E-02
SOL:   7  -0.17139E+01    0.00000E+00   -0.17139E+01    89
  FERMI_SHIFT =   1.661830787268898E-002
Total rVV10 correction in eV:      2.1044308    78.2090961
RMM:   7    -0.986241879661E+02   -0.75149E-03   -0.81676E-04   224   0.115E-01    0.309E-02
SOL:   8  -0.17225E+01    0.00000E+00   -0.17225E+01    84
  FERMI_SHIFT =   1.662061030627138E-002
Total rVV10 correction in eV:      2.1044208    78.2075586
RMM:   8    -0.986250786557E+02   -0.89069E-03   -0.49915E-04   216   0.112E-01    0.192E-02
SOL:   9  -0.17290E+01    0.00000E+00   -0.17290E+01    83
  FERMI_SHIFT =   1.662061030627188E-002
Total rVV10 correction in eV:      2.1044146    78.2055961
RMM:   9    -0.986263416468E+02   -0.12630E-02   -0.60736E-04   214   0.111E-01    0.985E-03
SOL:  10  -0.17332E+01    0.00000E+00   -0.17332E+01    81
  FERMI_SHIFT =   1.662022890130463E-002
Total rVV10 correction in eV:      2.1043761    78.2024646
RMM:  10    -0.986274719132E+02   -0.11303E-02   -0.53788E-04   210   0.103E-01    0.546E-03
SOL:  11  -0.17338E+01    0.00000E+00   -0.17338E+01    74
  FERMI_SHIFT =   1.661867102051354E-002
Total rVV10 correction in eV:      2.1043579    78.2011307
RMM:  11    -0.986277993819E+02   -0.32747E-03   -0.20106E-04   194   0.721E-02    0.424E-03
SOL:  12  -0.17344E+01    0.00000E+00   -0.17344E+01    78
  FERMI_SHIFT =   1.661865993669501E-002
Total rVV10 correction in eV:      2.1043280    78.1987655
RMM:  12    -0.986282430046E+02   -0.44362E-03   -0.11872E-04   177   0.520E-02    0.250E-03
SOL:  13  -0.17344E+01    0.00000E+00   -0.17344E+01    74
  FERMI_SHIFT =   1.661864951187772E-002
Total rVV10 correction in eV:      2.1043175    78.1978116
RMM:  13    -0.986283792855E+02   -0.13628E-03   -0.39053E-05   156   0.295E-02    0.154E-03
SOL:  14  -0.17344E+01    0.00000E+00   -0.17344E+01    71
  FERMI_SHIFT =   1.661864951188097E-002
Total rVV10 correction in eV:      2.1043053    78.1969005
RMM:  14    -0.986284783071E+02   -0.99022E-04   -0.13299E-05   152   0.252E-02    0.115E-03
SOL:  15  -0.17344E+01    0.00000E+00   -0.17344E+01    70
  FERMI_SHIFT =   1.661864951187747E-002
Total rVV10 correction in eV:      2.1042923    78.1961541
RMM:  15    -0.986285495373E+02   -0.71230E-04   -0.90382E-06   149   0.214E-02    0.107E-03
SOL:  16  -0.17343E+01    0.00000E+00   -0.17343E+01    61
  FERMI_SHIFT =   1.661864951187889E-002
Total rVV10 correction in eV:      2.1042891    78.1960075
RMM:  16    -0.986285608176E+02   -0.11280E-04   -0.39951E-06   146   0.153E-02    0.577E-04
SOL:  17  -0.17343E+01    0.00000E+00   -0.17343E+01    66
  FERMI_SHIFT =   1.662023873686513E-002
Total rVV10 correction in eV:      2.1042810    78.1955945
RMM:  17    -0.986285887168E+02   -0.27899E-04   -0.36612E-06   146   0.149E-02    0.487E-04
SOL:  18  -0.17343E+01    0.00000E+00   -0.17343E+01    62
  FERMI_SHIFT =   1.661868116904100E-002
Total rVV10 correction in eV:      2.1042790    78.1954727
RMM:  18    -0.986285959999E+02   -0.72831E-05   -0.28048E-06   146   0.133E-02
Total rVV10 correction in eV:      2.1042711    78.1950581
SOL:  19  -0.17342E+01    0.00000E+00   -0.17342E+01    58
  FERMI_SHIFT =   1.662020816501594E-002
Total rVV10 correction in eV:      2.1042777    78.1953812
   1 F= -.98628596E+02 E0= -.98628596E+02  d E =-.986286E+02  mag=     0.0000
 curvature:   0.00 expect dE= 0.000E+00 dE for cont linesearch  0.000E+00
 trial: gam= 0.00000 g(F)=  0.739E-01 g(S)=  0.000E+00 ort = 0.000E+00 (trialstep = 0.100E+01)
 search vector abs. value=  0.739E-01
 bond charge predicted
       N       E                     dE             d eps       ncg     rms          rms(c)
SOL:  20  -0.17343E+01    0.00000E+00   -0.17343E+01    93
  FERMI_SHIFT =   1.662004974980075E-002
Total rVV10 correction in eV:      2.1039774    78.1954300
DAV:   1    -0.985612813508E+02    0.67307E-01   -0.12631E+01   288   0.180E+01    0.720E-01
SOL:  21  -0.17481E+01    0.00000E+00   -0.17481E+01    90
  FERMI_SHIFT =   1.661848296973550E-002
Total rVV10 correction in eV:      2.1041543    78.2012305
RMM:   2    -0.986088039688E+02   -0.47523E-01   -0.39145E-01   224   0.303E+00    0.470E-01
SOL:  22  -0.17583E+01    0.00000E+00   -0.17583E+01    88
  FERMI_SHIFT =   1.661848296880666E-002
Total rVV10 correction in eV:      2.1041388    78.2016581
RMM:   3    -0.986070521829E+02    0.17518E-02   -0.14278E-02   232   0.456E-01    0.333E-01
SOL:  23  -0.17845E+01    0.00000E+00   -0.17845E+01    92
  FERMI_SHIFT =   1.661849398848272E-002
Total rVV10 correction in eV:      2.1041037    78.2024062
RMM:   4    -0.986075674142E+02   -0.51523E-03   -0.98820E-03   224   0.500E-01    0.687E-02
SOL:  24  -0.17881E+01    0.00000E+00   -0.17881E+01    84
  FERMI_SHIFT =   1.661850521393010E-002
Total rVV10 correction in eV:      2.1041183    78.2024396
RMM:   5    -0.986077778210E+02   -0.21041E-03   -0.40762E-04   222   0.100E-01    0.398E-02
SOL:  25  -0.18008E+01    0.00000E+00   -0.18008E+01    88
  FERMI_SHIFT =   1.661850521392685E-002
Total rVV10 correction in eV:      2.1041573    78.2030812
RMM:   6    -0.986081064390E+02   -0.32862E-03   -0.11713E-03   224   0.117E-01    0.322E-02
SOL:  26  -0.18014E+01    0.00000E+00   -0.18014E+01    76
  FERMI_SHIFT =   1.662040047938040E-002
Total rVV10 correction in eV:      2.1041462    78.2028642
RMM:   7    -0.986082270775E+02   -0.12064E-03   -0.11559E-04   216   0.548E-02    0.171E-02
SOL:  27  -0.18129E+01    0.00000E+00   -0.18129E+01    86
  FERMI_SHIFT =   1.661850521392694E-002
Total rVV10 correction in eV:      2.1041479    78.2024073
RMM:   8    -0.986088924771E+02   -0.66540E-03   -0.28584E-04   216   0.769E-02    0.113E-02
SOL:  28  -0.18175E+01    0.00000E+00   -0.18175E+01    82
  FERMI_SHIFT =   1.661850521392233E-002
Total rVV10 correction in eV:      2.1041483    78.2018297
RMM:   9    -0.986091749238E+02   -0.28245E-03   -0.15027E-04   203   0.663E-02    0.786E-03
SOL:  29  -0.18239E+01    0.00000E+00   -0.18239E+01    82
  FERMI_SHIFT =   1.662040047938967E-002
Total rVV10 correction in eV:      2.1041367    78.2002549
RMM:  10    -0.986098258414E+02   -0.65092E-03   -0.30939E-04   214   0.862E-02    0.658E-03
SOL:  30  -0.18254E+01    0.00000E+00   -0.18254E+01    75
  FERMI_SHIFT =   1.662040047938493E-002
Total rVV10 correction in eV:      2.1041265    78.1995180
RMM:  11    -0.986099578375E+02   -0.13200E-03   -0.17829E-04   192   0.753E-02    0.360E-03
SOL:  31  -0.18261E+01    0.00000E+00   -0.18261E+01    74
  FERMI_SHIFT =   1.661849398845008E-002
Total rVV10 correction in eV:      2.1041112    78.1983732
RMM:  12    -0.986102195233E+02   -0.26169E-03   -0.95381E-05   184   0.521E-02    0.372E-03
SOL:  32  -0.18267E+01    0.00000E+00   -0.18267E+01    74
  FERMI_SHIFT =   1.661850521392302E-002
Total rVV10 correction in eV:      2.1041006    78.1973776
RMM:  13    -0.986103860568E+02   -0.16653E-03   -0.53815E-05   168   0.404E-02    0.184E-03
SOL:  33  -0.18267E+01    0.00000E+00   -0.18267E+01    74
  FERMI_SHIFT =   1.661851580092885E-002
Total rVV10 correction in eV:      2.1040922    78.1966005
RMM:  14    -0.986104880692E+02   -0.10201E-03   -0.31840E-05   158   0.335E-02    0.179E-03
SOL:  34  -0.18267E+01    0.00000E+00   -0.18267E+01    69
  FERMI_SHIFT =   1.662039041375202E-002
Total rVV10 correction in eV:      2.1040848    78.1961368
RMM:  15    -0.986105429594E+02   -0.54890E-04   -0.17562E-05   154   0.270E-02    0.114E-03
SOL:  35  -0.18266E+01    0.00000E+00   -0.18266E+01    66
  FERMI_SHIFT =   1.661851580092910E-002
Total rVV10 correction in eV:      2.1040780    78.1957952
RMM:  16    -0.986105728530E+02   -0.29894E-04   -0.64373E-06   148   0.171E-02    0.680E-04
SOL:  36  -0.18266E+01    0.00000E+00   -0.18266E+01    64
  FERMI_SHIFT =   1.662007820213876E-002
Total rVV10 correction in eV:      2.1040731    78.1955274
RMM:  17    -0.986105918924E+02   -0.19039E-04   -0.38106E-06   146   0.145E-02    0.668E-04
SOL:  37  -0.18266E+01    0.00000E+00   -0.18266E+01    62
  FERMI_SHIFT =   1.661883114370349E-002
Total rVV10 correction in eV:      2.1040715    78.1954208
RMM:  18    -0.986105984619E+02   -0.65695E-05   -0.28260E-06   146   0.128E-02
Total rVV10 correction in eV:      2.1040643    78.1950583
SOL:  38  -0.18266E+01    0.00000E+00   -0.18266E+01    61
  FERMI_SHIFT =   1.662005944101444E-002
Total rVV10 correction in eV:      2.1040696    78.1953063
   2 F= -.98610598E+02 E0= -.98610598E+02  d E =0.179975E-01  mag=    -0.0000
 trial-energy change:    0.017998  1 .order    0.018749   -0.073931    0.111429
 step:   0.4047(harm=  0.3989)  dis= 0.01274  next Energy=   -98.643606 (dE=-0.150E-01)
 bond charge predicted
       N       E                     dE             d eps       ncg     rms          rms(c)
SOL:  39  -0.18267E+01    0.00000E+00   -0.18267E+01    91
  FERMI_SHIFT =   1.662017331932611E-002
Total rVV10 correction in eV:      2.1042629    78.1953340
DAV:   1    -0.986277478658E+02   -0.17156E-01   -0.44746E+00   288   0.107E+01    0.429E-01
SOL:  40  -0.18176E+01    0.00000E+00   -0.18176E+01    88
  FERMI_SHIFT =   1.661837928536830E-002
Total rVV10 correction in eV:      2.1043288    78.1990787
RMM:   2    -0.986429344699E+02   -0.15187E-01   -0.13658E-01   224   0.182E+00    0.281E-01
SOL:  41  -0.18111E+01    0.00000E+00   -0.18111E+01    85
  FERMI_SHIFT =   1.661837928571325E-002
Total rVV10 correction in eV:      2.1043259    78.1994824
RMM:   3    -0.986422204652E+02    0.71400E-03   -0.51934E-03   232   0.286E-01    0.198E-01
SOL:  42  -0.17956E+01    0.00000E+00   -0.17956E+01    89
  FERMI_SHIFT =   1.662053836428440E-002
Total rVV10 correction in eV:      2.1042758    78.2000440
RMM:   4    -0.986424534410E+02   -0.23298E-03   -0.35965E-03   224   0.302E-01    0.413E-02
SOL:  43  -0.17931E+01    0.00000E+00   -0.17931E+01    82
  FERMI_SHIFT =   1.662052740059611E-002
Total rVV10 correction in eV:      2.1042619    78.2000626
RMM:   5    -0.986424795215E+02   -0.26081E-04   -0.15821E-04   220   0.658E-02    0.234E-02
SOL:  44  -0.17864E+01    0.00000E+00   -0.17864E+01    86
  FERMI_SHIFT =   1.661836779922546E-002
Total rVV10 correction in eV:      2.1042471    78.2002643
RMM:   6    -0.986425975878E+02   -0.11807E-03   -0.34378E-04   218   0.671E-02    0.174E-02
SOL:  45  -0.17855E+01    0.00000E+00   -0.17855E+01    78
  FERMI_SHIFT =   1.662053836427285E-002
Total rVV10 correction in eV:      2.1042546    78.2001167
RMM:   7    -0.986426573469E+02   -0.59759E-04   -0.59723E-05   199   0.400E-02    0.949E-03
SOL:  46  -0.17781E+01    0.00000E+00   -0.17781E+01    84
  FERMI_SHIFT =   1.661836779922649E-002
Total rVV10 correction in eV:      2.1042459    78.1997903
RMM:   8    -0.986428690036E+02   -0.21166E-03   -0.92343E-05   202   0.508E-02    0.583E-03
SOL:  47  -0.17753E+01    0.00000E+00   -0.17753E+01    77
  FERMI_SHIFT =   1.661836779922682E-002
Total rVV10 correction in eV:      2.1042390    78.1992300
RMM:   9    -0.986430241217E+02   -0.15512E-03   -0.50255E-05   179   0.461E-02    0.474E-03
SOL:  48  -0.17720E+01    0.00000E+00   -0.17720E+01    80
  FERMI_SHIFT =   1.661835563678576E-002
Total rVV10 correction in eV:      2.1042297    78.1981519
RMM:  10    -0.986432732837E+02   -0.24916E-03   -0.82585E-05   198   0.556E-02    0.277E-03
SOL:  49  -0.17714E+01    0.00000E+00   -0.17714E+01    70
  FERMI_SHIFT =   1.661835563678662E-002
Total rVV10 correction in eV:      2.1042250    78.1976120
RMM:  11    -0.986433694172E+02   -0.96134E-04   -0.54958E-05   184   0.494E-02    0.206E-03
SOL:  50  -0.17709E+01    0.00000E+00   -0.17709E+01    73
  FERMI_SHIFT =   1.662053836427269E-002
Total rVV10 correction in eV:      2.1042162    78.1967552
RMM:  12    -0.986434786127E+02   -0.10920E-03   -0.25255E-05   160   0.325E-02    0.111E-03
SOL:  51  -0.17708E+01    0.00000E+00   -0.17708E+01    71
  FERMI_SHIFT =   1.661836779922893E-002
Total rVV10 correction in eV:      2.1042100    78.1962478
RMM:  13    -0.986435314925E+02   -0.52880E-04   -0.11908E-05   150   0.225E-02    0.814E-04
SOL:  52  -0.17708E+01    0.00000E+00   -0.17708E+01    69
  FERMI_SHIFT =   1.662052740058872E-002
Total rVV10 correction in eV:      2.1042046    78.1958285
RMM:  14    -0.986435693210E+02   -0.37829E-04   -0.89418E-06   148   0.214E-02    0.563E-04
SOL:  53  -0.17708E+01    0.00000E+00   -0.17708E+01    65
  FERMI_SHIFT =   1.662052740059011E-002
Total rVV10 correction in eV:      2.1042012    78.1955863
RMM:  15    -0.986435885365E+02   -0.19216E-04   -0.57703E-06   146   0.175E-02    0.334E-04
SOL:  54  -0.17708E+01    0.00000E+00   -0.17708E+01    62
  FERMI_SHIFT =   1.661837928578475E-002
Total rVV10 correction in eV:      2.1041984    78.1954085
RMM:  16    -0.986436006023E+02   -0.12066E-04   -0.32392E-06   146   0.137E-02    0.241E-04
SOL:  55  -0.17708E+01    0.00000E+00   -0.17708E+01    59
  FERMI_SHIFT =   1.662052740059122E-002
Total rVV10 correction in eV:      2.1041962    78.1952913
RMM:  17    -0.986436077366E+02   -0.71343E-05   -0.25445E-06   146   0.123E-02
Total rVV10 correction in eV:      2.1041902    78.1950582
SOL:  56  -0.17708E+01    0.00000E+00   -0.17708E+01    55
  FERMI_SHIFT =   1.661871662057460E-002
Total rVV10 correction in eV:      2.1041950    78.1952392
   3 F= -.98643608E+02 E0= -.98643608E+02  d E =-.150117E-01  mag=    -0.0000
 curvature:  -0.20 expect dE=-0.453E-02 dE for cont linesearch -0.336E-07
 trial: gam= 0.30607 g(F)=  0.227E-01 g(S)=  0.000E+00 ort = 0.112E-03 (trialstep = 0.881E+00)
 search vector abs. value=  0.297E-01
 bond charge predicted
       N       E                     dE             d eps       ncg     rms          rms(c)
SOL:  57  -0.17754E+01    0.00000E+00   -0.17754E+01    93
  FERMI_SHIFT =   1.662036689443480E-002
Total rVV10 correction in eV:      2.1040596    78.1952716
DAV:   1    -0.986280522730E+02    0.15548E-01   -0.53014E+00   256   0.112E+01    0.527E-01
SOL:  58  -0.17781E+01    0.00000E+00   -0.17781E+01    88
  FERMI_SHIFT =   1.661848604309032E-002
Total rVV10 correction in eV:      2.1042200    78.1986315
RMM:   2    -0.986434908078E+02   -0.15439E-01   -0.15939E-01   224   0.185E+00    0.274E-01
SOL:  59  -0.17798E+01    0.00000E+00   -0.17798E+01    85
  FERMI_SHIFT =   1.661848604453464E-002
Total rVV10 correction in eV:      2.1042349    78.1984492
RMM:   3    -0.986426315377E+02    0.85927E-03   -0.67792E-03   228   0.283E-01    0.188E-01
SOL:  60  -0.17833E+01    0.00000E+00   -0.17833E+01    87
  FERMI_SHIFT =   1.661850761408531E-002
Total rVV10 correction in eV:      2.1042146    78.1970228
RMM:   4    -0.986432193000E+02   -0.58776E-03   -0.31188E-03   224   0.234E-01    0.530E-02
SOL:  61  -0.17861E+01    0.00000E+00   -0.17861E+01    81
  FERMI_SHIFT =   1.662041299658867E-002
Total rVV10 correction in eV:      2.1042234    78.1968214
RMM:   5    -0.986433254444E+02   -0.10614E-03   -0.32616E-04   220   0.835E-02    0.214E-02
SOL:  62  -0.17884E+01    0.00000E+00   -0.17884E+01    81
  FERMI_SHIFT =   1.661848604496563E-002
Total rVV10 correction in eV:      2.1042260    78.1968313
RMM:   6    -0.986433348487E+02   -0.94043E-05   -0.11655E-04   197   0.389E-02    0.153E-02
SOL:  63  -0.17905E+01    0.00000E+00   -0.17905E+01    81
  FERMI_SHIFT =   1.662042457480281E-002
Total rVV10 correction in eV:      2.1042210    78.1967814
RMM:   7    -0.986433640325E+02   -0.29184E-04   -0.62024E-05   172   0.415E-02    0.823E-03
SOL:  64  -0.17916E+01    0.00000E+00   -0.17916E+01    76
  FERMI_SHIFT =   1.661847429945632E-002
Total rVV10 correction in eV:      2.1042216    78.1966903
RMM:   8    -0.986434080589E+02   -0.44026E-04   -0.20084E-05   154   0.290E-02    0.275E-03
SOL:  65  -0.17933E+01    0.00000E+00   -0.17933E+01    77
  FERMI_SHIFT =   1.662043480830594E-002
Total rVV10 correction in eV:      2.1042198    78.1965048
RMM:   9    -0.986434804681E+02   -0.72409E-04   -0.24901E-05   156   0.298E-02    0.350E-03
SOL:  66  -0.17943E+01    0.00000E+00   -0.17943E+01    76
  FERMI_SHIFT =   1.662043480831238E-002
Total rVV10 correction in eV:      2.1042156    78.1963146
RMM:  10    -0.986435325554E+02   -0.52087E-04   -0.18789E-05   153   0.278E-02    0.144E-03
SOL:  67  -0.17955E+01    0.00000E+00   -0.17955E+01    75
  FERMI_SHIFT =   1.662043480831085E-002
Total rVV10 correction in eV:      2.1042100    78.1960424
RMM:  11    -0.986435919885E+02   -0.59433E-04   -0.17636E-05   153   0.257E-02    0.205E-03
SOL:  68  -0.17961E+01    0.00000E+00   -0.17961E+01    70
  FERMI_SHIFT =   1.662043480830760E-002
Total rVV10 correction in eV:      2.1042064    78.1958275
RMM:  12    -0.986436302000E+02   -0.38211E-04   -0.10768E-05   152   0.201E-02    0.568E-04
SOL:  69  -0.17962E+01    0.00000E+00   -0.17962E+01    66
  FERMI_SHIFT =   1.661846179653084E-002
Total rVV10 correction in eV:      2.1042028    78.1956523
RMM:  13    -0.986436535709E+02   -0.23371E-04   -0.66691E-06   148   0.174E-02    0.674E-04
SOL:  70  -0.17963E+01    0.00000E+00   -0.17963E+01    67
  FERMI_SHIFT =   1.661844962266262E-002
Total rVV10 correction in eV:      2.1041986    78.1954777
RMM:  14    -0.986436724138E+02   -0.18843E-04   -0.48151E-06   146   0.153E-02    0.276E-04
SOL:  71  -0.17963E+01    0.00000E+00   -0.17963E+01    63
  FERMI_SHIFT =   1.662082190165207E-002
Total rVV10 correction in eV:      2.1041963    78.1953810
RMM:  15    -0.986436810859E+02   -0.86721E-05   -0.34996E-06   146   0.135E-02
Total rVV10 correction in eV:      2.1041891    78.1950581
SOL:  72  -0.17963E+01    0.00000E+00   -0.17963E+01    65
  FERMI_SHIFT =   1.662080874580940E-002
Total rVV10 correction in eV:      2.1041929    78.1952358
   4 F= -.98643681E+02 E0= -.98643681E+02  d E =-.733493E-04  mag=    -0.0000
 trial-energy change:   -0.000073  1 .order    0.000079   -0.020062    0.020219
 step:   0.4437(harm=  0.4388)  dis= 0.00692  next Energy=   -98.648680 (dE=-0.507E-02)
 bond charge predicted
       N       E                     dE             d eps       ncg     rms          rms(c)
SOL:  73  -0.17941E+01    0.00000E+00   -0.17941E+01    90
  FERMI_SHIFT =   1.661853411032432E-002
Total rVV10 correction in eV:      2.1042620    78.1952497
DAV:   1    -0.986461661071E+02   -0.24937E-02   -0.13027E+00   256   0.554E+00    0.263E-01
SOL:  74  -0.17926E+01    0.00000E+00   -0.17926E+01    85
  FERMI_SHIFT =   1.662068327709257E-002
Total rVV10 correction in eV:      2.1042696    78.1968269
RMM:   2    -0.986483098709E+02   -0.21438E-02   -0.38878E-02   224   0.927E-01    0.136E-01
SOL:  75  -0.17918E+01    0.00000E+00   -0.17918E+01    82
  FERMI_SHIFT =   1.661856706845860E-002
Total rVV10 correction in eV:      2.1042552    78.1968039
RMM:   3    -0.986481365364E+02    0.17333E-03   -0.17254E-03   228   0.143E-01    0.937E-02
SOL:  76  -0.17900E+01    0.00000E+00   -0.17900E+01    84
  FERMI_SHIFT =   1.662033220602913E-002
Total rVV10 correction in eV:      2.1042205    78.1962636
RMM:   4    -0.986485450156E+02   -0.40848E-03   -0.86574E-04   224   0.126E-01    0.278E-02
SOL:  77  -0.17887E+01    0.00000E+00   -0.17887E+01    78
  FERMI_SHIFT =   1.661857802611247E-002
Total rVV10 correction in eV:      2.1042070    78.1962142
RMM:   5    -0.986485777657E+02   -0.32750E-04   -0.89194E-05   190   0.474E-02    0.114E-02
SOL:  78  -0.17875E+01    0.00000E+00   -0.17875E+01    78
  FERMI_SHIFT =   1.661857802610298E-002
Total rVV10 correction in eV:      2.1042042    78.1962217
RMM:   6    -0.986485826258E+02   -0.48601E-05   -0.40434E-05   166   0.258E-02
Total rVV10 correction in eV:      2.1041931    78.1950582
SOL:  79  -0.17865E+01    0.00000E+00   -0.17865E+01    78
  FERMI_SHIFT =   1.661856706823034E-002
Total rVV10 correction in eV:      2.1042060    78.1961799
   5 F= -.98648583E+02 E0= -.98648583E+02  d E =-.497489E-02  mag=    -0.0000
 curvature:  -0.29 expect dE=-0.143E-02 dE for cont linesearch -0.418E-06
 trial: gam= 0.21150 g(F)=  0.500E-02 g(S)=  0.000E+00 ort = 0.208E-03 (trialstep = 0.794E+00)
 search vector abs. value=  0.642E-02
 bond charge predicted
       N       E                     dE             d eps       ncg     rms          rms(c)
SOL:  80  -0.17869E+01    0.00000E+00   -0.17869E+01    88
  FERMI_SHIFT =   1.661850586068339E-002
Total rVV10 correction in eV:      2.1041999    78.1961847
DAV:   1    -0.986429898209E+02    0.55879E-02   -0.95700E-01   288   0.504E+00    0.224E-01
SOL:  81  -0.17880E+01    0.00000E+00   -0.17880E+01    84
  FERMI_SHIFT =   1.661848596991539E-002
Total rVV10 correction in eV:      2.1042126    78.1975973
RMM:   2    -0.986472008286E+02   -0.42110E-02   -0.36184E-02   224   0.920E-01    0.143E-01
SOL:  82  -0.17885E+01    0.00000E+00   -0.17885E+01    82
  FERMI_SHIFT =   1.662042736359903E-002
Total rVV10 correction in eV:      2.1042045    78.1975125
RMM:   3    -0.986469982033E+02    0.20263E-03   -0.10891E-03   232   0.133E-01    0.102E-01
SOL:  83  -0.17891E+01    0.00000E+00   -0.17891E+01    85
  FERMI_SHIFT =   1.661845261086506E-002
Total rVV10 correction in eV:      2.1041783    78.1969427
RMM:   4    -0.986472443682E+02   -0.24616E-03   -0.74139E-04   224   0.136E-01    0.229E-02
SOL:  84  -0.17892E+01    0.00000E+00   -0.17892E+01    81
  FERMI_SHIFT =   1.662046174682852E-002
Total rVV10 correction in eV:      2.1041723    78.1969227
RMM:   5    -0.986472576713E+02   -0.13303E-04   -0.65163E-05   207   0.470E-02    0.998E-03
SOL:  85  -0.17892E+01    0.00000E+00   -0.17892E+01    78
  FERMI_SHIFT =   1.661843517662942E-002
Total rVV10 correction in eV:      2.1041714    78.1968982
RMM:   6    -0.986472819440E+02   -0.24273E-04   -0.33256E-05   162   0.330E-02    0.596E-03
SOL:  86  -0.17891E+01    0.00000E+00   -0.17891E+01    79
  FERMI_SHIFT =   1.662047947264381E-002
Total rVV10 correction in eV:      2.1041717    78.1967964
RMM:   7    -0.986473318751E+02   -0.49931E-04   -0.55703E-05   173   0.454E-02    0.317E-03
SOL:  87  -0.17891E+01    0.00000E+00   -0.17891E+01    75
  FERMI_SHIFT =   1.662047947263839E-002
Total rVV10 correction in eV:      2.1041713    78.1966871
RMM:   8    -0.986473552707E+02   -0.23396E-04   -0.61809E-05   173   0.472E-02    0.219E-03
SOL:  88  -0.17890E+01    0.00000E+00   -0.17890E+01    78
  FERMI_SHIFT =   1.662048838418503E-002
Total rVV10 correction in eV:      2.1041698    78.1964147
RMM:   9    -0.986474148145E+02   -0.59544E-04   -0.34732E-05   163   0.344E-02    0.229E-03
SOL:  89  -0.17889E+01    0.00000E+00   -0.17889E+01    74
  FERMI_SHIFT =   1.661840947986720E-002
Total rVV10 correction in eV:      2.1041682    78.1961624
RMM:  10    -0.986474552944E+02   -0.40480E-04   -0.18774E-05   154   0.261E-02    0.933E-04
SOL:  90  -0.17888E+01    0.00000E+00   -0.17888E+01    69
  FERMI_SHIFT =   1.662049678898542E-002
Total rVV10 correction in eV:      2.1041661    78.1959140
RMM:  11    -0.986474850842E+02   -0.29790E-04   -0.12239E-05   152   0.221E-02    0.113E-03
SOL:  91  -0.17888E+01    0.00000E+00   -0.17888E+01    66
  FERMI_SHIFT =   1.661840090873903E-002
Total rVV10 correction in eV:      2.1041638    78.1957107
RMM:  12    -0.986475055812E+02   -0.20497E-04   -0.83614E-06   150   0.195E-02    0.416E-04
SOL:  92  -0.17887E+01    0.00000E+00   -0.17887E+01    64
  FERMI_SHIFT =   1.661839157974038E-002
Total rVV10 correction in eV:      2.1041615    78.1955274
RMM:  13    -0.986475216450E+02   -0.16064E-04   -0.50290E-06   146   0.157E-02    0.289E-04
SOL:  93  -0.17887E+01    0.00000E+00   -0.17887E+01    65
  FERMI_SHIFT =   1.661838271056443E-002
Total rVV10 correction in eV:      2.1041591    78.1953709
RMM:  14    -0.986475327633E+02   -0.11118E-04   -0.36239E-06   146   0.138E-02    0.173E-04
SOL:  94  -0.17887E+01    0.00000E+00   -0.17887E+01    63
  FERMI_SHIFT =   1.662052245199830E-002
Total rVV10 correction in eV:      2.1041572    78.1952580
RMM:  15    -0.986475396414E+02   -0.68781E-05   -0.31771E-06   146   0.133E-02
Total rVV10 correction in eV:      2.1041524    78.1950584
SOL:  95  -0.17887E+01    0.00000E+00   -0.17887E+01    58
  FERMI_SHIFT =   1.662052245199752E-002
Total rVV10 correction in eV:      2.1041560    78.1951969
   6 F= -.98647540E+02 E0= -.98647540E+02  d E =0.104298E-02  mag=    -0.0000
 trial-energy change:    0.001043  1 .order    0.001092   -0.004001    0.006184
 step:   0.3172(harm=  0.3117)  dis= 0.00251  next Energy=   -98.649385 (dE=-0.803E-03)
 bond charge predicted
       N       E                     dE             d eps       ncg     rms          rms(c)
SOL:  96  -0.17885E+01    0.00000E+00   -0.17885E+01    85
  FERMI_SHIFT =   1.662049959777934E-002
Total rVV10 correction in eV:      2.1041603    78.1952040
DAV:   1    -0.986477252918E+02   -0.19253E-03   -0.34465E-01   272   0.302E+00    0.133E-01
SOL:  97  -0.17875E+01    0.00000E+00   -0.17875E+01    81
  FERMI_SHIFT =   1.661846395567870E-002
Total rVV10 correction in eV:      2.1042005    78.1960815
RMM:   2    -0.986492274518E+02   -0.15022E-02   -0.13039E-02   224   0.553E-01    0.854E-02
SOL:  98  -0.17871E+01    0.00000E+00   -0.17871E+01    79
  FERMI_SHIFT =   1.662040471412524E-002
Total rVV10 correction in eV:      2.1042000    78.1960315
RMM:   3    -0.986491683986E+02    0.59053E-04   -0.39453E-04   230   0.807E-02    0.600E-02
SOL:  99  -0.17863E+01    0.00000E+00   -0.17863E+01    83
  FERMI_SHIFT =   1.662044227840453E-002
Total rVV10 correction in eV:      2.1041877    78.1956823
RMM:   4    -0.986493646228E+02   -0.19622E-03   -0.27661E-04   220   0.868E-02    0.132E-02
SOL: 100  -0.17861E+01    0.00000E+00   -0.17861E+01    78
  FERMI_SHIFT =   1.662045207145407E-002
Total rVV10 correction in eV:      2.1041889    78.1957023
RMM:   5    -0.986493601259E+02    0.44969E-05   -0.20566E-05   154   0.278E-02
Total rVV10 correction in eV:      2.1041760    78.1950583
SOL: 101  -0.17860E+01    0.00000E+00   -0.17860E+01    76
  FERMI_SHIFT =   1.662046189814848E-002
Total rVV10 correction in eV:      2.1041897    78.1957286
   7 F= -.98649360E+02 E0= -.98649360E+02  d E =-.777500E-03  mag=    -0.0000
 curvature:  -0.20 expect dE=-0.518E-03 dE for cont linesearch -0.203E-06
 trial: gam= 0.54259 g(F)=  0.261E-02 g(S)=  0.000E+00 ort =-0.811E-04 (trialstep = 0.698E+00)
 search vector abs. value=  0.441E-02
 bond charge predicted
       N       E                     dE             d eps       ncg     rms          rms(c)
SOL: 102  -0.17860E+01    0.00000E+00   -0.17860E+01    87
  FERMI_SHIFT =   1.661841033602410E-002
Total rVV10 correction in eV:      2.1041599    78.1957320
DAV:   1    -0.986471812795E+02    0.21833E-02   -0.60888E-01   256   0.395E+00    0.157E-01
SOL: 103  -0.17867E+01    0.00000E+00   -0.17867E+01    82
  FERMI_SHIFT =   1.661839272157001E-002
Total rVV10 correction in eV:      2.1041734    78.1967443
RMM:   2    -0.986493348714E+02   -0.21536E-02   -0.20307E-02   224   0.708E-01    0.886E-02
SOL: 104  -0.17870E+01    0.00000E+00   -0.17870E+01    80
  FERMI_SHIFT =   1.661838326479079E-002
Total rVV10 correction in eV:      2.1041664    78.1966455
RMM:   3    -0.986492542623E+02    0.80609E-04   -0.53516E-04   226   0.994E-02    0.612E-02
SOL: 105  -0.17876E+01    0.00000E+00   -0.17876E+01    83
  FERMI_SHIFT =   1.661837427969859E-002
Total rVV10 correction in eV:      2.1041464    78.1961140
RMM:   4    -0.986495031648E+02   -0.24890E-03   -0.30108E-04   222   0.958E-02    0.126E-02
SOL: 106  -0.17877E+01    0.00000E+00   -0.17877E+01    77
  FERMI_SHIFT =   1.661837427968743E-002
Total rVV10 correction in eV:      2.1041426    78.1960758
RMM:   5    -0.986495206948E+02   -0.17530E-04   -0.24078E-05   154   0.313E-02    0.758E-03
SOL: 107  -0.17878E+01    0.00000E+00   -0.17878E+01    79
  FERMI_SHIFT =   1.661837427968726E-002
Total rVV10 correction in eV:      2.1041405    78.1960462
RMM:   6    -0.986495415705E+02   -0.20876E-04   -0.20934E-05   152   0.242E-02    0.381E-03
SOL: 108  -0.17879E+01    0.00000E+00   -0.17879E+01    74
  FERMI_SHIFT =   1.661837427968468E-002
Total rVV10 correction in eV:      2.1041407    78.1959937
RMM:   7    -0.986495608171E+02   -0.19247E-04   -0.12283E-05   152   0.240E-02    0.192E-03
SOL: 109  -0.17881E+01    0.00000E+00   -0.17881E+01    76
  FERMI_SHIFT =   1.662053095118279E-002
Total rVV10 correction in eV:      2.1041392    78.1958878
RMM:   8    -0.986495932346E+02   -0.32417E-04   -0.14484E-05   152   0.247E-02    0.140E-03
SOL: 110  -0.17881E+01    0.00000E+00   -0.17881E+01    68
  FERMI_SHIFT =   1.662053095118052E-002
Total rVV10 correction in eV:      2.1041377    78.1958141
RMM:   9    -0.986496057028E+02   -0.12468E-04   -0.13971E-05   152   0.260E-02    0.108E-03
SOL: 111  -0.17882E+01    0.00000E+00   -0.17882E+01    73
  FERMI_SHIFT =   1.662053095118352E-002
Total rVV10 correction in eV:      2.1041342    78.1956102
RMM:  10    -0.986496398081E+02   -0.34105E-04   -0.14411E-05   153   0.245E-02    0.143E-03
SOL: 112  -0.17882E+01    0.00000E+00   -0.17882E+01    69
  FERMI_SHIFT =   1.662053095118005E-002
Total rVV10 correction in eV:      2.1041330    78.1955103
RMM:  11    -0.986496523907E+02   -0.12583E-04   -0.78946E-06   150   0.186E-02    0.673E-04
SOL: 113  -0.17883E+01    0.00000E+00   -0.17883E+01    65
  FERMI_SHIFT =   1.661836527262789E-002
Total rVV10 correction in eV:      2.1041306    78.1953708
RMM:  12    -0.986496652379E+02   -0.12847E-04   -0.57008E-06   146   0.175E-02    0.130E-03
SOL: 114  -0.17883E+01    0.00000E+00   -0.17883E+01    63
  FERMI_SHIFT =   1.661836527263358E-002
Total rVV10 correction in eV:      2.1041287    78.1952921
RMM:  13    -0.986496718209E+02   -0.65830E-05   -0.43089E-06   146   0.151E-02
Total rVV10 correction in eV:      2.1041231    78.1950585
SOL: 115  -0.17883E+01    0.00000E+00   -0.17883E+01    59
  FERMI_SHIFT =   1.661836527263116E-002
Total rVV10 correction in eV:      2.1041277    78.1952531
   8 F= -.98649672E+02 E0= -.98649672E+02  d E =-.311695E-03  mag=    -0.0000
 trial-energy change:   -0.000312  1 .order   -0.000250   -0.001794    0.001294
 step:   0.4255(harm=  0.4057)  dis= 0.00212  next Energy=   -98.649921 (dE=-0.561E-03)
 bond charge predicted
       N       E                     dE             d eps       ncg     rms          rms(c)
SOL: 116  -0.17883E+01    0.00000E+00   -0.17883E+01    83
  FERMI_SHIFT =   1.662051967750439E-002
Total rVV10 correction in eV:      2.1041394    78.1952552
DAV:   1    -0.986495721567E+02    0.93081E-04   -0.92939E-02   272   0.154E+00    0.614E-02
SOL: 117  -0.17880E+01    0.00000E+00   -0.17880E+01    77
  FERMI_SHIFT =   1.661837639323779E-002
Total rVV10 correction in eV:      2.1041559    78.1955900
RMM:   2    -0.986498821126E+02   -0.30996E-03   -0.31135E-03   224   0.279E-01    0.346E-02
SOL: 118  -0.17878E+01    0.00000E+00   -0.17878E+01    75
  FERMI_SHIFT =   1.662052854743692E-002
Total rVV10 correction in eV:      2.1041548    78.1955123
RMM:   3    -0.986498868720E+02   -0.47594E-05   -0.83636E-05   199   0.425E-02
Total rVV10 correction in eV:      2.1041454    78.1950584
SOL: 119  -0.17875E+01    0.00000E+00   -0.17875E+01    79
  FERMI_SHIFT =   1.662053803143632E-002
Total rVV10 correction in eV:      2.1041470    78.1952361
   9 F= -.98649887E+02 E0= -.98649887E+02  d E =-.526746E-03  mag=     0.0000
 curvature:  -0.35 expect dE=-0.721E-03 dE for cont linesearch -0.297E-06
 trial: gam= 0.78056 g(F)=  0.208E-02 g(S)=  0.000E+00 ort =-0.614E-04 (trialstep = 0.608E+00)
 search vector abs. value=  0.467E-02
 bond charge predicted
       N       E                     dE             d eps       ncg     rms          rms(c)
SOL: 120  -0.17880E+01    0.00000E+00   -0.17880E+01    87
  FERMI_SHIFT =   1.662055349283953E-002
Total rVV10 correction in eV:      2.1040783    78.1952389
DAV:   1    -0.986489641855E+02    0.91793E-03   -0.48711E-01   240   0.346E+00    0.130E-01
SOL: 121  -0.17879E+01    0.00000E+00   -0.17879E+01    81
  FERMI_SHIFT =   1.661828900725087E-002
Total rVV10 correction in eV:      2.1041139    78.1960472
RMM:   2    -0.986502840226E+02   -0.13198E-02   -0.14546E-02   224   0.609E-01    0.660E-02
SOL: 122  -0.17878E+01    0.00000E+00   -0.17878E+01    78
  FERMI_SHIFT =   1.662064321287279E-002
Total rVV10 correction in eV:      2.1041145    78.1959212
RMM:   3    -0.986502688963E+02    0.15126E-04   -0.34472E-04   224   0.843E-02    0.462E-02
SOL: 123  -0.17878E+01    0.00000E+00   -0.17878E+01    81
  FERMI_SHIFT =   1.661820051954072E-002
Total rVV10 correction in eV:      2.1041082    78.1953635
RMM:   4    -0.986504724091E+02   -0.20351E-03   -0.24435E-04   220   0.870E-02    0.115E-02
SOL: 124  -0.17879E+01    0.00000E+00   -0.17879E+01    73
  FERMI_SHIFT =   1.661821114637499E-002
Total rVV10 correction in eV:      2.1041095    78.1953572
RMM:   5    -0.986504722777E+02    0.13137E-06   -0.14085E-05   152   0.230E-02
Total rVV10 correction in eV:      2.1041011    78.1950587
SOL: 125  -0.17882E+01    0.00000E+00   -0.17882E+01    75
  FERMI_SHIFT =   1.661821114637696E-002
Total rVV10 correction in eV:      2.1041102    78.1953441
  10 F= -.98650472E+02 E0= -.98650472E+02  d E =-.585406E-03  mag=     0.0000
 trial-energy change:   -0.000585  1 .order   -0.000571   -0.001235    0.000093
 step:   0.5656(harm=  0.5656)  dis= 0.00445  next Energy=   -98.650461 (dE=-0.574E-03)
 bond charge predicted
       N       E                     dE             d eps       ncg     rms          rms(c)
SOL: 126  -0.17881E+01    0.00000E+00   -0.17881E+01    74
  FERMI_SHIFT =   1.661821148837564E-002
Total rVV10 correction in eV:      2.1041151    78.1953441
DAV:   1    -0.986504736059E+02   -0.11968E-05   -0.23622E-03   288   0.241E-01    0.957E-03
SOL: 127  -0.17882E+01    0.00000E+00   -0.17882E+01    72
  FERMI_SHIFT =   1.661821148841591E-002
Total rVV10 correction in eV:      2.1041146    78.1953595
RMM:   2    -0.986504793003E+02   -0.56944E-05   -0.67098E-05   206   0.463E-02
Total rVV10 correction in eV:      2.1041025    78.1950587
SOL: 128  -0.17883E+01    0.00000E+00   -0.17883E+01    69
  FERMI_SHIFT =   1.662069300419358E-002
Total rVV10 correction in eV:      2.1041134    78.1953380
  11 F= -.98650479E+02 E0= -.98650479E+02  d E =-.592428E-03  mag=     0.0000
 curvature:  -0.65 expect dE=-0.612E-03 dE for cont linesearch -0.144E-05
 trial: gam= 0.33432 g(F)=  0.941E-03 g(S)=  0.000E+00 ort = 0.102E-03 (trialstep = 0.600E+00)
 search vector abs. value=  0.153E-02
 bond charge predicted
       N       E                     dE             d eps       ncg     rms          rms(c)
SOL: 129  -0.17884E+01    0.00000E+00   -0.17884E+01    84
  FERMI_SHIFT =   1.662068228554658E-002
Total rVV10 correction in eV:      2.1040836    78.1953387
DAV:   1    -0.986501811225E+02    0.29248E-03   -0.14199E-01   256   0.187E+00    0.744E-02
SOL: 130  -0.17886E+01    0.00000E+00   -0.17886E+01    79
  FERMI_SHIFT =   1.662065172069963E-002
Total rVV10 correction in eV:      2.1040934    78.1957216
RMM:   2    -0.986505935109E+02   -0.41239E-03   -0.45371E-03   224   0.339E-01    0.387E-02
SOL: 131  -0.17887E+01    0.00000E+00   -0.17887E+01    76
  FERMI_SHIFT =   1.662065172084942E-002
Total rVV10 correction in eV:      2.1040886    78.1956643
RMM:   3    -0.986505888606E+02    0.46502E-05   -0.12712E-04   218   0.518E-02    0.273E-02
SOL: 132  -0.17889E+01    0.00000E+00   -0.17889E+01    79
  FERMI_SHIFT =   1.661861004876478E-002
Total rVV10 correction in eV:      2.1040751    78.1953820
RMM:   4    -0.986506506338E+02   -0.61773E-04   -0.72580E-05   210   0.514E-02    0.602E-03
SOL: 133  -0.17890E+01    0.00000E+00   -0.17890E+01    70
  FERMI_SHIFT =   1.662061253531932E-002
Total rVV10 correction in eV:      2.1040743    78.1953729
RMM:   5    -0.986506521618E+02   -0.15280E-05   -0.63928E-06   146   0.181E-02
Total rVV10 correction in eV:      2.1040643    78.1950587
SOL: 134  -0.17891E+01    0.00000E+00   -0.17891E+01    71
  FERMI_SHIFT =   1.661829309203880E-002
Total rVV10 correction in eV:      2.1040734    78.1953592
  12 F= -.98650652E+02 E0= -.98650652E+02  d E =-.172861E-03  mag=     0.0000
 trial-energy change:   -0.000173  1 .order   -0.000184   -0.000585    0.000217
 step:   0.4375(harm=  0.4375)  dis= 0.00169  next Energy=   -98.650692 (dE=-0.213E-03)
 bond charge predicted
       N       E                     dE             d eps       ncg     rms          rms(c)
SOL: 135  -0.17890E+01    0.00000E+00   -0.17890E+01    78
  FERMI_SHIFT =   1.661828957132247E-002
Total rVV10 correction in eV:      2.1040815    78.1953593
DAV:   1    -0.986506523079E+02   -0.16741E-05   -0.10368E-02   288   0.505E-01    0.201E-02
SOL: 136  -0.17890E+01    0.00000E+00   -0.17890E+01    73
  FERMI_SHIFT =   1.662062466763889E-002
Total rVV10 correction in eV:      2.1040836    78.1954225
RMM:   2    -0.986506810664E+02   -0.28759E-04   -0.32925E-04   224   0.938E-02    0.104E-02
SOL: 137  -0.17891E+01    0.00000E+00   -0.17891E+01    69
  FERMI_SHIFT =   1.661829877072390E-002
Total rVV10 correction in eV:      2.1040831    78.1953880
RMM:   3    -0.986506844183E+02   -0.33518E-05   -0.97543E-06   148   0.202E-02
Total rVV10 correction in eV:      2.1040752    78.1950587
SOL: 138  -0.17891E+01    0.00000E+00   -0.17891E+01    72
  FERMI_SHIFT =   1.661830772979755E-002
Total rVV10 correction in eV:      2.1040804    78.1952687
  13 F= -.98650684E+02 E0= -.98650684E+02  d E =-.205118E-03  mag=     0.0000
 curvature:  -0.34 expect dE=-0.156E-03 dE for cont linesearch -0.418E-07
 trial: gam= 0.48949 g(F)=  0.453E-03 g(S)=  0.000E+00 ort = 0.136E-04 (trialstep = 0.567E+00)
 search vector abs. value=  0.833E-03
 bond charge predicted
       N       E                     dE             d eps       ncg     rms          rms(c)
SOL: 139  -0.17893E+01    0.00000E+00   -0.17893E+01    83
  FERMI_SHIFT =   1.662059008356620E-002
Total rVV10 correction in eV:      2.1040553    78.1952698
DAV:   1    -0.986505064983E+02    0.17457E-03   -0.83363E-02   248   0.141E+00    0.530E-02
SOL: 140  -0.17892E+01    0.00000E+00   -0.17892E+01    76
  FERMI_SHIFT =   1.662061079495786E-002
Total rVV10 correction in eV:      2.1040671    78.1955035
RMM:   2    -0.986507637856E+02   -0.25729E-03   -0.27061E-03   224   0.262E-01    0.298E-02
SOL: 141  -0.17892E+01    0.00000E+00   -0.17892E+01    75
  FERMI_SHIFT =   1.662061079500535E-002
Total rVV10 correction in eV:      2.1040652    78.1954490
RMM:   3    -0.986507581432E+02    0.56424E-05   -0.72698E-05   186   0.405E-02
Total rVV10 correction in eV:      2.1040522    78.1950587
SOL: 142  -0.17890E+01    0.00000E+00   -0.17890E+01    79
  FERMI_SHIFT =   1.662067348172869E-002
Total rVV10 correction in eV:      2.1040583    78.1952370
  14 F= -.98650758E+02 E0= -.98650758E+02  d E =-.737249E-04  mag=     0.0000
 trial-energy change:   -0.000074  1 .order   -0.000087   -0.000261    0.000086
 step:   0.4262(harm=  0.4262)  dis= 0.00171  next Energy=   -98.650782 (dE=-0.980E-04)
 bond charge predicted
       N       E                     dE             d eps       ncg     rms          rms(c)
SOL: 143  -0.17890E+01    0.00000E+00   -0.17890E+01    76
  FERMI_SHIFT =   1.662067398612846E-002
Total rVV10 correction in eV:      2.1040646    78.1952370
DAV:   1    -0.986507799295E+02   -0.16144E-04   -0.55891E-03   272   0.369E-01    0.132E-02
SOL: 144  -0.17890E+01    0.00000E+00   -0.17890E+01    72
  FERMI_SHIFT =   1.662065275170296E-002
Total rVV10 correction in eV:      2.1040646    78.1952486
RMM:   2    -0.986508009816E+02   -0.21052E-04   -0.20766E-04   224   0.743E-02    0.744E-03
SOL: 145  -0.17891E+01    0.00000E+00   -0.17891E+01    70
  FERMI_SHIFT =   1.662048177215708E-002
Total rVV10 correction in eV:      2.1040646    78.1952393
RMM:   3    -0.986508001591E+02    0.82248E-06   -0.62913E-06   146   0.179E-02
Total rVV10 correction in eV:      2.1040587    78.1950587
SOL: 146  -0.17891E+01    0.00000E+00   -0.17891E+01    73
  FERMI_SHIFT =   1.661834271608012E-002
Total rVV10 correction in eV:      2.1040630    78.1951894
  15 F= -.98650800E+02 E0= -.98650800E+02  d E =-.115741E-03  mag=     0.0000
 curvature:  -0.39 expect dE=-0.180E-03 dE for cont linesearch -0.188E-06
 trial: gam= 0.99343 g(F)=  0.466E-03 g(S)=  0.000E+00 ort = 0.201E-04 (trialstep = 0.338E+00)
 search vector abs. value=  0.133E-02
 bond charge predicted
       N       E                     dE             d eps       ncg     rms          rms(c)
SOL: 147  -0.17893E+01    0.00000E+00   -0.17893E+01    81
  FERMI_SHIFT =   1.662054048302414E-002
Total rVV10 correction in eV:      2.1040469    78.1951901
DAV:   1    -0.986507415787E+02    0.59403E-04   -0.44176E-02   256   0.105E+00    0.364E-02
SOL: 148  -0.17892E+01    0.00000E+00   -0.17892E+01    75
  FERMI_SHIFT =   1.661848944504807E-002
Total rVV10 correction in eV:      2.1040553    78.1953526
RMM:   2    -0.986508830859E+02   -0.14151E-03   -0.13869E-03   224   0.193E-01    0.205E-02
SOL: 149  -0.17891E+01    0.00000E+00   -0.17891E+01    73
  FERMI_SHIFT =   1.661852598247571E-002
Total rVV10 correction in eV:      2.1040551    78.1953216
RMM:   3    -0.986508817994E+02    0.12865E-05   -0.35580E-05   166   0.322E-02
Total rVV10 correction in eV:      2.1040500    78.1950586
SOL: 150  -0.17890E+01    0.00000E+00   -0.17890E+01    77
  FERMI_SHIFT =   1.661856459258593E-002
Total rVV10 correction in eV:      2.1040517    78.1951498
  16 F= -.98650882E+02 E0= -.98650882E+02  d E =-.816403E-04  mag=     0.0000
 trial-energy change:   -0.000082  1 .order   -0.000091   -0.000164   -0.000017
 step:   0.3775(harm=  0.3775)  dis= 0.00147  next Energy=   -98.650892 (dE=-0.917E-04)
 reached required accuracy - stopping structural energy minimisation
 writing wavefunctions
SOL: 151  -0.17890E+01    0.00000E+00   -0.17890E+01     0
  FERMI_SHIFT =   1.661856459258604E-002
TACC:  Shutdown complete. Exiting. 
Job finished on c494-114.stampede2.tacc.utexas.edu at Sun May 23 05:12:00 CDT 2021
/tmp/slurmd/job7770680/slurm_script: line 17: /home1/07906/yc116: Is a directory
