 vasp.5.4.4.18Apr17-6-g9f103f2a35 (build May 01 2020 14:57:12) complex          
  
 executed on             LinuxIFC date 2021.05.23  00:00:16
 running on   48 total cores
 distrk:  each k-point on   48 cores,    1 groups
 distr:  one band on NCORES_PER_BAND=  12 cores,    4 groups


--------------------------------------------------------------------------------------------------------


 INCAR:
 POTCAR:    PAW_PBE C 08Apr2002                   
 POTCAR:    PAW_PBE F 08Apr2002                   
 POTCAR:    PAW_PBE O 08Apr2002                   

 ----------------------------------------------------------------------------- 
|                                                                             |
|  ADVICE TO THIS USER RUNNING 'VASP/VAMP'   (HEAR YOUR MASTER'S VOICE ...):  |
|                                                                             |
|      You have switched on vdW-DFT.                                          |
|      This routine was written and supplied by Jiri Klimes.                  |
|      We recommed that you carefully read and cite the following             |
|      publication                                                            |
|      J. Klimes, D.R. Bowler, A. Michelides                                  |
|        J. Phys.: Cond Matt. 22 022201 (2010)                                |
|      J. Klimes, D.R. Bowler, A. Michelides                                  |
|        Phys. Rev. B. 83, 195131 (2011)                                      |
|      and references therein.                                                |
|                                                                             |
 ----------------------------------------------------------------------------- 

 POTCAR:    PAW_PBE C 08Apr2002                   
   VRHFIN =C: s2p2                                                              
   LEXCH  = PE                                                                  
   EATOM  =   147.1560 eV,   10.8157 Ry                                         
                                                                                
   TITEL  = PAW_PBE C 08Apr2002                                                 
   LULTRA =        F    use ultrasoft PP ?                                      
   IUNSCR =        1    unscreen: 0-lin 1-nonlin 2-no                           
   RPACOR =    1.200    partial core radius                                     
   POMASS =   12.011; ZVAL   =    4.000    mass and valenz                      
   RCORE  =    1.500    outmost cutoff radius                                   
   RWIGS  =    1.630; RWIGS  =    0.863    wigner-seitz radius (au A)           
   ENMAX  =  400.000; ENMIN  =  300.000 eV                                      
   ICORE  =        2    local potential                                         
   LCOR   =        T    correct aug charges                                     
   LPAW   =        T    paw PP                                                  
   EAUG   =  644.873                                                            
   DEXC   =    0.000                                                            
   RMAX   =    1.529    core radius for proj-oper                               
   RAUG   =    1.300    factor for augmentation sphere                          
   RDEP   =    1.501    radius for radial grids                                 
   RDEPT  =    1.300    core radius for aug-charge                              
                                                                                
   Atomic configuration                                                         
    4 entries                                                                   
     n  l   j            E        occ.                                          
     1  0  0.50      -273.3789   2.0000                                         
     2  0  0.50       -13.7508   2.0000                                         
     2  1  0.50        -5.2854   2.0000                                         
     3  2  1.50        -5.4423   0.0000                                         
   Description                                                                  
     l       E           TYP  RCUT    TYP  RCUT                                 
     0    -13.7508458     23  1.200                                             
     0     -8.2022199     23  1.200                                             
     1     -5.2854383     23  1.500                                             
     1     34.0145650     23  1.500                                             
     2     -5.4423304      7  1.500                                             
  local pseudopotential read in
  partial core-charges read in
  partial kinetic energy density read in
  atomic valenz-charges read in
  non local Contribution for L=           0  read in
    real space projection operators read in
  non local Contribution for L=           0  read in
    real space projection operators read in
  non local Contribution for L=           1  read in
    real space projection operators read in
  non local Contribution for L=           1  read in
    real space projection operators read in
    PAW grid and wavefunctions read in
 
   number of l-projection  operators is LMAX  =           4
   number of lm-projection operators is LMMAX =           8
 
 POTCAR:    PAW_PBE F 08Apr2002                   
   VRHFIN =F: s2p5                                                              
   LEXCH  = PE                                                                  
   EATOM  =   659.6475 eV,   48.4827 Ry                                         
                                                                                
   TITEL  = PAW_PBE F 08Apr2002                                                 
   LULTRA =        F    use ultrasoft PP ?                                      
   IUNSCR =        1    unscreen: 0-lin 1-nonlin 2-no                           
   RPACOR =    1.200    partial core radius                                     
   POMASS =   18.998; ZVAL   =    7.000    mass and valenz                      
   RCORE  =    1.520    outmost cutoff radius                                   
   RWIGS  =    1.500; RWIGS  =    0.794    wigner-seitz radius (au A)           
   ENMAX  =  400.000; ENMIN  =  300.000 eV                                      
   ICORE  =        2    local potential                                         
   LCOR   =        T    correct aug charges                                     
   LPAW   =        T    paw PP                                                  
   EAUG   =  613.614                                                            
   RMAX   =    1.555    core radius for proj-oper                               
   RAUG   =    1.300    factor for augmentation sphere                          
   RDEP   =    1.539    radius for radial grids                                 
   RDEPT  =    1.299    core radius for aug-charge                              
                                                                                
   Atomic configuration                                                         
    4 entries                                                                   
     n  l   j            E        occ.                                          
     1  0  0.50      -663.3661   2.0000                                         
     2  0  0.50       -29.8995   2.0000                                         
     2  1  0.50       -11.1114   5.0000                                         
     3  2  1.50       -10.8847   0.0000                                         
   Description                                                                  
     l       E           TYP  RCUT    TYP  RCUT                                 
     0    -29.8995018     23  1.200                                             
     0     -9.5240782     23  1.200                                             
     1    -11.1113914     23  1.520                                             
     1      1.3605826     23  1.520                                             
     2    -10.8846608      7  1.500                                             
  local pseudopotential read in
  partial core-charges read in
  partial kinetic energy density read in
  atomic valenz-charges read in
  non local Contribution for L=           0  read in
    real space projection operators read in
  non local Contribution for L=           0  read in
    real space projection operators read in
  non local Contribution for L=           1  read in
    real space projection operators read in
  non local Contribution for L=           1  read in
    real space projection operators read in
    PAW grid and wavefunctions read in
 
   number of l-projection  operators is LMAX  =           4
   number of lm-projection operators is LMMAX =           8
 
 POTCAR:    PAW_PBE O 08Apr2002                   
   VRHFIN =O: s2p4                                                              
   LEXCH  = PE                                                                  
   EATOM  =   432.3788 eV,   31.7789 Ry                                         
                                                                                
   TITEL  = PAW_PBE O 08Apr2002                                                 
   LULTRA =        F    use ultrasoft PP ?                                      
   IUNSCR =        1    unscreen: 0-lin 1-nonlin 2-no                           
   RPACOR =    1.200    partial core radius                                     
   POMASS =   16.000; ZVAL   =    6.000    mass and valenz                      
   RCORE  =    1.520    outmost cutoff radius                                   
   RWIGS  =    1.550; RWIGS  =    0.820    wigner-seitz radius (au A)           
   ENMAX  =  400.000; ENMIN  =  300.000 eV                                      
   ICORE  =        2    local potential                                         
   LCOR   =        T    correct aug charges                                     
   LPAW   =        T    paw PP                                                  
   EAUG   =  605.392                                                            
   DEXC   =    0.000                                                            
   RMAX   =    1.553    core radius for proj-oper                               
   RAUG   =    1.300    factor for augmentation sphere                          
   RDEP   =    1.550    radius for radial grids                                 
   RDEPT  =    1.329    core radius for aug-charge                              
                                                                                
   Atomic configuration                                                         
    4 entries                                                                   
     n  l   j            E        occ.                                          
     1  0  0.50      -514.6923   2.0000                                         
     2  0  0.50       -23.9615   2.0000                                         
     2  1  0.50        -9.0305   4.0000                                         
     3  2  1.50        -9.5241   0.0000                                         
   Description                                                                  
     l       E           TYP  RCUT    TYP  RCUT                                 
     0    -23.9615318     23  1.200                                             
     0     -9.5240782     23  1.200                                             
     1     -9.0304911     23  1.520                                             
     1      8.1634956     23  1.520                                             
     2     -9.5240782      7  1.500                                             
  local pseudopotential read in
  partial core-charges read in
  partial kinetic energy density read in
  kinetic energy density of atom read in
  atomic valenz-charges read in
  non local Contribution for L=           0  read in
    real space projection operators read in
  non local Contribution for L=           0  read in
    real space projection operators read in
  non local Contribution for L=           1  read in
    real space projection operators read in
  non local Contribution for L=           1  read in
    real space projection operators read in
    PAW grid and wavefunctions read in
 
   number of l-projection  operators is LMAX  =           4
   number of lm-projection operators is LMMAX =           8
 
 Optimization of the real space projectors (new method)

 maximal supplied QI-value         = 25.13
 optimisation between [QCUT,QGAM] = [ 11.81, 23.88] = [ 39.08,159.64] Ry 
 Optimized for a Real-space Cutoff    1.18 Angstroem

   l    n(q)    QCUT    max X(q) W(low)/X(q) W(high)/X(q)  e(spline) 
   0      8    11.813   115.676    0.10E-03    0.16E-03    0.35E-06
   0      8    11.813    87.132    0.10E-03    0.16E-03    0.35E-06
   1      8    11.813     4.429    0.16E-03    0.13E-04    0.22E-06
   1      8    11.813     2.733    0.13E-03    0.10E-04    0.18E-06
 Optimization of the real space projectors (new method)

 maximal supplied QI-value         = 24.76
 optimisation between [QCUT,QGAM] = [ 11.88, 24.01] = [ 39.54,161.47] Ry 
 Optimized for a Real-space Cutoff    1.18 Angstroem

   l    n(q)    QCUT    max X(q) W(low)/X(q) W(high)/X(q)  e(spline) 
   0      8    11.883    14.049    0.56E-04    0.86E-04    0.22E-06
   0      8    11.883     8.945    0.81E-04    0.11E-03    0.30E-06
   1      8    11.883     7.086    0.16E-03    0.15E-04    0.31E-06
   1      8    11.883     6.747    0.15E-03    0.14E-04    0.28E-06
 Optimization of the real space projectors (new method)

 maximal supplied QI-value         = 24.76
 optimisation between [QCUT,QGAM] = [ 11.88, 24.01] = [ 39.54,161.47] Ry 
 Optimized for a Real-space Cutoff    1.18 Angstroem

   l    n(q)    QCUT    max X(q) W(low)/X(q) W(high)/X(q)  e(spline) 
   0      8    11.883    20.381    0.86E-04    0.11E-03    0.31E-06
   0      8    11.883    15.268    0.94E-04    0.12E-03    0.33E-06
   1      8    11.883     5.964    0.19E-03    0.18E-04    0.33E-06
   1      8    11.883     5.382    0.17E-03    0.20E-04    0.29E-06
  PAW_PBE C 08Apr2002                   :
 energy of atom  1       EATOM= -147.1560
 kinetic energy error for atom=    0.0066 (will be added to EATOM!!)
  PAW_PBE F 08Apr2002                   :
 energy of atom  2       EATOM= -659.6475
 kinetic energy error for atom=    0.0296 (will be added to EATOM!!)
  PAW_PBE O 08Apr2002                   :
 energy of atom  3       EATOM= -432.3788
 kinetic energy error for atom=    0.0194 (will be added to EATOM!!)
 
 
 POSCAR: C F O                                   
  positions in direct lattice
  velocities in cartesian coordinates

 METAGGA = SCAN     LMAXTAU =  6    LMIXTAU =  F

 exchange correlation table for  LEXCH =        8
   RHO(1)=    0.500       N(1)  =     2000
   RHO(2)=  100.500       N(2)  =     4000
 


--------------------------------------------------------------------------------------------------------


 ion  position               nearest neighbor table
   1  0.497  0.570  0.507-   6 1.34   5 1.34   7 1.35   2 1.55
   2  0.523  0.514  0.509-   8 1.35   9 1.36   3 1.54   1 1.55
   3  0.483  0.469  0.490-  10 1.38  11 1.38   2 1.54   4 1.57
   4  0.504  0.413  0.508-  13 1.24  12 1.24   3 1.57
   5  0.474  0.581  0.456-   1 1.34
   6  0.456  0.577  0.548-   1 1.34
   7  0.538  0.606  0.517-   1 1.35
   8  0.570  0.516  0.476-   2 1.35
   9  0.539  0.506  0.565-   2 1.36
  10  0.429  0.481  0.511-   3 1.38
  11  0.478  0.472  0.431-   3 1.38
  12  0.553  0.404  0.490-   4 1.24
  13  0.469  0.387  0.537-   4 1.24
 
  LATTYP: Found a simple orthorhombic cell.
 ALAT       =    23.2254676500
 B/A-ratio  =     1.0055836159
 C/A-ratio  =     1.0938837681
  
  Lattice vectors:
  
 A1 = (   0.0000000000,   0.0000000000,  23.2254676500)
 A2 = ( -23.3551497400,   0.0000000000,   0.0000000000)
 A3 = (   0.0000000000, -25.4059620700,   0.0000000000)


Analysis of symmetry for initial positions (statically):
=====================================================================
 Subroutine PRICEL returns:
 Original cell was already a primitive cell.
 

 Routine SETGRP: Setting up the symmetry group for a 
 simple orthorhombic supercell.


 Subroutine GETGRP returns: Found  1 space group operations
 (whereof  1 operations were pure point group operations)
 out of a pool of  8 trial point group operations.


The static configuration has the point symmetry C_1 .


Analysis of symmetry for dynamics (positions and initial velocities):
=====================================================================
 Subroutine PRICEL returns:
 Original cell was already a primitive cell.
 

 Routine SETGRP: Setting up the symmetry group for a 
 simple orthorhombic supercell.


 Subroutine GETGRP returns: Found  1 space group operations
 (whereof  1 operations were pure point group operations)
 out of a pool of  8 trial point group operations.


The dynamic configuration has the point symmetry C_1 .


Analysis of constrained symmetry for selective dynamics:
=====================================================================
 Subroutine PRICEL returns:
 Original cell was already a primitive cell.
 

 Routine SETGRP: Setting up the symmetry group for a 
 simple orthorhombic supercell.


 Subroutine GETGRP returns: Found  1 space group operations
 (whereof  1 operations were pure point group operations)
 out of a pool of  8 trial point group operations.


The constrained configuration has the point symmetry C_1 .


Analysis of structural, dynamic, and magnetic symmetry:
=====================================================================
 Subroutine PRICEL returns:
 Original cell was already a primitive cell.
 

 Routine SETGRP: Setting up the symmetry group for a 
 simple orthorhombic supercell.


 Subroutine GETGRP returns: Found  1 space group operations
 (whereof  1 operations were pure point group operations)
 out of a pool of  8 trial point group operations.


The magnetic configuration has the point symmetry C_1 .


 Subroutine INISYM returns: Found  1 space group operations
 (whereof  1 operations are pure point group operations),
 and found     1 'primitive' translations

 
 
 KPOINTS: K-Point Grid                            

Automatic generation of k-mesh.
Space group operators:
 irot       det(A)        alpha          n_x          n_y          n_z        tau_x        tau_y        tau_z
    1     1.000000     0.000000     1.000000     0.000000     0.000000     0.000000     0.000000     0.000000
 
 Subroutine IBZKPT returns following result:
 ===========================================
 
 Found      1 irreducible k-points:
 
 Following reciprocal coordinates:
            Coordinates               Weight
  0.000000  0.000000  0.000000      1.000000
 
 Following cartesian coordinates:
            Coordinates               Weight
  0.000000  0.000000  0.000000      1.000000
 


--------------------------------------------------------------------------------------------------------




 Dimension of arrays:
   k-points           NKPTS =      1   k-points in BZ     NKDIM =      1   number of bands    NBANDS=     56
   number of dos      NEDOS =   1200   number of ions     NIONS =     13
   non local maximal  LDIM  =      4   non local SUM 2l+1 LMDIM =      8
   total plane-waves  NPLWV = ******
   max r-space proj   IRMAX =   3199   max aug-charges    IRDMAX=   6177
   dimension x,y,z NGX =   180 NGY =  196 NGZ =  180
   dimension x,y,z NGXF=   360 NGYF=  392 NGZF=  360
   support grid    NGXF=   360 NGYF=  392 NGZF=  360
   ions per type =               4   7   2
   NGX,Y,Z   is equivalent  to a cutoff of  12.81, 12.83, 12.88 a.u.
   NGXF,Y,Z  is equivalent  to a cutoff of  25.63, 25.65, 25.77 a.u.

 SYSTEM =  SiC                                     
 POSCAR =  C F O                                   

 Startparameter for this run:
   NWRITE =      2    write-flag & timer
   PREC   = accura    normal or accurate (medium, high low for compatibility)
   ISTART =      1    job   : 0-new  1-cont  2-samecut
   ICHARG =      0    charge: 1-file 2-atom 10-const
   ISPIN  =      2    spin polarized calculation?
   LNONCOLLINEAR =      F non collinear calculations
   LSORBIT =      F    spin-orbit coupling
   INIWAV =      1    electr: 0-lowe 1-rand  2-diag
   LASPH  =      T    aspherical Exc in radial PAW
   METAGGA=      F    non-selfconsistent MetaGGA calc.

 Electronic Relaxation 1
   ENCUT  =  550.0 eV  40.42 Ry    6.36 a.u.  44.66 48.58 44.41*2*pi/ulx,y,z
   ENINI  =  550.0     initial cutoff
   ENAUG  =  644.9 eV  augmentation charge cutoff
   NELM   =    100;   NELMIN=  2; NELMDL=  0     # of ELM steps 
   EDIFF  = 0.1E-04   stopping-criterion for ELM
   LREAL  =      T    real-space projection
   NLSPLINE    = F    spline interpolate recip. space projectors
   LCOMPAT=      F    compatible to vasp.4.4
   GGA_COMPAT  = T    GGA compatible to vasp.4.4-vasp.4.6
   LMAXPAW     = -100 max onsite density
   LMAXMIX     =    2 max onsite mixed and CHGCAR
   VOSKOWN=      0    Vosko Wilk Nusair interpolation
   ROPT   =   -0.00025  -0.00025  -0.00025
 Ionic relaxation
   EDIFFG = -.2E-01   stopping-criterion for IOM
   NSW    =    500    number of steps for IOM
   NBLOCK =      1;   KBLOCK =    500    inner block; outer block 
   IBRION =      2    ionic relax: 0-MD 1-quasi-New 2-CG
   NFREE  =      1    steps in history (QN), initial steepest desc. (CG)
   ISIF   =      2    stress and relaxation
   IWAVPR =     11    prediction:  0-non 1-charg 2-wave 3-comb
   ISYM   =      2    0-nonsym 1-usesym 2-fastsym
   LCORR  =      T    Harris-Foulkes like correction to forces

   POTIM  = 0.5000    time-step for ionic-motion
   TEIN   =    0.0    initial temperature
   TEBEG  =    0.0;   TEEND  =   0.0 temperature during run
   SMASS  =  -3.00    Nose mass-parameter (am)
   estimated Nose-frequenzy (Omega)   =  0.10E-29 period in steps =****** mass=  -0.125E-25a.u.
   SCALEE = 1.0000    scale energy and forces
   NPACO  =    256;   APACO  = 16.0  distance and # of slots for P.C.
   PSTRESS=    0.0 pullay stress

  Mass of Ions in am
   POMASS =  12.01 19.00 16.00
  Ionic Valenz
   ZVAL   =   4.00  7.00  6.00
  Atomic Wigner-Seitz radii
   RWIGS  =  -1.00 -1.00 -1.00
  virtual crystal weights 
   VCA    =   1.00  1.00  1.00
   NELECT =      78.0000    total number of electrons
   NUPDOWN=      -1.0000    fix difference up-down

 DOS related values:
   EMIN   =  10.00;   EMAX   =-10.00  energy-range for DOS
   EFERMI =   0.00
   ISMEAR =     0;   SIGMA  =   0.05  broadening in eV -4-tet -1-fermi 0-gaus

 Electronic relaxation 2 (details)
   IALGO  =     68    algorithm
   LDIAG  =      T    sub-space diagonalisation (order eigenvalues)
   LSUBROT=      F    optimize rotation matrix (better conditioning)
   TURBO    =      0    0=normal 1=particle mesh
   IRESTART =      0    0=no restart 2=restart with 2 vectors
   NREBOOT  =      0    no. of reboots
   NMIN     =      0    reboot dimension
   EREF     =   0.00    reference energy to select bands
   IMIX   =      4    mixing-type and parameters
     AMIX     =   0.40;   BMIX     =  1.00
     AMIX_MAG =   1.60;   BMIX_MAG =  1.00
     AMIN     =   0.10
     WC   =   100.;   INIMIX=   1;  MIXPRE=   1;  MAXMIX= -45

 Intra band minimization:
   WEIMIN = 0.0010     energy-eigenvalue tresh-hold
   EBREAK =  0.45E-07  absolut break condition
   DEPER  =   0.30     relativ break condition  

   TIME   =   0.40     timestep for ELM

  volume/ion in A,a.u.               =    1060.08      7153.79
  Fermi-wavevector in a.u.,A,eV,Ry     =   0.291751  0.551329  1.158108  0.085119
  Thomas-Fermi vector in A             =   1.151755
 
 Write flags
   LWAVE        =      T    write WAVECAR
   LDOWNSAMPLE  =      F    k-point downsampling of WAVECAR
   LCHARG       =      F    write CHGCAR
   LVTOT        =      F    write LOCPOT, total local potential
   LVHAR        =      T    write LOCPOT, Hartree potential only
   LELF         =      F    write electronic localiz. function (ELF)
   LORBIT       =     11    0 simple, 1 ext, 2 COOP (PROOUT), +10 PAW based schemes


 Dipole corrections
   LMONO  =      F    monopole corrections only (constant potential shift)
   LDIPOL =      F    correct potential (dipole corrections)
   IDIPOL =      0    1-x, 2-y, 3-z, 4-all directions 
   EPSILON=  1.0000000 bulk dielectric constant

 Exchange correlation treatment:
   GGA     =    --    GGA type
   LEXCH   =     8    internal setting for exchange type
   VOSKOWN=      0    Vosko Wilk Nusair interpolation
   LHFCALC =     F    Hartree Fock is set to
   LHFONE  =     F    Hartree Fock one center treatment
   AEXX    =    0.0000 exact exchange contribution

 vdW DFT:
   LUSE_VDW   =     T    switch on vdW DFT
   Zab_VDW    =-.8491    correlation parameter
   PARAM1     =0.1234
   PARAM2     =1.0000
   PARAM3     =0.0000
   -- rVV10 --
   BPARAM     =15.7000
   CPARAM     = 0.0093

 Linear response parameters
   LEPSILON=     F    determine dielectric tensor
   LRPA    =     F    only Hartree local field effects (RPA)
   LNABLA  =     F    use nabla operator in PAW spheres
   LVEL    =     F    velocity operator in full k-point grid
   LINTERFAST=   F  fast interpolation
   KINTER  =     0    interpolate to denser k-point grid
   CSHIFT  =0.1000    complex shift for real part using Kramers Kronig
   OMEGAMAX=  -1.0    maximum frequency
   DEG_THRESHOLD= 0.2000000E-02 threshold for treating states as degnerate
   RTIME   =   -0.100 relaxation time in fs
  (WPLASMAI=    0.000 imaginary part of plasma frequency in eV, 0.658/RTIME)
   DFIELD  = 0.0000000 0.0000000 0.0000000 field for delta impulse in time
 
 Orbital magnetization related:
   ORBITALMAG=     F  switch on orbital magnetization
   LCHIMAG   =     F  perturbation theory with respect to B field
   DQ        =  0.001000  dq finite difference perturbation B field
   LLRAUG    =     F  two centre corrections for induced B field

 Solvation model:
   LSOL    =     T         switch on solvation model
   EB_K    = 78.400000     relative permittivity of the bulk solvent
   SIGMA_K =  0.600000     width of the dielectric cavity
   NC_K    =  0.002500     cutoff charge density
   TAU     =  0.000000     cavity surface tension
   LAMBDA_D_K    =  3.040000     Debye length in Angstroms
   LRHOB     =     F     write boundcharge  density
   LRHOION     =     F     write ioniccharge density



--------------------------------------------------------------------------------------------------------


 conjugate gradient relaxation of ions
   using selective dynamics as specified on POSCAR
 charge density and potential will be updated during run
 spin polarized calculation
 RMM-DIIS sequential band-by-band and
  variant of blocked Davidson during initial phase
 perform sub-space diagonalisation
    before iterative eigenvector-optimisation
 modified Broyden-mixing scheme, WC =      100.0
 initial mixing is a Kerker type mixing with AMIX =  0.4000 and BMIX =      1.0000
 Hartree-type preconditioning will be used
 using additional bands           17
 real space projection scheme for non local part
 use partial core corrections
 calculate Harris-corrections to forces 
   (improved forces if not selfconsistent)
 use gradient corrections 
 use of overlap-Matrix (Vanderbilt PP)
 Gauss-broadening in eV      SIGMA  =   0.05


--------------------------------------------------------------------------------------------------------


  energy-cutoff  :      550.00
  volume of cell :    13781.06
      direct lattice vectors                 reciprocal lattice vectors
    23.355149740  0.000000000  0.000000000     0.042817109  0.000000000  0.000000000
     0.000000000 25.405962070  0.000000000     0.000000000  0.039360840  0.000000000
     0.000000000  0.000000000 23.225467650     0.000000000  0.000000000  0.043056184

  length of vectors
    23.355149740 25.405962070 23.225467650     0.042817109  0.039360840  0.043056184


 
 old parameters found on file WAVECAR:
  energy-cutoff  :      550.00
  volume of cell :    13781.06
      direct lattice vectors                 reciprocal lattice vectors
    23.355149740  0.000000000  0.000000000     0.042817109  0.000000000  0.000000000
     0.000000000 25.405962070  0.000000000     0.000000000  0.039360840  0.000000000
     0.000000000  0.000000000 23.225467650     0.000000000  0.000000000  0.043056184

  length of vectors

 
 k-points in units of 2pi/SCALE and weight: K-Point Grid                            
   0.00000000  0.00000000  0.00000000       1.000
 
 k-points in reciprocal lattice and weights: K-Point Grid                            
   0.00000000  0.00000000  0.00000000       1.000
 
 position of ions in fractional coordinates (direct lattice) 
   0.49665520  0.56997427  0.50726507
   0.52264898  0.51404982  0.50895175
   0.48292213  0.46900286  0.48978516
   0.50409284  0.41272774  0.50841072
   0.47352392  0.58055623  0.45552990
   0.45640261  0.57731783  0.54766143
   0.53812858  0.60621713  0.51681620
   0.57022263  0.51618356  0.47564787
   0.53900612  0.50600895  0.56464794
   0.42946044  0.48146930  0.51073313
   0.47845048  0.47224825  0.43070537
   0.55318711  0.40353648  0.49015929
   0.46938291  0.38696422  0.53723621
 
 position of ions in cartesian coordinates  (Angst):
  11.59945661 14.48074474 11.78146845
  12.20654523 13.05993018 11.82064232
  11.27871874 11.91546893 11.37548932
  11.77316385 10.48574519 11.80807668
  11.05922200 14.74958959 10.57989505
  10.65935119 14.66731477 12.71969284
  12.56807359 15.40152935 12.00329788
  13.31763500 13.11413983 11.04714410
  12.58856871 12.85564413 13.11421253
  10.03011284 12.23219067 11.86201589
  11.17428257 11.99792124 10.00333357
  12.91976770 10.25223255 11.38417882
  10.96250813  9.83119831 12.47756219
 


--------------------------------------------------------------------------------------------------------


 k-point  1 :   0.0000 0.0000 0.0000  plane waves:  403665

 maximum and minimum number of plane-waves per node :     33645    33632

 maximum number of plane-waves:    403665
 maximum index in each direction: 
   IXMAX=   44   IYMAX=   48   IZMAX=   44
   IXMIN=  -44   IYMIN=  -48   IZMIN=  -44


 real space projection operators:
  total allocation   :       2480.06 KBytes
  max/ min on nodes  :        210.81        201.00


 parallel 3D FFT for wavefunctions:
    minimum data exchange during FFTs selected (reduces bandwidth)
 parallel 3D FFT for charge:
    minimum data exchange during FFTs selected (reduces bandwidth)


 total amount of memory used by VASP MPI-rank0   293423. kBytes
=======================================================================

   base      :      30000. kBytes
   nonlr-proj:        957. kBytes
   fftplans  :      53115. kBytes
   grid      :     194262. kBytes
   one-center:         12. kBytes
   wavefun   :      15077. kBytes
 
     INWAV:  cpu time    2.3766: real time    2.4063
 Broyden mixing: mesh for mixing (old mesh)
   NGX = 89   NGY = 97   NGZ = 89
  (NGX  =360   NGY  =392   NGZ  =360)
  gives a total of 768337 points

 charge density for first step will be calculated from the start-wavefunctions


--------------------------------------------------------------------------------------------------------


 Maximum index for non-local projection operator          281
 Maximum index for augmentation-charges          376 (set IRDMAX)


--------------------------------------------------------------------------------------------------------


 initial charge from wavefunction
 First call to EWALD:  gamma=   0.074
 Maximum number of real-space cells 3x 3x 3
 Maximum number of reciprocal cells 3x 3x 3

    FEWALD:  cpu time    0.0027: real time    0.0027


--------------------------------------- Iteration      1(   1)  ---------------------------------------


    POTLOK:  cpu time   96.0793: real time   96.3454
    SETDIJ:  cpu time    0.4855: real time    0.4866
     EDDAV:  cpu time   27.9814: real time   28.2440
       DOS:  cpu time    0.0011: real time    0.0011
    CHARGE:  cpu time    5.2349: real time    5.2438
    MIXING:  cpu time    0.0510: real time    0.0512
    --------------------------------------------
      LOOP:  cpu time  129.8333: real time  130.3722

 eigenvalue-minimisations  :   320
 total energy-change (2. order) :-0.9863278E+02  (-0.7258051E-01)
 number of electron      78.0000016 magnetization       0.0000000
 augmentation part       10.5492972 magnetization       0.0000024

 Broyden mixing:
  rms(total) = 0.60769E-01    rms(broyden)= 0.60727E-01
  rms(prec ) = 0.65742E-01
  weight for this iteration     100.00

 Free energy of the ion-electron system (eV)
  ---------------------------------------------------
  alpha Z        PSCENC =         1.69910050
  Ewald energy   TEWEN  =      9723.29209526
  -Hartree energ DENC   =    -15146.35877073
  -exchange      EXHF   =         0.00000000
  -V(xc)+E(xc)   XCENC  =       451.32759464
  PAW double counting   =      7058.47973894    -7111.58695132
  entropy T*S    EENTRO =        -0.00000000
  eigenvalues    EBANDS =     -1322.62451540
  atomic energy  EATOM  =      6070.64150123
  Solvation  Ediel_sol  =       176.49742531
  ---------------------------------------------------
  free energy    TOTEN  =       -98.63278158 eV

  energy without entropy =      -98.63278158  energy(sigma->0) =      -98.63278158


--------------------------------------------------------------------------------------------------------




--------------------------------------- Iteration      1(   2)  ---------------------------------------


    POTLOK:  cpu time   85.4092: real time   85.5910
    SETDIJ:  cpu time    0.4105: real time    0.4115
    EDDIAG:  cpu time    5.3576: real time    5.3669
  RMM-DIIS:  cpu time   30.7815: real time   30.8340
    ORTHCH:  cpu time    0.0527: real time    0.0528
       DOS:  cpu time    0.0004: real time    0.0004
    CHARGE:  cpu time    5.2038: real time    5.2125
    MIXING:  cpu time    0.0489: real time    0.0500
    --------------------------------------------
      LOOP:  cpu time  127.2645: real time  127.5190

 eigenvalue-minimisations  :   224
 total energy-change (2. order) : 0.3665679E-02  (-0.1033879E-01)
 number of electron      78.0000016 magnetization       0.0000000
 augmentation part       10.5343973 magnetization       0.0000013

 Broyden mixing:
  rms(total) = 0.30759E-01    rms(broyden)= 0.30752E-01
  rms(prec ) = 0.35160E-01
  weight for this iteration     100.00

 eigenvalues of (default mixing * dielectric matrix)
  average eigenvalue GAMMA=   1.2099
  1.2099

 Free energy of the ion-electron system (eV)
  ---------------------------------------------------
  alpha Z        PSCENC =         1.69910050
  Ewald energy   TEWEN  =      9723.29209526
  -Hartree energ DENC   =    -15147.22813703
  -exchange      EXHF   =         0.00000000
  -V(xc)+E(xc)   XCENC  =       451.46150087
  PAW double counting   =      7062.95422419    -7116.09349564
  entropy T*S    EENTRO =        -0.00000000
  eigenvalues    EBANDS =     -1321.73647027
  atomic energy  EATOM  =      6070.64150123
  Solvation  Ediel_sol  =       176.38056500
  ---------------------------------------------------
  free energy    TOTEN  =       -98.62911590 eV

  energy without entropy =      -98.62911590  energy(sigma->0) =      -98.62911590


--------------------------------------------------------------------------------------------------------




--------------------------------------- Iteration      1(   3)  ---------------------------------------


    POTLOK:  cpu time   84.1749: real time   84.3497
    SETDIJ:  cpu time    0.4103: real time    0.4113
    EDDIAG:  cpu time    5.2878: real time    5.2968
  RMM-DIIS:  cpu time   30.9281: real time   30.9790
    ORTHCH:  cpu time    0.0464: real time    0.0466
       DOS:  cpu time    0.0003: real time    0.0003
    CHARGE:  cpu time    5.2398: real time    5.2481
    MIXING:  cpu time    0.0493: real time    0.0493
    --------------------------------------------
      LOOP:  cpu time  126.1369: real time  126.3812

 eigenvalue-minimisations  :   228
 total energy-change (2. order) : 0.2648750E-02  (-0.1262865E-02)
 number of electron      78.0000016 magnetization       0.0000000
 augmentation part       10.5324814 magnetization       0.0000004

 Broyden mixing:
  rms(total) = 0.18002E-01    rms(broyden)= 0.17997E-01
  rms(prec ) = 0.21616E-01
  weight for this iteration     100.00

 eigenvalues of (default mixing * dielectric matrix)
  average eigenvalue GAMMA=   1.2960
  1.2960  1.2960

 Free energy of the ion-electron system (eV)
  ---------------------------------------------------
  alpha Z        PSCENC =         1.69910050
  Ewald energy   TEWEN  =      9723.29209526
  -Hartree energ DENC   =    -15147.11047779
  -exchange      EXHF   =         0.00000000
  -V(xc)+E(xc)   XCENC  =       451.43948776
  PAW double counting   =      7063.39234914    -7116.51189144
  entropy T*S    EENTRO =        -0.00000000
  eigenvalues    EBANDS =     -1321.68645419
  atomic energy  EATOM  =      6070.64150123
  Solvation  Ediel_sol  =       176.21782238
  ---------------------------------------------------
  free energy    TOTEN  =       -98.62646715 eV

  energy without entropy =      -98.62646715  energy(sigma->0) =      -98.62646715


--------------------------------------------------------------------------------------------------------




--------------------------------------- Iteration      1(   4)  ---------------------------------------


    POTLOK:  cpu time   84.3131: real time   84.4745
    SETDIJ:  cpu time    0.4102: real time    0.4111
    EDDIAG:  cpu time    5.2755: real time    5.2846
  RMM-DIIS:  cpu time   30.7753: real time   30.8279
    ORTHCH:  cpu time    0.0456: real time    0.0457
       DOS:  cpu time    0.0004: real time    0.0004
    CHARGE:  cpu time    5.1859: real time    5.1951
    MIXING:  cpu time    0.0487: real time    0.0492
    --------------------------------------------
      LOOP:  cpu time  126.0546: real time  126.2884

 eigenvalue-minimisations  :   226
 total energy-change (2. order) : 0.1761773E-02  (-0.2231321E-03)
 number of electron      78.0000016 magnetization       0.0000000
 augmentation part       10.5341378 magnetization       0.0000010

 Broyden mixing:
  rms(total) = 0.89994E-02    rms(broyden)= 0.89989E-02
  rms(prec ) = 0.12815E-01
  weight for this iteration     100.00

 eigenvalues of (default mixing * dielectric matrix)
  average eigenvalue GAMMA=   1.5724
  2.5215  1.0979  1.0979

 Free energy of the ion-electron system (eV)
  ---------------------------------------------------
  alpha Z        PSCENC =         1.69910050
  Ewald energy   TEWEN  =      9723.29209526
  -Hartree energ DENC   =    -15146.95353351
  -exchange      EXHF   =         0.00000000
  -V(xc)+E(xc)   XCENC  =       451.43013330
  PAW double counting   =      7063.09911680    -7116.21392920
  entropy T*S    EENTRO =        -0.00000000
  eigenvalues    EBANDS =     -1321.63712983
  atomic energy  EATOM  =      6070.64150123
  Solvation  Ediel_sol  =       176.01794008
  ---------------------------------------------------
  free energy    TOTEN  =       -98.62470538 eV

  energy without entropy =      -98.62470538  energy(sigma->0) =      -98.62470538


--------------------------------------------------------------------------------------------------------




--------------------------------------- Iteration      1(   5)  ---------------------------------------


    POTLOK:  cpu time   84.6086: real time   84.7695
    SETDIJ:  cpu time    0.4107: real time    0.4116
    EDDIAG:  cpu time    5.3201: real time    5.3293
  RMM-DIIS:  cpu time   30.4754: real time   30.5272
    ORTHCH:  cpu time    0.0455: real time    0.0455
       DOS:  cpu time    0.0003: real time    0.0003
    CHARGE:  cpu time    5.2215: real time    5.2304
    MIXING:  cpu time    0.0516: real time    0.0517
    --------------------------------------------
      LOOP:  cpu time  126.1337: real time  126.3656

 eigenvalue-minimisations  :   224
 total energy-change (2. order) : 0.2099010E-02  (-0.2816333E-03)
 number of electron      78.0000016 magnetization       0.0000000
 augmentation part       10.5348469 magnetization       0.0000007

 Broyden mixing:
  rms(total) = 0.48130E-02    rms(broyden)= 0.48121E-02
  rms(prec ) = 0.75867E-02
  weight for this iteration     100.00

 eigenvalues of (default mixing * dielectric matrix)
  average eigenvalue GAMMA=   1.6058
  2.4760  0.9528  1.4971  1.4971

 Free energy of the ion-electron system (eV)
  ---------------------------------------------------
  alpha Z        PSCENC =         1.69910050
  Ewald energy   TEWEN  =      9723.29209526
  -Hartree energ DENC   =    -15146.98848369
  -exchange      EXHF   =         0.00000000
  -V(xc)+E(xc)   XCENC  =       451.45822323
  PAW double counting   =      7063.26293835    -7116.37556388
  entropy T*S    EENTRO =        -0.00000000
  eigenvalues    EBANDS =     -1321.32283862
  atomic energy  EATOM  =      6070.64150123
  Solvation  Ediel_sol  =       175.71042126
  ---------------------------------------------------
  free energy    TOTEN  =       -98.62260636 eV

  energy without entropy =      -98.62260636  energy(sigma->0) =      -98.62260636


--------------------------------------------------------------------------------------------------------




--------------------------------------- Iteration      1(   6)  ---------------------------------------


    POTLOK:  cpu time   84.3333: real time   84.4948
    SETDIJ:  cpu time    0.4112: real time    0.4121
    EDDIAG:  cpu time    5.3249: real time    5.3342
  RMM-DIIS:  cpu time   31.0451: real time   31.0972
    ORTHCH:  cpu time    0.0455: real time    0.0456
       DOS:  cpu time    0.0004: real time    0.0004
    CHARGE:  cpu time    5.2328: real time    5.2415
    MIXING:  cpu time    0.0537: real time    0.0537
    --------------------------------------------
      LOOP:  cpu time  126.4470: real time  126.6796

 eigenvalue-minimisations  :   228
 total energy-change (2. order) :-0.8301095E-03  (-0.1471754E-03)
 number of electron      78.0000016 magnetization       0.0000000
 augmentation part       10.5330708 magnetization       0.0000002

 Broyden mixing:
  rms(total) = 0.57383E-02    rms(broyden)= 0.57373E-02
  rms(prec ) = 0.70618E-02
  weight for this iteration     100.00

 eigenvalues of (default mixing * dielectric matrix)
  average eigenvalue GAMMA=   1.7654
  2.8670  2.8670  0.9191  1.0869  1.0869

 Free energy of the ion-electron system (eV)
  ---------------------------------------------------
  alpha Z        PSCENC =         1.69910050
  Ewald energy   TEWEN  =      9723.29209526
  -Hartree energ DENC   =    -15147.16990505
  -exchange      EXHF   =         0.00000000
  -V(xc)+E(xc)   XCENC  =       451.48082516
  PAW double counting   =      7063.45431724    -7116.57570166
  entropy T*S    EENTRO =        -0.00000000
  eigenvalues    EBANDS =     -1320.89264048
  atomic energy  EATOM  =      6070.64150123
  Solvation  Ediel_sol  =       175.44697133
  ---------------------------------------------------
  free energy    TOTEN  =       -98.62343647 eV

  energy without entropy =      -98.62343647  energy(sigma->0) =      -98.62343647


--------------------------------------------------------------------------------------------------------




--------------------------------------- Iteration      1(   7)  ---------------------------------------


    POTLOK:  cpu time   83.2723: real time   83.4324
    SETDIJ:  cpu time    0.4102: real time    0.4111
    EDDIAG:  cpu time    5.3457: real time    5.3551
  RMM-DIIS:  cpu time   30.5922: real time   30.6451
    ORTHCH:  cpu time    0.0463: real time    0.0464
       DOS:  cpu time    0.0004: real time    0.0004
    CHARGE:  cpu time    5.2116: real time    5.2209
    MIXING:  cpu time    0.0555: real time    0.0556
    --------------------------------------------
      LOOP:  cpu time  124.9342: real time  125.1669

 eigenvalue-minimisations  :   224
 total energy-change (2. order) :-0.7514919E-03  (-0.8167597E-04)
 number of electron      78.0000016 magnetization       0.0000000
 augmentation part       10.5339922 magnetization      -0.0000002

 Broyden mixing:
  rms(total) = 0.30942E-02    rms(broyden)= 0.30932E-02
  rms(prec ) = 0.39543E-02
  weight for this iteration     100.00

 eigenvalues of (default mixing * dielectric matrix)
  average eigenvalue GAMMA=   1.7661
  3.3667  2.7115  1.3168  1.1069  1.0472  1.0472

 Free energy of the ion-electron system (eV)
  ---------------------------------------------------
  alpha Z        PSCENC =         1.69910050
  Ewald energy   TEWEN  =      9723.29209526
  -Hartree energ DENC   =    -15147.03047580
  -exchange      EXHF   =         0.00000000
  -V(xc)+E(xc)   XCENC  =       451.46934732
  PAW double counting   =      7063.03122847    -7116.15366667
  entropy T*S    EENTRO =        -0.00000000
  eigenvalues    EBANDS =     -1320.80298250
  atomic energy  EATOM  =      6070.64150123
  Solvation  Ediel_sol  =       175.22966423
  ---------------------------------------------------
  free energy    TOTEN  =       -98.62418797 eV

  energy without entropy =      -98.62418797  energy(sigma->0) =      -98.62418797


--------------------------------------------------------------------------------------------------------




--------------------------------------- Iteration      1(   8)  ---------------------------------------


    POTLOK:  cpu time   81.0672: real time   81.2203
    SETDIJ:  cpu time    0.4117: real time    0.4126
    EDDIAG:  cpu time    5.3467: real time    5.3557
  RMM-DIIS:  cpu time   29.9413: real time   29.9920
    ORTHCH:  cpu time    0.0483: real time    0.0484
       DOS:  cpu time    0.0004: real time    0.0004
    CHARGE:  cpu time    5.2761: real time    5.2848
    MIXING:  cpu time    0.0577: real time    0.0578
    --------------------------------------------
      LOOP:  cpu time  122.1493: real time  122.3718

 eigenvalue-minimisations  :   216
 total energy-change (2. order) :-0.8906896E-03  (-0.4991475E-04)
 number of electron      78.0000016 magnetization       0.0000000
 augmentation part       10.5347422 magnetization       0.0000013

 Broyden mixing:
  rms(total) = 0.19233E-02    rms(broyden)= 0.19229E-02
  rms(prec ) = 0.25391E-02
  weight for this iteration     100.00

 eigenvalues of (default mixing * dielectric matrix)
  average eigenvalue GAMMA=   1.8195
  4.3175  2.6875  1.4129  1.0481  1.0481  1.1113  1.1113

 Free energy of the ion-electron system (eV)
  ---------------------------------------------------
  alpha Z        PSCENC =         1.69910050
  Ewald energy   TEWEN  =      9723.29209526
  -Hartree energ DENC   =    -15146.92584013
  -exchange      EXHF   =         0.00000000
  -V(xc)+E(xc)   XCENC  =       451.46820341
  PAW double counting   =      7062.88011351    -7115.99775776
  entropy T*S    EENTRO =        -0.00000000
  eigenvalues    EBANDS =     -1320.82591168
  atomic energy  EATOM  =      6070.64150123
  Solvation  Ediel_sol  =       175.14341701
  ---------------------------------------------------
  free energy    TOTEN  =       -98.62507866 eV

  energy without entropy =      -98.62507866  energy(sigma->0) =      -98.62507866


--------------------------------------------------------------------------------------------------------




--------------------------------------- Iteration      1(   9)  ---------------------------------------


    POTLOK:  cpu time   79.8663: real time   80.0188
    SETDIJ:  cpu time    0.4104: real time    0.4114
    EDDIAG:  cpu time    5.3158: real time    5.3251
  RMM-DIIS:  cpu time   29.9470: real time   30.0001
    ORTHCH:  cpu time    0.0468: real time    0.0469
       DOS:  cpu time    0.0003: real time    0.0003
    CHARGE:  cpu time    5.1927: real time    5.2009
    MIXING:  cpu time    0.0603: real time    0.0605
    --------------------------------------------
      LOOP:  cpu time  120.8397: real time  121.0641

 eigenvalue-minimisations  :   214
 total energy-change (2. order) :-0.1262991E-02  (-0.6073572E-04)
 number of electron      78.0000016 magnetization       0.0000000
 augmentation part       10.5342765 magnetization      -0.0000009

 Broyden mixing:
  rms(total) = 0.98530E-03    rms(broyden)= 0.98492E-03
  rms(prec ) = 0.14388E-02
  weight for this iteration     100.00

 eigenvalues of (default mixing * dielectric matrix)
  average eigenvalue GAMMA=   1.9915
  5.5957  2.6465  2.3041  1.0511  1.0511  1.2958  0.9130  1.0745

 Free energy of the ion-electron system (eV)
  ---------------------------------------------------
  alpha Z        PSCENC =         1.69910050
  Ewald energy   TEWEN  =      9723.29209526
  -Hartree energ DENC   =    -15146.96708772
  -exchange      EXHF   =         0.00000000
  -V(xc)+E(xc)   XCENC  =       451.47349320
  PAW double counting   =      7062.94037797    -7116.06035018
  entropy T*S    EENTRO =        -0.00000000
  eigenvalues    EBANDS =     -1320.72728660
  atomic energy  EATOM  =      6070.64150123
  Solvation  Ediel_sol  =       175.08181470
  ---------------------------------------------------
  free energy    TOTEN  =       -98.62634165 eV

  energy without entropy =      -98.62634165  energy(sigma->0) =      -98.62634165


--------------------------------------------------------------------------------------------------------




--------------------------------------- Iteration      1(  10)  ---------------------------------------


    POTLOK:  cpu time   79.2321: real time   79.3867
    SETDIJ:  cpu time    0.4118: real time    0.4127
    EDDIAG:  cpu time    5.2869: real time    5.2967
  RMM-DIIS:  cpu time   29.5165: real time   29.5701
    ORTHCH:  cpu time    0.0461: real time    0.0461
       DOS:  cpu time    0.0004: real time    0.0004
    CHARGE:  cpu time    5.2296: real time    5.2385
    MIXING:  cpu time    0.0620: real time    0.0621
    --------------------------------------------
      LOOP:  cpu time  119.7854: real time  120.0132

 eigenvalue-minimisations  :   210
 total energy-change (2. order) :-0.1130266E-02  (-0.5378770E-04)
 number of electron      78.0000016 magnetization       0.0000000
 augmentation part       10.5342131 magnetization       0.0000004

 Broyden mixing:
  rms(total) = 0.54567E-03    rms(broyden)= 0.54556E-03
  rms(prec ) = 0.76771E-03
  weight for this iteration     100.00

 eigenvalues of (default mixing * dielectric matrix)
  average eigenvalue GAMMA=   1.9908
  6.4065  2.7000  2.7000  1.0554  1.0554  1.1719  1.1719  0.9587  0.6975

 Free energy of the ion-electron system (eV)
  ---------------------------------------------------
  alpha Z        PSCENC =         1.69910050
  Ewald energy   TEWEN  =      9723.29209526
  -Hartree energ DENC   =    -15146.91156683
  -exchange      EXHF   =         0.00000000
  -V(xc)+E(xc)   XCENC  =       451.46798541
  PAW double counting   =      7062.88633687    -7116.00631760
  entropy T*S    EENTRO =        -0.00000000
  eigenvalues    EBANDS =     -1320.75151853
  atomic energy  EATOM  =      6070.64150123
  Solvation  Ediel_sol  =       175.05491178
  ---------------------------------------------------
  free energy    TOTEN  =       -98.62747191 eV

  energy without entropy =      -98.62747191  energy(sigma->0) =      -98.62747191


--------------------------------------------------------------------------------------------------------




--------------------------------------- Iteration      1(  11)  ---------------------------------------


    POTLOK:  cpu time   74.6937: real time   74.8406
    SETDIJ:  cpu time    0.4116: real time    0.4125
    EDDIAG:  cpu time    5.2827: real time    5.2916
  RMM-DIIS:  cpu time   28.0753: real time   28.1222
    ORTHCH:  cpu time    0.0455: real time    0.0455
       DOS:  cpu time    0.0004: real time    0.0004
    CHARGE:  cpu time    5.2108: real time    5.2194
    MIXING:  cpu time    0.0680: real time    0.0681
    --------------------------------------------
      LOOP:  cpu time  113.7880: real time  114.0003

 eigenvalue-minimisations  :   194
 total energy-change (2. order) :-0.3274687E-03  (-0.2010605E-04)
 number of electron      78.0000016 magnetization       0.0000000
 augmentation part       10.5342565 magnetization      -0.0000006

 Broyden mixing:
  rms(total) = 0.42357E-03    rms(broyden)= 0.42352E-03
  rms(prec ) = 0.59268E-03
  weight for this iteration     100.00

 eigenvalues of (default mixing * dielectric matrix)
  average eigenvalue GAMMA=   2.1117
  7.3942  3.1475  2.5624  1.6383  1.6383  1.0747  1.0747  0.9774  0.9774  0.6324

 Free energy of the ion-electron system (eV)
  ---------------------------------------------------
  alpha Z        PSCENC =         1.69910050
  Ewald energy   TEWEN  =      9723.29209526
  -Hartree energ DENC   =    -15146.87639855
  -exchange      EXHF   =         0.00000000
  -V(xc)+E(xc)   XCENC  =       451.46601765
  PAW double counting   =      7062.87241593    -7115.99175940
  entropy T*S    EENTRO =        -0.00000000
  eigenvalues    EBANDS =     -1320.78369989
  atomic energy  EATOM  =      6070.64150123
  Solvation  Ediel_sol  =       175.05292788
  ---------------------------------------------------
  free energy    TOTEN  =       -98.62779938 eV

  energy without entropy =      -98.62779938  energy(sigma->0) =      -98.62779938


--------------------------------------------------------------------------------------------------------




--------------------------------------- Iteration      1(  12)  ---------------------------------------


    POTLOK:  cpu time   77.2062: real time   77.3714
    SETDIJ:  cpu time    0.4113: real time    0.4121
    EDDIAG:  cpu time    5.3003: real time    5.3096
  RMM-DIIS:  cpu time   26.4414: real time   26.4874
    ORTHCH:  cpu time    0.0471: real time    0.0472
       DOS:  cpu time    0.0004: real time    0.0004
    CHARGE:  cpu time    5.1921: real time    5.2004
    MIXING:  cpu time    0.0691: real time    0.0693
    --------------------------------------------
      LOOP:  cpu time  114.6678: real time  114.8978

 eigenvalue-minimisations  :   177
 total energy-change (2. order) :-0.4436227E-03  (-0.1187167E-04)
 number of electron      78.0000016 magnetization       0.0000000
 augmentation part       10.5343057 magnetization      -0.0000002

 Broyden mixing:
  rms(total) = 0.25049E-03    rms(broyden)= 0.25046E-03
  rms(prec ) = 0.32557E-03
  weight for this iteration     100.00

 eigenvalues of (default mixing * dielectric matrix)
  average eigenvalue GAMMA=   2.1689
  8.1899  3.9720  2.6434  2.1420  1.0757  1.0757  1.1275  1.0803  0.9642  0.9642
  0.6235

 Free energy of the ion-electron system (eV)
  ---------------------------------------------------
  alpha Z        PSCENC =         1.69910050
  Ewald energy   TEWEN  =      9723.29209526
  -Hartree energ DENC   =    -15146.82218611
  -exchange      EXHF   =         0.00000000
  -V(xc)+E(xc)   XCENC  =       451.46357198
  PAW double counting   =      7062.85990259    -7115.97887108
  entropy T*S    EENTRO =        -0.00000000
  eigenvalues    EBANDS =     -1320.83384735
  atomic energy  EATOM  =      6070.64150123
  Solvation  Ediel_sol  =       175.05048997
  ---------------------------------------------------
  free energy    TOTEN  =       -98.62824300 eV

  energy without entropy =      -98.62824300  energy(sigma->0) =      -98.62824300


--------------------------------------------------------------------------------------------------------




--------------------------------------- Iteration      1(  13)  ---------------------------------------


    POTLOK:  cpu time   75.0452: real time   75.2103
    SETDIJ:  cpu time    0.4103: real time    0.4112
    EDDIAG:  cpu time    5.3008: real time    5.3106
  RMM-DIIS:  cpu time   24.5626: real time   24.6049
    ORTHCH:  cpu time    0.0464: real time    0.0465
       DOS:  cpu time    0.0004: real time    0.0004
    CHARGE:  cpu time    5.2700: real time    5.2783
    MIXING:  cpu time    0.0746: real time    0.0747
    --------------------------------------------
      LOOP:  cpu time  110.7104: real time  110.9369

 eigenvalue-minimisations  :   156
 total energy-change (2. order) :-0.1362809E-03  (-0.3905319E-05)
 number of electron      78.0000016 magnetization       0.0000000
 augmentation part       10.5342520 magnetization      -0.0000002

 Broyden mixing:
  rms(total) = 0.15387E-03    rms(broyden)= 0.15383E-03
  rms(prec ) = 0.20943E-03
  weight for this iteration     100.00

 eigenvalues of (default mixing * dielectric matrix)
  average eigenvalue GAMMA=   2.1275
  8.3584  4.1972  2.7359  1.9099  1.3737  1.3737  1.0856  1.0856  1.0078  1.0078
  0.7734  0.6209

 Free energy of the ion-electron system (eV)
  ---------------------------------------------------
  alpha Z        PSCENC =         1.69910050
  Ewald energy   TEWEN  =      9723.29209526
  -Hartree energ DENC   =    -15146.81249139
  -exchange      EXHF   =         0.00000000
  -V(xc)+E(xc)   XCENC  =       451.46391292
  PAW double counting   =      7062.86178680    -7115.98121324
  entropy T*S    EENTRO =        -0.00000000
  eigenvalues    EBANDS =     -1320.84100817
  atomic energy  EATOM  =      6070.64150123
  Solvation  Ediel_sol  =       175.04793680
  ---------------------------------------------------
  free energy    TOTEN  =       -98.62837929 eV

  energy without entropy =      -98.62837929  energy(sigma->0) =      -98.62837929


--------------------------------------------------------------------------------------------------------




--------------------------------------- Iteration      1(  14)  ---------------------------------------


    POTLOK:  cpu time   72.9198: real time   73.0599
    SETDIJ:  cpu time    0.4117: real time    0.4126
    EDDIAG:  cpu time    5.3137: real time    5.3227
  RMM-DIIS:  cpu time   23.8764: real time   23.9170
    ORTHCH:  cpu time    0.0451: real time    0.0452
       DOS:  cpu time    0.0005: real time    0.0005
    CHARGE:  cpu time    5.2462: real time    5.2546
    MIXING:  cpu time    0.0842: real time    0.0844
    --------------------------------------------
      LOOP:  cpu time  107.8976: real time  108.0970

 eigenvalue-minimisations  :   152
 total energy-change (2. order) :-0.9902160E-04  (-0.1329862E-05)
 number of electron      78.0000016 magnetization       0.0000000
 augmentation part       10.5341917 magnetization      -0.0000000

 Broyden mixing:
  rms(total) = 0.11540E-03    rms(broyden)= 0.11536E-03
  rms(prec ) = 0.14731E-03
  weight for this iteration     100.00

 eigenvalues of (default mixing * dielectric matrix)
  average eigenvalue GAMMA=   2.2482
  9.0731  4.7825  3.1297  2.2735  2.2735  1.0761  1.0761  1.0844  1.0844  1.0197
  1.0197  0.7119  0.6224

 Free energy of the ion-electron system (eV)
  ---------------------------------------------------
  alpha Z        PSCENC =         1.69910050
  Ewald energy   TEWEN  =      9723.29209526
  -Hartree energ DENC   =    -15146.79761330
  -exchange      EXHF   =         0.00000000
  -V(xc)+E(xc)   XCENC  =       451.46405985
  PAW double counting   =      7062.84640595    -7115.96599550
  entropy T*S    EENTRO =        -0.00000000
  eigenvalues    EBANDS =     -1320.84449373
  atomic energy  EATOM  =      6070.64150123
  Solvation  Ediel_sol  =       175.03646144
  ---------------------------------------------------
  free energy    TOTEN  =       -98.62847831 eV

  energy without entropy =      -98.62847831  energy(sigma->0) =      -98.62847831


--------------------------------------------------------------------------------------------------------




--------------------------------------- Iteration      1(  15)  ---------------------------------------


    POTLOK:  cpu time   72.2490: real time   72.3894
    SETDIJ:  cpu time    0.4111: real time    0.4121
    EDDIAG:  cpu time    5.3255: real time    5.3354
  RMM-DIIS:  cpu time   23.8409: real time   23.8806
    ORTHCH:  cpu time    0.0457: real time    0.0458
       DOS:  cpu time    0.0004: real time    0.0004
    CHARGE:  cpu time    5.2148: real time    5.2235
    MIXING:  cpu time    0.0830: real time    0.0831
    --------------------------------------------
      LOOP:  cpu time  107.1703: real time  107.3702

 eigenvalue-minimisations  :   149
 total energy-change (2. order) :-0.7123021E-04  (-0.9038175E-06)
 number of electron      78.0000016 magnetization       0.0000000
 augmentation part       10.5341779 magnetization       0.0000004

 Broyden mixing:
  rms(total) = 0.10693E-03    rms(broyden)= 0.10691E-03
  rms(prec ) = 0.12083E-03
  weight for this iteration     100.00

 eigenvalues of (default mixing * dielectric matrix)
  average eigenvalue GAMMA=   2.1717
  9.2126  4.9967  3.1569  2.4938  1.9616  1.0836  1.0836  1.0581  1.0581  1.0824
  1.0824  0.8308  0.6833  0.6199

 Free energy of the ion-electron system (eV)
  ---------------------------------------------------
  alpha Z        PSCENC =         1.69910050
  Ewald energy   TEWEN  =      9723.29209526
  -Hartree energ DENC   =    -15146.77453984
  -exchange      EXHF   =         0.00000000
  -V(xc)+E(xc)   XCENC  =       451.46347599
  PAW double counting   =      7062.83084064    -7115.95022258
  entropy T*S    EENTRO =        -0.00000000
  eigenvalues    EBANDS =     -1320.85576416
  atomic energy  EATOM  =      6070.64150123
  Solvation  Ediel_sol  =       175.02496343
  ---------------------------------------------------
  free energy    TOTEN  =       -98.62854954 eV

  energy without entropy =      -98.62854954  energy(sigma->0) =      -98.62854954


--------------------------------------------------------------------------------------------------------




--------------------------------------- Iteration      1(  16)  ---------------------------------------


    POTLOK:  cpu time   66.9333: real time   67.0619
    SETDIJ:  cpu time    0.4115: real time    0.4124
    EDDIAG:  cpu time    5.3058: real time    5.3151
  RMM-DIIS:  cpu time   23.4934: real time   23.5340
    ORTHCH:  cpu time    0.0449: real time    0.0450
       DOS:  cpu time    0.0004: real time    0.0004
    CHARGE:  cpu time    5.2285: real time    5.2373
    MIXING:  cpu time    0.0912: real time    0.0914
    --------------------------------------------
      LOOP:  cpu time  101.5090: real time  101.6975

 eigenvalue-minimisations  :   146
 total energy-change (2. order) :-0.1128023E-04  (-0.3995064E-06)
 number of electron      78.0000016 magnetization       0.0000000
 augmentation part       10.5341901 magnetization       0.0000003

 Broyden mixing:
  rms(total) = 0.57737E-04    rms(broyden)= 0.57734E-04
  rms(prec ) = 0.72543E-04
  weight for this iteration     100.00

 eigenvalues of (default mixing * dielectric matrix)
  average eigenvalue GAMMA=   2.1625
  9.2752  5.2205  3.1763  2.3906  1.8670  1.8670  1.0985  1.0985  1.1765  1.1765
  1.0086  1.0086  0.8049  0.6473  0.6208

 Free energy of the ion-electron system (eV)
  ---------------------------------------------------
  alpha Z        PSCENC =         1.69910050
  Ewald energy   TEWEN  =      9723.29209526
  -Hartree energ DENC   =    -15146.76806029
  -exchange      EXHF   =         0.00000000
  -V(xc)+E(xc)   XCENC  =       451.46311350
  PAW double counting   =      7062.83185562    -7115.95110012
  entropy T*S    EENTRO =        -0.00000000
  eigenvalues    EBANDS =     -1320.85949413
  atomic energy  EATOM  =      6070.64150123
  Solvation  Ediel_sol  =       175.02242762
  ---------------------------------------------------
  free energy    TOTEN  =       -98.62856082 eV

  energy without entropy =      -98.62856082  energy(sigma->0) =      -98.62856082


--------------------------------------------------------------------------------------------------------




--------------------------------------- Iteration      1(  17)  ---------------------------------------


    POTLOK:  cpu time   69.6712: real time   69.8085
    SETDIJ:  cpu time    0.4097: real time    0.4107
    EDDIAG:  cpu time    5.2896: real time    5.2989
  RMM-DIIS:  cpu time   23.4415: real time   23.4812
    ORTHCH:  cpu time    0.0457: real time    0.0459
       DOS:  cpu time    0.0004: real time    0.0004
    CHARGE:  cpu time    5.2022: real time    5.2112
    MIXING:  cpu time    0.0935: real time    0.0937
    --------------------------------------------
      LOOP:  cpu time  104.1539: real time  104.3504

 eigenvalue-minimisations  :   146
 total energy-change (2. order) :-0.2789927E-04  (-0.3661160E-06)
 number of electron      78.0000016 magnetization       0.0000000
 augmentation part       10.5342204 magnetization       0.0000002

 Broyden mixing:
  rms(total) = 0.48663E-04    rms(broyden)= 0.48650E-04
  rms(prec ) = 0.55403E-04
  weight for this iteration     100.00

 eigenvalues of (default mixing * dielectric matrix)
  average eigenvalue GAMMA=   2.1960
  9.5868  5.7259  3.6624  2.4806  2.4806  1.6956  1.1074  1.1074  1.1577  1.1577
  1.0690  1.0057  0.9183  0.7307  0.6272  0.6235

 Free energy of the ion-electron system (eV)
  ---------------------------------------------------
  alpha Z        PSCENC =         1.69910050
  Ewald energy   TEWEN  =      9723.29209526
  -Hartree energ DENC   =    -15146.75417950
  -exchange      EXHF   =         0.00000000
  -V(xc)+E(xc)   XCENC  =       451.46271347
  PAW double counting   =      7062.83320537    -7115.95229610
  entropy T*S    EENTRO =        -0.00000000
  eigenvalues    EBANDS =     -1320.86375340
  atomic energy  EATOM  =      6070.64150123
  Solvation  Ediel_sol  =       175.01302445
  ---------------------------------------------------
  free energy    TOTEN  =       -98.62858872 eV

  energy without entropy =      -98.62858872  energy(sigma->0) =      -98.62858872


--------------------------------------------------------------------------------------------------------




--------------------------------------- Iteration      1(  18)  ---------------------------------------


    POTLOK:  cpu time   67.6602: real time   67.7940
    SETDIJ:  cpu time    0.4099: real time    0.4109
    EDDIAG:  cpu time    5.3041: real time    5.3132
  RMM-DIIS:  cpu time   23.4505: real time   23.4946
    ORTHCH:  cpu time    0.0456: real time    0.0457
       DOS:  cpu time    0.0003: real time    0.0003
    --------------------------------------------
      LOOP:  cpu time   96.8705: real time   97.0586

 eigenvalue-minimisations  :   146
 total energy-change (2. order) :-0.7283061E-05  (-0.2804846E-06)
 number of electron      78.0000016 magnetization       0.0000000
 augmentation part       10.5342204 magnetization       0.0000002

 Free energy of the ion-electron system (eV)
  ---------------------------------------------------
  alpha Z        PSCENC =         1.69910050
  Ewald energy   TEWEN  =      9723.29209526
  -Hartree energ DENC   =    -15146.75122737
  -exchange      EXHF   =         0.00000000
  -V(xc)+E(xc)   XCENC  =       451.46285817
  PAW double counting   =      7062.83388697    -7115.95302673
  entropy T*S    EENTRO =        -0.00000000
  eigenvalues    EBANDS =     -1320.86304959
  atomic energy  EATOM  =      6070.64150123
  Solvation  Ediel_sol  =       175.00926555
  ---------------------------------------------------
  free energy    TOTEN  =       -98.62859600 eV

  energy without entropy =      -98.62859600  energy(sigma->0) =      -98.62859600


--------------------------------------------------------------------------------------------------------




 average (electrostatic) potential at core
  the test charge radii are     0.6991  0.7167  0.7215
  (the norm of the test charge is              1.0000)
       1 -67.3754       2 -65.9582       3 -65.0573       4 -63.2707       5 -91.8306
       6 -91.8134       7 -91.6914       8 -91.5566       9 -91.5764      10 -90.9855
      11 -90.9998      12 -83.2208      13 -83.2831
 
 
 
 E-fermi :  -5.9361     XC(G=0):  -0.1262     alpha+bet : -0.0730


 spin component 1

 k-point     1 :       0.0000    0.0000    0.0000
  band No.  band energies     occupation 
      1     -35.5367      1.00000
      2     -34.3649      1.00000
      3     -33.6237      1.00000
      4     -33.2449      1.00000
      5     -33.0337      1.00000
      6     -32.8038      1.00000
      7     -32.1050      1.00000
      8     -27.6944      1.00000
      9     -25.5972      1.00000
     10     -21.2941      1.00000
     11     -19.2548      1.00000
     12     -17.5021      1.00000
     13     -16.0733      1.00000
     14     -15.9196      1.00000
     15     -15.9182      1.00000
     16     -15.0941      1.00000
     17     -14.9872      1.00000
     18     -14.6932      1.00000
     19     -14.1148      1.00000
     20     -12.4096      1.00000
     21     -12.3183      1.00000
     22     -12.2071      1.00000
     23     -12.0310      1.00000
     24     -11.8051      1.00000
     25     -11.6370      1.00000
     26     -11.3181      1.00000
     27     -11.1477      1.00000
     28     -10.9229      1.00000
     29     -10.8794      1.00000
     30     -10.7698      1.00000
     31     -10.6519      1.00000
     32     -10.5456      1.00000
     33     -10.2892      1.00000
     34     -10.2407      1.00000
     35     -10.0714      1.00000
     36      -9.1326      1.00000
     37      -6.7668      1.00000
     38      -6.2566      1.00000
     39      -6.1749      1.00000
     40      -0.7486      0.00000
     41      -0.0506      0.00000
     42       0.1646      0.00000
     43       0.2018      0.00000
     44       0.2165      0.00000
     45       0.2412      0.00000
     46       0.2628      0.00000
     47       0.3220      0.00000
     48       0.3937      0.00000
     49       0.4359      0.00000
     50       0.4519      0.00000
     51       0.4677      0.00000
     52       0.4984      0.00000
     53       0.5072      0.00000
     54       0.5188      0.00000
     55       0.5188      0.00000
     56       0.5327      0.00000

 spin component 2

 k-point     1 :       0.0000    0.0000    0.0000
  band No.  band energies     occupation 
      1     -35.5367      1.00000
      2     -34.3649      1.00000
      3     -33.6237      1.00000
      4     -33.2449      1.00000
      5     -33.0337      1.00000
      6     -32.8038      1.00000
      7     -32.1050      1.00000
      8     -27.6944      1.00000
      9     -25.5972      1.00000
     10     -21.2941      1.00000
     11     -19.2548      1.00000
     12     -17.5021      1.00000
     13     -16.0733      1.00000
     14     -15.9196      1.00000
     15     -15.9182      1.00000
     16     -15.0941      1.00000
     17     -14.9872      1.00000
     18     -14.6932      1.00000
     19     -14.1148      1.00000
     20     -12.4096      1.00000
     21     -12.3183      1.00000
     22     -12.2071      1.00000
     23     -12.0310      1.00000
     24     -11.8051      1.00000
     25     -11.6370      1.00000
     26     -11.3181      1.00000
     27     -11.1477      1.00000
     28     -10.9229      1.00000
     29     -10.8794      1.00000
     30     -10.7698      1.00000
     31     -10.6519      1.00000
     32     -10.5456      1.00000
     33     -10.2892      1.00000
     34     -10.2407      1.00000
     35     -10.0714      1.00000
     36      -9.1326      1.00000
     37      -6.7668      1.00000
     38      -6.2566      1.00000
     39      -6.1749      1.00000
     40      -0.7486      0.00000
     41      -0.0506      0.00000
     42       0.1629      0.00000
     43       0.1986      0.00000
     44       0.2141      0.00000
     45       0.2414      0.00000
     46       0.2620      0.00000
     47       0.3078      0.00000
     48       0.3896      0.00000
     49       0.4366      0.00000
     50       0.4534      0.00000
     51       0.4698      0.00000
     52       0.4980      0.00000
     53       0.5111      0.00000
     54       0.5139      0.00000
     55       0.5195      0.00000
     56       0.5327      0.00000


--------------------------------------------------------------------------------------------------------


 soft charge-density along one line, spin component           1
         0         1         2         3         4         5         6         7         8         9
 total charge-density along one line
 
 soft charge-density along one line, spin component           2
         0         1         2         3         4         5         6         7         8         9
 total charge-density along one line
 
 pseudopotential strength for first ion, spin component:           1
 10.764  14.323   0.016  -0.001  -0.007  -0.039   0.002   0.017
 14.323  19.058   0.020  -0.001  -0.009  -0.050   0.002   0.021
  0.016   0.020  -4.745   0.000   0.002   9.228   0.000  -0.000
 -0.001  -0.001   0.000  -4.743   0.000   0.000   9.232  -0.000
 -0.007  -0.009   0.002   0.000  -4.743  -0.000  -0.000   9.231
 -0.039  -0.050   9.228   0.000  -0.000 -20.246  -0.000  -0.001
  0.002   0.002   0.000   9.232  -0.000  -0.000 -20.256   0.001
  0.017   0.021  -0.000  -0.000   9.231  -0.001   0.001 -20.253
 pseudopotential strength for first ion, spin component:           2
 10.764  14.323   0.016  -0.001  -0.007  -0.039   0.002   0.017
 14.323  19.058   0.020  -0.001  -0.009  -0.050   0.002   0.021
  0.016   0.020  -4.745   0.000   0.002   9.228   0.000  -0.000
 -0.001  -0.001   0.000  -4.743   0.000   0.000   9.232  -0.000
 -0.007  -0.009   0.002   0.000  -4.743  -0.000  -0.000   9.231
 -0.039  -0.050   9.228   0.000  -0.000 -20.246  -0.000  -0.001
  0.002   0.002   0.000   9.232  -0.000  -0.000 -20.256   0.001
  0.017   0.021  -0.000  -0.000   9.231  -0.001   0.001 -20.253
 total augmentation occupancy for first ion, spin component:           1
  8.320  -4.078   0.309  -0.011  -0.153   0.080  -0.003  -0.037
 -4.078   2.224  -0.339   0.013   0.157  -0.055   0.002   0.025
  0.309  -0.339   1.554  -0.006  -0.087   0.131   0.001   0.007
 -0.011   0.013  -0.006   1.389  -0.004   0.001   0.156  -0.002
 -0.153   0.157  -0.087  -0.004   1.408   0.007  -0.002   0.150
  0.080  -0.055   0.131   0.001   0.007   0.015   0.000   0.002
 -0.003   0.002   0.001   0.156  -0.002   0.000   0.022  -0.000
 -0.037   0.025   0.007  -0.002   0.150   0.002  -0.000   0.020
 total augmentation occupancy for first ion, spin component:           2
  0.000  -0.000  -0.000   0.000   0.000  -0.000   0.000   0.000
 -0.000   0.000   0.000  -0.000  -0.000   0.000  -0.000  -0.000
 -0.000   0.000  -0.000   0.000   0.000   0.000   0.000  -0.000
  0.000  -0.000   0.000  -0.000   0.000   0.000   0.000   0.000
  0.000  -0.000   0.000   0.000   0.000  -0.000   0.000   0.000
 -0.000   0.000   0.000   0.000  -0.000   0.000   0.000   0.000
  0.000  -0.000   0.000   0.000   0.000   0.000   0.000   0.000
  0.000  -0.000  -0.000   0.000   0.000   0.000   0.000   0.000


------------------------ aborting loop because EDIFF is reached ----------------------------------------


 


 total charge     
 
# of ion       s       p       d       tot
------------------------------------------
    1        0.818   1.550   0.000   2.368
    2        0.835   1.599   0.000   2.434
    3        0.841   1.564   0.000   2.404
    4        0.875   1.718   0.000   2.594
    5        1.758   4.411   0.000   6.169
    6        1.758   4.413   0.000   6.171
    7        1.758   4.406   0.000   6.164
    8        1.757   4.404   0.000   6.161
    9        1.756   4.400   0.000   6.157
   10        1.755   4.401   0.000   6.156
   11        1.755   4.398   0.000   6.153
   12        1.586   3.596   0.000   5.182
   13        1.587   3.598   0.000   5.185
--------------------------------------------------
tot         18.838  44.459   0.000  63.298
 


 magnetization (x)
 
# of ion       s       p       d       tot
------------------------------------------
    1       -0.000  -0.000   0.000  -0.000
    2       -0.000  -0.000   0.000  -0.000
    3       -0.000  -0.000   0.000  -0.000
    4       -0.000  -0.000   0.000  -0.000
    5       -0.000  -0.000   0.000  -0.000
    6        0.000   0.000   0.000   0.000
    7        0.000   0.000   0.000   0.000
    8        0.000  -0.000   0.000   0.000
    9        0.000  -0.000   0.000  -0.000
   10       -0.000   0.000   0.000  -0.000
   11       -0.000  -0.000   0.000  -0.000
   12       -0.000  -0.000   0.000  -0.000
   13        0.000   0.000   0.000   0.000
--------------------------------------------------
tot         -0.000   0.000   0.000   0.000
 
    CHARGE:  cpu time    0.7291: real time    0.7304
    FORLOC:  cpu time    0.1101: real time    0.1103
    FORNL :  cpu time    2.0167: real time    2.0201
    STRESS:  cpu time   94.2992: real time   94.4508
    FORCOR:  cpu time   26.6399: real time   26.6961
    FORHAR:  cpu time    0.3592: real time    0.3602
    MIXING:  cpu time    0.0959: real time    0.0961
    OFIELD:  cpu time    0.0002: real time    0.0001

  FORCE on cell =-STRESS in cart. coord.  units (eV):
  Direction    XX          YY          ZZ          XY          YZ          ZX
  --------------------------------------------------------------------------------------
  Alpha Z     1.69910     1.69910     1.69910
  Ewald    2880.46489  4508.70621  2334.12186    57.91600   -12.61974  -253.56889
  Hartree  4601.03464  6406.49040  4139.21767    23.58022    31.68852   -99.07146
  E(xc)    -424.01217  -422.30341  -424.79931    -0.30227    -0.27946     0.02793
  Local   -8499.15897-12025.31392 -7483.75525   -70.76553   -24.40325   324.21246
  n-local  -329.37343  -332.29284  -325.79524     0.45398     1.67394     2.17296
  augment   140.54593   150.88427   137.94352    -0.90976     0.24859     2.06548
  Kinetic  1628.16957  1711.26261  1621.50231    -9.74482     3.93417    24.74664
  Fock        0.00000     0.00000     0.00000     0.00000     0.00000     0.00000
  -------------------------------------------------------------------------------------
  Total      -0.63044    -0.86757     0.13466     0.22783     0.24277     0.58512
  in kB      -0.07329    -0.10086     0.01566     0.02649     0.02822     0.06803
  external pressure =       -0.05 kB  Pullay stress =        0.00 kB


 VOLUME and BASIS-vectors are now :
 -----------------------------------------------------------------------------
  energy-cutoff  :      550.00
  volume of cell :    13781.06
      direct lattice vectors                 reciprocal lattice vectors
    23.355149740  0.000000000  0.000000000     0.042817109  0.000000000  0.000000000
     0.000000000 25.405962070  0.000000000     0.000000000  0.039360840  0.000000000
     0.000000000  0.000000000 23.225467650     0.000000000  0.000000000  0.043056184

  length of vectors
    23.355149740 25.405962070 23.225467650     0.042817109  0.039360840  0.043056184


 FORCES acting on ions
    electron-ion (+dipol)            ewald-force                    non-local-force                 convergence-correction
 -----------------------------------------------------------------------------------------------
   0.286E+01 -.126E+03 -.119E+02   0.110E+01 0.116E+03 0.122E+02   -.394E+01 0.947E+01 -.402E+00   -.954E-04 -.274E-03 -.598E-04
   -.403E+02 0.126E+00 -.158E+02   0.303E+02 -.267E+01 0.119E+02   0.101E+02 0.836E+00 0.377E+01   -.292E-03 -.111E-03 -.152E-03
   0.261E+02 0.144E+03 0.109E+02   -.169E+02 -.154E+03 -.386E+01   -.875E+01 0.781E+01 -.669E+01   0.926E-04 -.495E-05 0.676E-04
   -.765E+00 0.188E+03 -.159E+02   0.793E+00 -.189E+03 0.159E+02   0.317E+00 -.448E+00 0.233E+00   -.143E-03 0.590E-03 -.186E-03
[...]

 eigenvalue-minimisations  :   166
 total energy-change (2. order) : 0.1286494E-05  (-0.3558044E-05)
 number of electron      78.0000022 magnetization       0.0000000
 augmentation part       10.5412029 magnetization       0.0000001

 Free energy of the ion-electron system (eV)
  ---------------------------------------------------
  alpha Z        PSCENC =         1.69910050
  Ewald energy   TEWEN  =      9742.20097362
  -Hartree energ DENC   =    -15164.23275651
  -exchange      EXHF   =         0.00000000
  -V(xc)+E(xc)   XCENC  =       451.60256127
  PAW double counting   =      7080.21168465    -7133.35000124
  entropy T*S    EENTRO =        -0.00000000
  eigenvalues    EBANDS =     -1321.92375536
  atomic energy  EATOM  =      6070.64150123
  Solvation  Ediel_sol  =       174.49981005
  ---------------------------------------------------
  free energy    TOTEN  =       -98.65088180 eV

  energy without entropy =      -98.65088180  energy(sigma->0) =      -98.65088180


--------------------------------------------------------------------------------------------------------




 average (electrostatic) potential at core
  the test charge radii are     0.6991  0.7167  0.7215
  (the norm of the test charge is              1.0000)
       1 -67.4088       2 -65.9347       3 -65.0893       4 -63.2003       5 -91.8642
       6 -91.8478       7 -91.8060       8 -91.5420       9 -91.5800      10 -91.0225
      11 -91.0268      12 -83.1333      13 -83.1897
 
 
 
 E-fermi :  -5.8601     XC(G=0):  -0.1167     alpha+bet : -0.0730


 spin component 1

 k-point     1 :       0.0000    0.0000    0.0000
  band No.  band energies     occupation 
      1     -35.6214      1.00000
      2     -34.3758      1.00000
      3     -33.6929      1.00000
      4     -33.2941      1.00000
      5     -33.1786      1.00000
      6     -32.8114      1.00000
      7     -32.1697      1.00000
      8     -27.6153      1.00000
      9     -25.4353      1.00000
     10     -21.2907      1.00000
     11     -19.2920      1.00000
     12     -17.5472      1.00000
     13     -16.1230      1.00000
     14     -15.9784      1.00000
     15     -15.9659      1.00000
     16     -15.1468      1.00000
     17     -15.0366      1.00000
     18     -14.7383      1.00000
     19     -14.1646      1.00000
     20     -12.4494      1.00000
     21     -12.3549      1.00000
     22     -12.2277      1.00000
     23     -12.0018      1.00000
     24     -11.8217      1.00000
     25     -11.6601      1.00000
     26     -11.3468      1.00000
     27     -11.2291      1.00000
     28     -10.9472      1.00000
     29     -10.8733      1.00000
     30     -10.7750      1.00000
     31     -10.7027      1.00000
     32     -10.4846      1.00000
     33     -10.2988      1.00000
     34     -10.2208      1.00000
     35     -10.0118      1.00000
     36      -9.0976      1.00000
     37      -6.6758      1.00000
     38      -6.2107      1.00000
     39      -6.0942      1.00000
     40      -0.7335      0.00000
     41      -0.0476      0.00000
     42      -0.0013      0.00000
     43       0.1561      0.00000
     44       0.1968      0.00000
     45       0.2446      0.00000
     46       0.2539      0.00000
     47       0.2832      0.00000
     48       0.2935      0.00000
     49       0.4284      0.00000
     50       0.4423      0.00000
     51       0.4588      0.00000
     52       0.4918      0.00000
     53       0.4959      0.00000
     54       0.5139      0.00000
     55       0.5183      0.00000
     56       0.5227      0.00000

 spin component 2

 k-point     1 :       0.0000    0.0000    0.0000
  band No.  band energies     occupation 
      1     -35.6214      1.00000
      2     -34.3758      1.00000
      3     -33.6929      1.00000
      4     -33.2941      1.00000
      5     -33.1786      1.00000
      6     -32.8114      1.00000
      7     -32.1697      1.00000
      8     -27.6153      1.00000
      9     -25.4353      1.00000
     10     -21.2907      1.00000
     11     -19.2920      1.00000
     12     -17.5472      1.00000
     13     -16.1230      1.00000
     14     -15.9784      1.00000
     15     -15.9659      1.00000
     16     -15.1468      1.00000
     17     -15.0366      1.00000
     18     -14.7383      1.00000
     19     -14.1646      1.00000
     20     -12.4494      1.00000
     21     -12.3549      1.00000
     22     -12.2277      1.00000
     23     -12.0018      1.00000
     24     -11.8217      1.00000
     25     -11.6601      1.00000
     26     -11.3468      1.00000
     27     -11.2291      1.00000
     28     -10.9472      1.00000
     29     -10.8733      1.00000
     30     -10.7750      1.00000
     31     -10.7027      1.00000
     32     -10.4846      1.00000
     33     -10.2988      1.00000
     34     -10.2208      1.00000
     35     -10.0118      1.00000
     36      -9.0976      1.00000
     37      -6.6758      1.00000
     38      -6.2107      1.00000
     39      -6.0942      1.00000
     40      -0.7335      0.00000
     41      -0.0476      0.00000
     42      -0.0014      0.00000
     43       0.1560      0.00000
     44       0.1968      0.00000
     45       0.2446      0.00000
     46       0.2539      0.00000
     47       0.2832      0.00000
     48       0.2935      0.00000
     49       0.4284      0.00000
     50       0.4423      0.00000
     51       0.4588      0.00000
     52       0.4918      0.00000
     53       0.4959      0.00000
     54       0.5139      0.00000
     55       0.5184      0.00000
     56       0.5226      0.00000


--------------------------------------------------------------------------------------------------------


 soft charge-density along one line, spin component           1
         0         1         2         3         4         5         6         7         8         9
 total charge-density along one line
 
 soft charge-density along one line, spin component           2
         0         1         2         3         4         5         6         7         8         9
 total charge-density along one line
 
 pseudopotential strength for first ion, spin component:           1
 10.767  14.327   0.016  -0.001  -0.007  -0.040   0.002   0.017
 14.327  19.064   0.020  -0.001  -0.009  -0.050   0.002   0.021
  0.016   0.020  -4.746   0.000   0.001   9.230   0.000   0.001
 -0.001  -0.001   0.000  -4.744   0.000   0.000   9.235  -0.000
 -0.007  -0.009   0.001   0.000  -4.745   0.001  -0.000   9.234
 -0.040  -0.050   9.230   0.000   0.001 -20.249  -0.000  -0.003
  0.002   0.002   0.000   9.235  -0.000  -0.000 -20.261   0.001
  0.017   0.021   0.001  -0.000   9.234  -0.003   0.001 -20.259
 pseudopotential strength for first ion, spin component:           2
 10.767  14.327   0.016  -0.001  -0.007  -0.040   0.002   0.017
 14.327  19.064   0.020  -0.001  -0.009  -0.050   0.002   0.021
  0.016   0.020  -4.746   0.000   0.001   9.230   0.000   0.001
 -0.001  -0.001   0.000  -4.744   0.000   0.000   9.235  -0.000
 -0.007  -0.009   0.001   0.000  -4.745   0.001  -0.000   9.234
 -0.040  -0.050   9.230   0.000   0.001 -20.249  -0.000  -0.003
  0.002   0.002   0.000   9.235  -0.000  -0.000 -20.261   0.001
  0.017   0.021   0.001  -0.000   9.234  -0.003   0.001 -20.259
 total augmentation occupancy for first ion, spin component:           1
  8.457  -4.163   0.309  -0.006  -0.132   0.080  -0.002  -0.033
 -4.163   2.272  -0.335   0.010   0.142  -0.055   0.001   0.023
  0.309  -0.335   1.559  -0.004  -0.074   0.132   0.001   0.010
 -0.006   0.010  -0.004   1.400  -0.002   0.001   0.158  -0.001
 -0.132   0.142  -0.074  -0.002   1.427   0.009  -0.001   0.153
  0.080  -0.055   0.132   0.001   0.009   0.015   0.000   0.003
 -0.002   0.001   0.001   0.158  -0.001   0.000   0.022  -0.000
 -0.033   0.023   0.010  -0.001   0.153   0.003  -0.000   0.021
 total augmentation occupancy for first ion, spin component:           2
 -0.000   0.000  -0.000   0.000  -0.000  -0.000   0.000  -0.000
  0.000  -0.000   0.000  -0.000   0.000   0.000  -0.000   0.000
 -0.000   0.000  -0.000  -0.000  -0.000  -0.000  -0.000   0.000
  0.000  -0.000  -0.000  -0.000  -0.000  -0.000  -0.000  -0.000
 -0.000   0.000  -0.000  -0.000   0.000  -0.000   0.000   0.000
 -0.000   0.000  -0.000  -0.000  -0.000  -0.000  -0.000  -0.000
  0.000  -0.000  -0.000  -0.000   0.000  -0.000  -0.000   0.000
 -0.000   0.000   0.000  -0.000   0.000  -0.000   0.000   0.000


------------------------ aborting loop because EDIFF is reached ----------------------------------------


 


 total charge     
 
# of ion       s       p       d       tot
------------------------------------------
    1        0.817   1.560   0.000   2.378
    2        0.835   1.601   0.000   2.436
    3        0.840   1.576   0.000   2.416
    4        0.875   1.720   0.000   2.595
    5        1.758   4.413   0.000   6.171
    6        1.758   4.415   0.000   6.173
    7        1.758   4.412   0.000   6.170
    8        1.757   4.404   0.000   6.161
    9        1.756   4.401   0.000   6.158
   10        1.755   4.405   0.000   6.160
   11        1.755   4.401   0.000   6.156
   12        1.585   3.596   0.000   5.181
   13        1.586   3.596   0.000   5.182
--------------------------------------------------
tot         18.837  44.499   0.000  63.336
 


 magnetization (x)
 
# of ion       s       p       d       tot
------------------------------------------
    1       -0.000  -0.000   0.000  -0.000
    2        0.000   0.000   0.000   0.000
    3       -0.000   0.000   0.000   0.000
    4       -0.000  -0.000   0.000  -0.000
    5        0.000   0.000   0.000   0.000
    6        0.000   0.000   0.000   0.000
    7       -0.000  -0.000   0.000  -0.000
    8        0.000   0.000   0.000   0.000
    9        0.000   0.000   0.000   0.000
   10       -0.000   0.000   0.000   0.000
   11        0.000   0.000   0.000   0.000
   12       -0.000   0.000   0.000   0.000
   13       -0.000  -0.000   0.000  -0.000
--------------------------------------------------
tot          0.000   0.000   0.000   0.000
 
    CHARGE:  cpu time    0.7201: real time    0.7213
    FORLOC:  cpu time    0.1033: real time    0.1035
    FORNL :  cpu time    2.0038: real time    2.0073
    STRESS:  cpu time   93.1490: real time   93.3027
    FORCOR:  cpu time   26.5872: real time   26.6431
    FORHAR:  cpu time    0.3551: real time    0.3560
    MIXING:  cpu time    0.0484: real time    0.0485
    OFIELD:  cpu time    0.0001: real time    0.0001

  FORCE on cell =-STRESS in cart. coord.  units (eV):
  Direction    XX          YY          ZZ          XY          YZ          ZX
  --------------------------------------------------------------------------------------
  Alpha Z     1.69910     1.69910     1.69910
  Ewald    2883.96718  4517.62684  2340.60788    58.32590   -11.33920  -253.39065
  Hartree  4605.00013  6414.67325  4144.63821    23.99359    31.76138  -100.65705
  E(xc)    -424.13090  -422.42329  -424.92837    -0.29472    -0.27718     0.01282
  Local   -8506.57355-12042.43474 -7495.26776   -71.59685   -25.53195   326.10404
  n-local  -329.68235  -332.57655  -326.04891     0.43374     1.64452     2.19390
  augment   140.51253   150.99141   137.91143    -0.94723     0.22234     2.05265
  Kinetic  1629.00309  1711.99964  1621.93194    -9.62533     3.77605    24.27240
  Fock        0.00000     0.00000     0.00000     0.00000     0.00000     0.00000
  -------------------------------------------------------------------------------------
  Total      -0.20478    -0.44433     0.54352     0.28911     0.25597     0.58810
  in kB      -0.02381    -0.05166     0.06319     0.03361     0.02976     0.06837
  external pressure =       -0.00 kB  Pullay stress =        0.00 kB


 VOLUME and BASIS-vectors are now :
 -----------------------------------------------------------------------------
  energy-cutoff  :      550.00
  volume of cell :    13781.06
      direct lattice vectors                 reciprocal lattice vectors
    23.355149740  0.000000000  0.000000000     0.042817109  0.000000000  0.000000000
     0.000000000 25.405962070  0.000000000     0.000000000  0.039360840  0.000000000
     0.000000000  0.000000000 23.225467650     0.000000000  0.000000000  0.043056184

  length of vectors
    23.355149740 25.405962070 23.225467650     0.042817109  0.039360840  0.043056184


 FORCES acting on ions
    electron-ion (+dipol)            ewald-force                    non-local-force                 convergence-correction
 -----------------------------------------------------------------------------------------------
   0.393E+01 -.131E+03 -.119E+02   -.379E-01 0.121E+03 0.123E+02   -.378E+01 0.906E+01 -.385E+00   -.558E-03 -.319E-02 -.837E-03
   -.403E+02 -.679E+01 -.165E+02   0.302E+02 0.451E+01 0.126E+02   0.101E+02 0.152E+00 0.367E+01   0.581E-02 0.336E-02 0.209E-03
   0.256E+02 0.137E+03 0.115E+02   -.162E+02 -.146E+03 -.449E+01   -.885E+01 0.696E+01 -.660E+01   0.203E-02 0.583E-02 -.221E-02
   -.547E+00 0.186E+03 -.160E+02   0.677E+00 -.187E+03 0.162E+02   0.465E+00 -.866E+00 0.352E+00   0.283E-02 -.120E-01 -.464E-02
   0.265E+03 -.381E+03 0.527E+03   -.288E+03 0.390E+03 -.579E+03   0.236E+02 -.114E+02 0.519E+02   -.124E-01 0.755E-02 -.653E-02
   0.441E+03 -.328E+03 -.445E+03   -.483E+03 0.333E+03 0.486E+03   0.413E+02 -.761E+01 -.409E+02   -.268E-01 0.349E-03 -.199E-01
   -.388E+03 -.599E+03 -.109E+03   0.430E+03 0.636E+03 0.118E+03   -.412E+02 -.394E+02 -.932E+01   0.220E-01 -.268E-01 0.103E-01
   -.623E+03 -.366E+02 0.316E+03   0.670E+03 0.321E+02 -.348E+03   -.465E+02 0.152E+00 0.318E+02   0.274E-01 0.534E-04 0.747E-02
   -.290E+03 0.761E+02 -.626E+03   0.306E+03 -.897E+02 0.677E+03   -.163E+02 0.982E+01 -.518E+02   0.165E-01 0.136E-01 -.740E-02
   0.641E+03 0.819E+02 -.148E+03   -.689E+03 -.770E+02 0.168E+03   0.484E+02 -.851E+01 -.188E+02   -.863E-02 0.334E-01 0.216E-01
   0.142E+03 0.154E+03 0.655E+03   -.144E+03 -.156E+03 -.706E+03   0.392E+01 -.105E+01 0.521E+02   0.792E-02 0.827E-02 -.133E-01
   -.403E+03 0.372E+03 0.112E+03   0.451E+03 -.385E+03 -.129E+03   -.461E+02 0.108E+02 0.168E+02   0.213E-01 -.173E-01 -.125E-01
   0.234E+03 0.447E+03 -.248E+03   -.267E+03 -.476E+03 0.276E+03   0.326E+02 0.273E+02 -.273E+02   -.117E-02 -.472E-01 -.391E-01
 -----------------------------------------------------------------------------------------------
   0.220E+01 0.460E+01 -.144E+01   0.000E+00 -.171E-12 0.000E+00   -.225E+01 -.458E+01 0.149E+01   0.562E-01 -.341E-01 -.669E-01
 
 
 POSITION                                       TOTAL-FORCE (eV/Angst)
 -----------------------------------------------------------------------------------
     11.60051     14.49478     11.78302        -0.000771     -0.004063      0.001472
     12.20611     13.07324     11.82311        -0.001888      0.005381      0.000146
     11.27816     11.92845     11.37527        -0.003661      0.004042     -0.013604
     11.76968     10.50991     11.80369         0.002073      0.006637      0.010636
     11.05726     14.74076     10.58031        -0.004126     -0.005290     -0.003749
     10.66031     14.65981     12.72172         0.000670     -0.003054      0.014002
     12.56964     15.40006     12.00233         0.001214      0.004651     -0.003518
     13.31565     13.10448     11.04584         0.000032     -0.001885      0.000385
     12.58766     12.84367     13.11089         0.004047     -0.005554      0.002068
     10.03004     12.21562     11.86269        -0.001510      0.000132     -0.005475
     11.17957     11.98736     10.00609        -0.000976      0.004497     -0.018831
     12.91457     10.24604     11.38640         0.000238     -0.002109     -0.002540
     10.96823      9.83945     12.47564         0.004657     -0.003384      0.019008
 -----------------------------------------------------------------------------------
    total drift:                                0.003475     -0.014225     -0.016779


--------------------------------------------------------------------------------------------------------



  FREE ENERGIE OF THE ION-ELECTRON SYSTEM (eV)
  ---------------------------------------------------
  free  energy   TOTEN  =       -98.65088180 eV

  energy  without entropy=      -98.65088180  energy(sigma->0) =      -98.65088180
 
 d Force = 0.9075337E-04[ 0.171E-04, 0.164E-03]  d Energy = 0.8164030E-04 0.911E-05
 d Force =-0.1008659E+01[-0.101E+01,-0.101E+01]  d Ewald  =-0.1008659E+01 0.112E-07


--------------------------------------------------------------------------------------------------------


    POTLOK:  cpu time   76.5084: real time   76.6528


--------------------------------------------------------------------------------------------------------


 Conjugate gradient step on ions:
 trial-energy change:   -0.000082  1 .order   -0.000091   -0.000164   -0.000017
  (g-gl).g = 0.450E-03      g.g   = 0.466E-03  gl.gl    = 0.453E-03
 g(Force)  = 0.466E-03   g(Stress)= 0.000E+00 ortho     = 0.201E-04
 gamma     =   0.99343
 trial     =   0.33813
 opt step  =   0.37747  (harmonic =   0.37747) maximal distance =0.00147383
 next E    =   -98.650892   (d E  =  -0.00009)


--------------------------------------------------------------------------------------------------------


  
 reached required accuracy - stopping structural energy minimisation
 writing wavefunctions
     LOOP+:  cpu time  532.6022: real time  534.6622
    4ORBIT:  cpu time    0.0000: real time    0.0000
 


 total charge     
 
# of ion       s       p       d       tot
------------------------------------------
    1        0.817   1.560   0.000   2.378
    2        0.835   1.601   0.000   2.436
    3        0.840   1.576   0.000   2.416
    4        0.875   1.720   0.000   2.595
    5        1.758   4.413   0.000   6.171
    6        1.758   4.415   0.000   6.173
    7        1.758   4.412   0.000   6.170
    8        1.757   4.404   0.000   6.161
    9        1.756   4.401   0.000   6.158
   10        1.755   4.405   0.000   6.160
   11        1.755   4.401   0.000   6.156
   12        1.585   3.596   0.000   5.181
   13        1.586   3.596   0.000   5.182
--------------------------------------------------
tot         18.837  44.499   0.000  63.336
 


 magnetization (x)
 
# of ion       s       p       d       tot
------------------------------------------
    1       -0.000  -0.000   0.000  -0.000
    2        0.000   0.000   0.000   0.000
    3       -0.000   0.000   0.000   0.000
    4       -0.000  -0.000   0.000  -0.000
    5        0.000   0.000   0.000   0.000
    6        0.000   0.000   0.000   0.000
    7       -0.000  -0.000   0.000  -0.000
    8        0.000   0.000   0.000   0.000
    9        0.000   0.000   0.000   0.000
   10       -0.000   0.000   0.000   0.000
   11        0.000   0.000   0.000   0.000
   12       -0.000   0.000   0.000   0.000
   13       -0.000  -0.000   0.000  -0.000
--------------------------------------------------
tot          0.000   0.000   0.000   0.000
 

 total amount of memory used by VASP MPI-rank0   293423. kBytes
=======================================================================

   base      :      30000. kBytes
   nonlr-proj:        957. kBytes
   fftplans  :      53115. kBytes
   grid      :     194262. kBytes
   one-center:         12. kBytes
   wavefun   :      15077. kBytes
 
  
  
 General timing and accounting informations for this job:
 ========================================================
  
                  Total CPU time used (sec):    18649.926
                            User time (sec):    17679.188
                          System time (sec):      970.737
                         Elapsed time (sec):    18704.432
  
                   Maximum memory used (kb):     1286972.
                   Average memory used (kb):           0.
  
                          Minor page faults:      7764967
                          Major page faults:          148
                 Voluntary context switches:       195852
