Job started on bc10u7n1 at Thu Mar  3 16:17:32 CST 2022
 argument  1 = mol.nw
 


============================== echo of input deck ==============================
echo
start mol
title "mol"

geometry nocenter noautosym noautoz
  load mol.xyz
end

constraints
  fix atom 33:48
end

charge 0
basis noprint
  * library aug-cc-pVDZ
end



#ET products:

scf
   doublet; uhf; maxiter 200; vectors input fragment hBN_q0.movecs PFCA_q0.movecs output product.movecs
end

task scf


#ET reactants:
scf
    doublet; uhf; maxiter 200; vectors input fragment hBN_q1.movecs PFCA_q_1.movecs output  reactant.movecs
end
task scf

et
   vectors reactants reactant.movecs
   vectors products product.movecs
end


task scf et


================================================================================


                                         
                                         
 
 
              Northwest Computational Chemistry Package (NWChem) 6.8
              ------------------------------------------------------
 
 
                    Environmental Molecular Sciences Laboratory
                       Pacific Northwest National Laboratory
                                Richland, WA 99352
 
                              Copyright (c) 1994-2017
                       Pacific Northwest National Laboratory
                            Battelle Memorial Institute
 
             NWChem is an open-source computational chemistry package
                        distributed under the terms of the
                      Educational Community License (ECL) 2.0
             A copy of the license is included with this distribution
                              in the LICENSE.TXT file
 
                                  ACKNOWLEDGMENT
                                  --------------

            This software and its documentation were developed at the
            EMSL at Pacific Northwest National Laboratory, a multiprogram
            national laboratory, operated for the U.S. Department of Energy
            by Battelle under Contract Number DE-AC05-76RL01830. Support
            for this work was provided by the Department of Energy Office
            of Biological and Environmental Research, Office of Basic
            Energy Sciences, and the Office of Advanced Scientific Computing.


           Job information
           ---------------

    hostname        = bc10u7n1
    program         = /opt/apps/software/MPI/intel/2019.3.199-GCC-8.3.0/impi/2019.4.243/NWChem/6.8.revision47/bin/nwchem
    date            = Thu Mar  3 16:17:35 2022

    compiled        = Sat Jan 11 14:38:06 CST 2020
    source          = /tmp/eb-_UtWhd/tmp6zSplu-NWChem-6.8.revision47
    nwchem branch   = 6.8
    nwchem revision = v6.8-47-gdf6c956
    ga revision     = ga-5.6.3
    use scalapack   = T
    input           = mol.nw
    prefix          = mol.
    data base       = ./mol.db
    status          = startup
    nproc           =      368
    time left       =     -1s



           Memory information
           ------------------

    heap     =  130136320 doubles =    992.9 Mbytes
    stack    =  130136317 doubles =    992.9 Mbytes
    global   =  260272640 doubles =   1985.7 Mbytes (distinct from heap & stack)
    total    =  520545277 doubles =   3971.4 Mbytes
    verify   = yes
    hardfail = no 


           Directory information
           ---------------------
 
  0 permanent = .
  0 scratch   = .
 
 
 
 
                                NWChem Input Module
                                -------------------
 
 
                                        mol
                                        ---

 Scaling coordinates for geometry "geometry" by  1.889725989
 (inverse scale =  0.529177249)

 
 
                             Geometry "geometry" -> ""
                             -------------------------
 
 Output coordinates in angstroms (scale by  1.889725989 to convert to a.u.)
 
  No.       Tag          Charge          X              Y              Z
 ---- ---------------- ---------- -------------- -------------- --------------
    1 B                    5.0000     1.22482800     0.70544180     1.66529600
    2 B                    5.0000     2.49140800     2.87636500     1.66529700
    3 B                    5.0000     3.74530200     5.04643100     1.66529400
    4 B                    5.0000     5.00798100     7.21225100     1.66530400
    5 B                    5.0000     2.48158600    -1.47534500     1.66529900
    6 B                    5.0000     3.74880100     0.70058720     1.66530300
    7 B                    5.0000     5.00798100     2.87350100     1.66530100
    8 B                    5.0000     6.27065500     5.04643300     1.66529700
    9 B                    5.0000     3.74173300    -3.65700700     1.66530600
   10 B                    5.0000     5.00798000    -1.47635600     1.66530800
   11 B                    5.0000     6.26716100     0.70058550     1.66530100
   12 B                    5.0000     7.52455400     2.87636700     1.66530800
   13 B                    5.0000     5.00797900    -5.84681900     1.66529400
   14 B                    5.0000     6.27422600    -3.65700700     1.66530200
   15 B                    5.0000     7.53437700    -1.47534800     1.66530400
   16 B                    5.0000     8.79113400     0.70544180     1.66529200
   17 N                    7.0000     1.24878700    -0.71397690     1.66529800
   18 N                    7.0000     2.48509200     1.43891600     1.66530100
   19 N                    7.0000     3.74546500     3.60800600     1.66530100
   20 N                    7.0000     5.00797800     5.78068600     1.66529600
   21 N                    7.0000     2.50945800    -2.90507700     1.66529700
   22 N                    7.0000     3.74755800    -0.74286160     1.66530100
   23 N                    7.0000     5.00798100     1.43124900     1.66530900
   24 N                    7.0000     6.27049600     3.60800700     1.66530100
   25 N                    7.0000     3.77188800    -5.08906400     1.66530400
   26 N                    7.0000     5.00798000    -2.92141000     1.66529900
   27 N                    7.0000     6.26840400    -0.74286420     1.66530100
   28 N                    7.0000     7.53087000     1.43891700     1.66530100
   29 N                    7.0000     5.00798000    -7.26663600     1.66530200
   30 N                    7.0000     6.24407100    -5.08906400     1.66529700
   31 N                    7.0000     7.50650200    -2.90508000     1.66529600
   32 N                    7.0000     8.76717400    -0.71397700     1.66530100
   33 H                    1.0000     0.36401050    -1.21981500     1.66529400
   34 H                    1.0000     1.62497200    -3.41050400     1.66530000
   35 H                    1.0000     2.88694700    -5.59241300     1.66530400
   36 H                    1.0000     5.86055500    -7.80962500     1.66530100
   37 H                    1.0000     4.15540900    -7.80963200     1.66530100
   38 H                    1.0000     7.12901500    -5.59240900     1.66530000
   39 H                    1.0000     8.39098700    -3.41050900     1.66529800
   40 H                    1.0000     9.65195200    -1.21981300     1.66530000
   41 H                    1.0000     0.18561930     1.30829800     1.66529900
   42 H                    1.0000     1.45597000     3.48444800     1.66529900
   43 H                    1.0000     2.70954600     5.65234000     1.66530100
   44 H                    1.0000     6.05516200     7.80821400     1.66530100
   45 H                    1.0000     3.96081300     7.80824000     1.66530300
   46 H                    1.0000     7.30641400     5.65233600     1.66530000
   47 H                    1.0000     8.55999100     3.48445100     1.66530300
   48 H                    1.0000     9.83034400     1.30829900     1.66530100
   49 C                    6.0000     4.91133900     0.80862370     7.74300400
   50 C                    6.0000     5.03363700     0.52945470     6.23668400
   51 C                    6.0000     4.41959200    -0.82298390     5.80114400
   52 F                    9.0000     3.62222200     0.88589670     8.10870400
   53 F                    9.0000     5.50919100     1.96816000     8.06573400
   54 F                    9.0000     5.49807900    -0.17672230     8.44423400
   55 F                    9.0000     4.42403900     1.56323900     5.58592400
   56 F                    9.0000     6.36145300     0.57895770     5.93291400
   57 O                    8.0000     3.18750000    -0.83332820     5.60715400
   58 O                    8.0000     5.19917100    -1.79046500     5.70107400
 
      Atomic Mass 
      ----------- 
 
      B                 11.009310
      N                 14.003070
      H                  1.007825
      C                 12.000000
      F                 18.998400
      O                 15.994910
 

 Effective nuclear repulsion energy (a.u.)    4731.3219514189

            Nuclear Dipole moment (a.u.) 
            ----------------------------
        X                 Y               Z
 ---------------- ---------------- ----------------
  2690.3566989911    -1.5006108095  1664.4156143616
 
 
            XYZ format geometry
            -------------------
    58
 geometry
 B                     1.22482800     0.70544180     1.66529600
 B                     2.49140800     2.87636500     1.66529700
 B                     3.74530200     5.04643100     1.66529400
 B                     5.00798100     7.21225100     1.66530400
 B                     2.48158600    -1.47534500     1.66529900
 B                     3.74880100     0.70058720     1.66530300
 B                     5.00798100     2.87350100     1.66530100
 B                     6.27065500     5.04643300     1.66529700
 B                     3.74173300    -3.65700700     1.66530600
 B                     5.00798000    -1.47635600     1.66530800
 B                     6.26716100     0.70058550     1.66530100
 B                     7.52455400     2.87636700     1.66530800
 B                     5.00797900    -5.84681900     1.66529400
 B                     6.27422600    -3.65700700     1.66530200
 B                     7.53437700    -1.47534800     1.66530400
 B                     8.79113400     0.70544180     1.66529200
 N                     1.24878700    -0.71397690     1.66529800
 N                     2.48509200     1.43891600     1.66530100
 N                     3.74546500     3.60800600     1.66530100
 N                     5.00797800     5.78068600     1.66529600
 N                     2.50945800    -2.90507700     1.66529700
 N                     3.74755800    -0.74286160     1.66530100
 N                     5.00798100     1.43124900     1.66530900
 N                     6.27049600     3.60800700     1.66530100
 N                     3.77188800    -5.08906400     1.66530400
 N                     5.00798000    -2.92141000     1.66529900
 N                     6.26840400    -0.74286420     1.66530100
 N                     7.53087000     1.43891700     1.66530100
 N                     5.00798000    -7.26663600     1.66530200
 N                     6.24407100    -5.08906400     1.66529700
 N                     7.50650200    -2.90508000     1.66529600
 N                     8.76717400    -0.71397700     1.66530100
 H                     0.36401050    -1.21981500     1.66529400
 H                     1.62497200    -3.41050400     1.66530000
 H                     2.88694700    -5.59241300     1.66530400
 H                     5.86055500    -7.80962500     1.66530100
 H                     4.15540900    -7.80963200     1.66530100
 H                     7.12901500    -5.59240900     1.66530000
 H                     8.39098700    -3.41050900     1.66529800
 H                     9.65195200    -1.21981300     1.66530000
 H                     0.18561930     1.30829800     1.66529900
 H                     1.45597000     3.48444800     1.66529900
 H                     2.70954600     5.65234000     1.66530100
 H                     6.05516200     7.80821400     1.66530100
 H                     3.96081300     7.80824000     1.66530300
 H                     7.30641400     5.65233600     1.66530000
 H                     8.55999100     3.48445100     1.66530300
 H                     9.83034400     1.30829900     1.66530100
 C                     4.91133900     0.80862370     7.74300400
 C                     5.03363700     0.52945470     6.23668400
 C                     4.41959200    -0.82298390     5.80114400
 F                     3.62222200     0.88589670     8.10870400
 F                     5.50919100     1.96816000     8.06573400
 F                     5.49807900    -0.17672230     8.44423400
 F                     4.42403900     1.56323900     5.58592400
 F                     6.36145300     0.57895770     5.93291400
 O                     3.18750000    -0.83332820     5.60715400
 O                     5.19917100    -1.79046500     5.70107400
 
 ==============================================================================
                                internuclear distances
 ------------------------------------------------------------------------------
       center one      |      center two      | atomic units |  angstroms
 ------------------------------------------------------------------------------
   17 N                |   1 B                |     2.68269  |     1.41962
   17 N                |   5 B                |     2.73813  |     1.44896
   18 N                |   1 B                |     2.75554  |     1.45817
   18 N                |   2 B                |     2.71641  |     1.43746
   18 N                |   6 B                |     2.76578  |     1.46359
   19 N                |   2 B                |     2.74366  |     1.45188
   19 N                |   3 B                |     2.71823  |     1.43843
   19 N                |   7 B                |     2.76019  |     1.46063
   20 N                |   3 B                |     2.76022  |     1.46064
   20 N                |   4 B                |     2.70527  |     1.43157
   20 N                |   8 B                |     2.76022  |     1.46064
   21 N                |   5 B                |     2.70232  |     1.43000
   21 N                |   9 B                |     2.72796  |     1.44357
   22 N                |   5 B                |     2.76393  |     1.46261
   22 N                |   6 B                |     2.72772  |     1.44345
   22 N                |  10 B                |     2.75581  |     1.45831
   23 N                |   6 B                |     2.75109  |     1.45582
   23 N                |   7 B                |     2.72546  |     1.44225
   23 N                |  11 B                |     2.75110  |     1.45582
   24 N                |   7 B                |     2.76019  |     1.46063
   24 N                |   8 B                |     2.71823  |     1.43843
   24 N                |  12 B                |     2.74366  |     1.45188
   25 N                |   9 B                |     2.70680  |     1.43237
   25 N                |  13 B                |     2.73985  |     1.44987
   26 N                |   9 B                |     2.76733  |     1.46441
   26 N                |  10 B                |     2.73076  |     1.44505
   26 N                |  14 B                |     2.76732  |     1.46440
   27 N                |  10 B                |     2.75581  |     1.45831
   27 N                |  11 B                |     2.72773  |     1.44345
   27 N                |  15 B                |     2.76393  |     1.46261
   28 N                |  11 B                |     2.76578  |     1.46359
   28 N                |  12 B                |     2.71641  |     1.43746
   28 N                |  16 B                |     2.75554  |     1.45817
   29 N                |  13 B                |     2.68307  |     1.41982
   30 N                |  13 B                |     2.73985  |     1.44987
   30 N                |  14 B                |     2.70680  |     1.43237
   31 N                |  14 B                |     2.72795  |     1.44357
   31 N                |  15 B                |     2.70232  |     1.43000
   32 N                |  15 B                |     2.73813  |     1.44896
   32 N                |  16 B                |     2.68269  |     1.41962
   33 H                |  17 N                |     1.92595  |     1.01917
   34 H                |  21 N                |     1.92508  |     1.01871
   35 H                |  25 N                |     1.92389  |     1.01808
   36 H                |  29 N                |     1.91014  |     1.01080
   37 H                |  29 N                |     1.91014  |     1.01080
   38 H                |  30 N                |     1.92389  |     1.01808
   39 H                |  31 N                |     1.92508  |     1.01871
   40 H                |  32 N                |     1.92595  |     1.01917
   41 H                |   1 B                |     2.27034  |     1.20141
   42 H                |   2 B                |     2.26916  |     1.20079
   43 H                |   3 B                |     2.26761  |     1.19997
   44 H                |   4 B                |     2.27691  |     1.20489
   45 H                |   4 B                |     2.27691  |     1.20489
   46 H                |   8 B                |     2.26760  |     1.19996
   47 H                |  12 B                |     2.26916  |     1.20079
   48 H                |  16 B                |     2.27034  |     1.20141
   50 C                |  49 C                |     2.90422  |     1.53684
   51 C                |  50 C                |     2.92501  |     1.54785
   52 F                |  49 C                |     2.53641  |     1.34221
   53 F                |  49 C                |     2.53963  |     1.34391
   54 F                |  49 C                |     2.54018  |     1.34421
   55 F                |  50 C                |     2.57988  |     1.36521
   56 F                |  50 C                |     2.57573  |     1.36302
   57 O                |  51 C                |     2.35708  |     1.24731
   58 O                |  51 C                |     2.35555  |     1.24651
 ------------------------------------------------------------------------------
                         number of included internuclear distances:         65
 ==============================================================================



 ==============================================================================
                                 internuclear angles
 ------------------------------------------------------------------------------
        center 1       |       center 2       |       center 3       |  degrees
 ------------------------------------------------------------------------------
   17 N                |   1 B                |  18 N                |   119.23
   17 N                |   1 B                |  41 H                |   121.09
   18 N                |   1 B                |  41 H                |   119.68
   18 N                |   2 B                |  19 N                |   120.51
   18 N                |   2 B                |  42 H                |   120.17
   19 N                |   2 B                |  42 H                |   119.32
   19 N                |   3 B                |  20 N                |   120.17
   19 N                |   3 B                |  43 H                |   120.33
   20 N                |   3 B                |  43 H                |   119.49
   20 N                |   4 B                |  44 H                |   119.64
   20 N                |   4 B                |  45 H                |   119.65
   44 H                |   4 B                |  45 H                |   120.71
   17 N                |   5 B                |  21 N                |   122.82
   17 N                |   5 B                |  22 N                |   118.25
   21 N                |   5 B                |  22 N                |   118.94
   18 N                |   6 B                |  22 N                |   120.25
   18 N                |   6 B                |  23 N                |   119.58
   22 N                |   6 B                |  23 N                |   120.17
   19 N                |   7 B                |  23 N                |   120.19
   19 N                |   7 B                |  24 N                |   119.62
   23 N                |   7 B                |  24 N                |   120.19
   20 N                |   8 B                |  24 N                |   120.17
   20 N                |   8 B                |  46 H                |   119.49
   24 N                |   8 B                |  46 H                |   120.33
   21 N                |   9 B                |  25 N                |   122.60
   21 N                |   9 B                |  26 N                |   118.46
   25 N                |   9 B                |  26 N                |   118.95
   22 N                |  10 B                |  26 N                |   120.20
   22 N                |  10 B                |  27 N                |   119.61
   26 N                |  10 B                |  27 N                |   120.20
   23 N                |  11 B                |  27 N                |   120.17
   23 N                |  11 B                |  28 N                |   119.58
   27 N                |  11 B                |  28 N                |   120.25
   24 N                |  12 B                |  28 N                |   120.51
   24 N                |  12 B                |  47 H                |   119.32
   28 N                |  12 B                |  47 H                |   120.17
   25 N                |  13 B                |  29 N                |   121.51
   25 N                |  13 B                |  30 N                |   116.98
   29 N                |  13 B                |  30 N                |   121.51
   26 N                |  14 B                |  30 N                |   118.95
   26 N                |  14 B                |  31 N                |   118.46
   30 N                |  14 B                |  31 N                |   122.60
   27 N                |  15 B                |  31 N                |   118.94
   27 N                |  15 B                |  32 N                |   118.25
   31 N                |  15 B                |  32 N                |   122.82
   28 N                |  16 B                |  32 N                |   119.23
   28 N                |  16 B                |  48 H                |   119.68
   32 N                |  16 B                |  48 H                |   121.09
    1 B                |  17 N                |   5 B                |   122.67
    1 B                |  17 N                |  33 H                |   118.79
    5 B                |  17 N                |  33 H                |   118.54
    1 B                |  18 N                |   2 B                |   120.45
    1 B                |  18 N                |   6 B                |   119.50
    2 B                |  18 N                |   6 B                |   120.04
    2 B                |  19 N                |   3 B                |   120.25
    2 B                |  19 N                |   7 B                |   119.55
    3 B                |  19 N                |   7 B                |   120.20
    3 B                |  20 N                |   4 B                |   120.18
    3 B                |  20 N                |   8 B                |   119.64
    4 B                |  20 N                |   8 B                |   120.18
    5 B                |  21 N                |   9 B                |   122.51
    5 B                |  21 N                |  34 H                |   118.63
    9 B                |  21 N                |  34 H                |   118.86
    5 B                |  22 N                |   6 B                |   120.10
    5 B                |  22 N                |  10 B                |   119.75
    6 B                |  22 N                |  10 B                |   120.15
    6 B                |  23 N                |   7 B                |   120.13
    6 B                |  23 N                |  11 B                |   119.75
    7 B                |  23 N                |  11 B                |   120.13
    7 B                |  24 N                |   8 B                |   120.20
    7 B                |  24 N                |  12 B                |   119.55
    8 B                |  24 N                |  12 B                |   120.25
    9 B                |  25 N                |  13 B                |   122.72
    9 B                |  25 N                |  35 H                |   118.42
   13 B                |  25 N                |  35 H                |   118.86
    9 B                |  26 N                |  10 B                |   120.15
    9 B                |  26 N                |  14 B                |   119.69
   10 B                |  26 N                |  14 B                |   120.15
   10 B                |  27 N                |  11 B                |   120.15
   10 B                |  27 N                |  15 B                |   119.75
   11 B                |  27 N                |  15 B                |   120.10
   11 B                |  28 N                |  12 B                |   120.04
   11 B                |  28 N                |  16 B                |   119.50
   12 B                |  28 N                |  16 B                |   120.45
   13 B                |  29 N                |  36 H                |   122.49
   13 B                |  29 N                |  37 H                |   122.49
   36 H                |  29 N                |  37 H                |   115.01
   13 B                |  30 N                |  14 B                |   122.72
   13 B                |  30 N                |  38 H                |   118.86
   14 B                |  30 N                |  38 H                |   118.42
   14 B                |  31 N                |  15 B                |   122.51
   14 B                |  31 N                |  39 H                |   118.86
   15 B                |  31 N                |  39 H                |   118.63
   15 B                |  32 N                |  16 B                |   122.67
   15 B                |  32 N                |  40 H                |   118.54
   16 B                |  32 N                |  40 H                |   118.79
   50 C                |  49 C                |  52 F                |   110.73
   50 C                |  49 C                |  53 F                |   110.90
   50 C                |  49 C                |  54 F                |   110.09
   52 F                |  49 C                |  53 F                |   108.19
   52 F                |  49 C                |  54 F                |   108.62
   53 F                |  49 C                |  54 F                |   108.24
   49 C                |  50 C                |  51 C                |   113.76
   49 C                |  50 C                |  55 F                |   107.10
   49 C                |  50 C                |  56 F                |   106.82
   51 C                |  50 C                |  55 F                |   110.51
   51 C                |  50 C                |  56 F                |   110.82
   55 F                |  50 C                |  56 F                |   107.53
   50 C                |  51 C                |  57 O                |   116.29
   50 C                |  51 C                |  58 O                |   116.91
   57 O                |  51 C                |  58 O                |   126.79
 ------------------------------------------------------------------------------
                            number of included internuclear angles:        111
 ==============================================================================



 fixed atoms                  :  33    34    35    36
                                 37    38    39    40
                                 41    42    43    44
                                 45    46    47    48


 no springs found
 no bondings springs found
 no dihedral springs found
  library name resolved from: environment
  library file name is: <
 /opt/apps/software/MPI/intel/2019.3.199-GCC-8.3.0/impi/2019.4.243/NWChem/6.8.re
 vision47/data/libraries/>
  
                         NWChem Constraints Module
                         -------------------------
 General Information
 -------------------
 fixed atoms                  :  33    34    35    36
                                 37    38    39    40
                                 41    42    43    44
                                 45    46    47    48


 no springs found
 no bondings springs found
 no dihedral springs found
                                 NWChem SCF Module
                                 -----------------
 
 
                                        mol
 
 

  ao basis        = "ao basis"
  functions       =  1194
  atoms           =    58
  alpha electrons =   144
  beta  electrons =   143
  charge          =   0.00
  wavefunction    = UHF 
  input vectors   = fragment
  output vectors  = ./product.movecs
  use symmetry    = F
  symmetry adapt  = F


 Summary of "ao basis" -> "ao basis" (cartesian)
 ------------------------------------------------------------------------------
       Tag                 Description            Shells   Functions and Types
 ---------------- ------------------------------  ------  ---------------------
 B                        aug-cc-pVDZ                9       25   4s3p2d
 N                        aug-cc-pVDZ                9       25   4s3p2d
 H                        aug-cc-pVDZ                5        9   3s2p
 C                        aug-cc-pVDZ                9       25   4s3p2d
 F                        aug-cc-pVDZ                9       25   4s3p2d
 O                        aug-cc-pVDZ                9       25   4s3p2d



 Forming initial guess at       0.3s


 !! The overlap matrix has  34 vectors deemed linearly dependent with
    eigenvalues:
 2.67D-07 6.85D-07 7.12D-07 7.75D-07 1.02D-06 1.03D-06 1.42D-06 1.44D-06
 1.49D-06 1.81D-06 1.95D-06 2.05D-06 2.20D-06 2.58D-06 2.76D-06 2.96D-06
 3.36D-06 3.43D-06 3.64D-06 3.90D-06 4.12D-06 4.26D-06 4.52D-06 4.75D-06
 4.83D-06 5.23D-06 6.28D-06 6.38D-06 6.79D-06 7.32D-06 8.31D-06 8.58D-06
 8.71D-06 9.62D-06
 
 
   Fragment Molecular Orbital Initial Guess
   ----------------------------------------
 
 title    mol
 basis    ao basis
 scftype  scf                 
 nbf         944
 nsets         2
 nmo         913
 nclosed       0
 nopen       104
 nvirtual    809

 title    mol
 basis    ao basis
 scftype  scf                 
 nbf         250
 nsets         2
 nmo         250
 nclosed       0
 nopen        40
 nvirtual    210

 **************WARNING*****************
  movecs_fragment: virt shell mismatch,
  probably due to linear dependence.
  virtual orbitals excluded:                      3
 **************************************
 
   Fragment Molecular Orbital Initial Guess
   ----------------------------------------
 
 title    mol
 basis    ao basis
 scftype  scf                 
 nbf         944
 nsets         2
 nmo         913
 nclosed       0
 nopen       104
 nvirtual    809

 title    mol
 basis    ao basis
 scftype  scf                 
 nbf         250
 nsets         2
 nmo         250
 nclosed       0
 nopen        39
 nvirtual    211

 **************WARNING*****************
  movecs_fragment: virt shell mismatch,
  probably due to linear dependence.
  virtual orbitals excluded:                      3
 **************************************

 Starting SCF solution at       1.3s



 ----------------------------------------------
         Quadratically convergent UHF

 Convergence threshold     :          1.000E-04
 Maximum no. of iterations :          200
 Integral*density screening:          1.000E-10
 ----------------------------------------------


              iter       energy          gnorm     gmax       time
             ----- ------------------- --------- --------- --------
                 1    -2028.6363924148  5.61D+00  3.24D-01     32.5
  Setting level-shift to   4.38 to force positive preconditioner
                 2    -2033.9613822497  3.41D+00  5.88D-01     97.9
                 3    -2035.8589362343  3.10D+00  4.78D-01    165.4
  Setting level-shift to   2.84 to force positive preconditioner
                 4    -2036.7244143943  1.68D+00  5.78D-01    232.6
                 5    -2037.1450191107  1.97D+00  5.07D-01    299.3
                 6    -2037.4330148034  1.41D+00  2.72D-01    366.0
                 7    -2037.6602402453  2.39D+00  2.38D-01    761.1
                 8    -2037.8782977312  5.52D-01  8.14D-02    820.7
                 9    -2037.9222694606  4.99D-02  1.10D-02    986.3
                10    -2037.9246423873  8.09D-03  1.30D-03   1286.8
  ga_iter_lsolve: convergence stagnant ... aborting solve
                11    -2037.9246642313  2.88D-04  1.12D-04   1585.1
  ga_iter_lsolve: convergence stagnant ... aborting solve

 Disabled NR: increased maxiter to 210

                12    -2037.9246651847  3.33D-03  2.79D-04   1768.4
                13    -2037.9248057261  3.17D-02  9.14D-03   2028.1
                14    -2037.9248073260  3.33D-02  9.82D-03   2346.0
                15    -2037.9252529901  4.04D-02  1.38D-02   2433.7
                16    -2037.9258041605  3.05D-02  7.92D-03   2492.3
                17    -2037.9261471150  2.77D-02  3.67D-03   2551.0
                18    -2037.9262904487  1.40D-02  2.56D-03   2581.2
                19    -2037.9264332396  1.84D-02  3.47D-03   2640.1
                20    -2037.9265337289  1.77D-02  1.56D-03   2699.1
                21    -2037.9266151012  1.30D-02  1.95D-03   2757.7
                22    -2037.9266443773  4.85D-03  8.58D-04   2787.5
                23    -2037.9266510183  3.17D-03  4.73D-04   2846.6
                24    -2037.9266531775  2.12D-03  2.67D-04   2904.8
                25    -2037.9266542712  1.60D-03  2.33D-04   2963.5
                26    -2037.9266548640  1.35D-03  1.78D-04   3022.6
                27    -2037.9266553840  9.77D-04  2.18D-04   3081.1
                28    -2037.9266556968  9.70D-04  1.59D-04   3139.7
                29    -2037.9266559475  8.59D-04  1.26D-04   3198.2
                30    -2037.9266561223  5.92D-04  9.39D-05   3257.0
                31    -2037.9266561844  3.26D-04  5.89D-05   3315.8
                32    -2037.9266562071  2.13D-04  2.98D-05   3374.1
                33    -2037.9266562202  2.22D-04  3.09D-05   3432.8
                34    -2037.9266562388  2.53D-04  3.16D-05   3491.5
                35    -2037.9266562530  1.64D-04  1.53D-05   3550.0
                36    -2037.9266562586  1.04D-04  1.45D-05   3609.1
                37    -2037.9266562604  5.39D-05  6.15D-06   3668.1


       Final UHF  results 
       ------------------ 

         Total SCF energy =  -2037.926656260425
      One electron energy = -12223.952640964832
      Two electron energy =   5454.704033285535
 Nuclear repulsion energy =   4731.321951418871

                       Sz =      0.5000
                 Sz(Sz+1) =      0.7500
                      S^2 =      0.7618

        Time for solution =   3669.1s


          Final alpha eigenvalues
          -----------------------

              1      
    1  -26.3967
    2  -26.3903
    3  -26.3894
    4  -26.3886
    5  -26.3829
    6  -20.7694
    7  -20.6150
    8  -15.5490
    9  -15.5483
   10  -15.5442
   11  -15.5434
   12  -15.5430
   13  -15.5391
   14  -15.5386
   15  -15.5376
   16  -15.5363
   17  -15.5363
   18  -15.5349
   19  -15.5348
   20  -15.5329
   21  -15.5315
   22  -15.5281
   23  -15.5223
   24  -11.5717
   25  -11.5151
   26  -11.4660
   27   -7.6325
   28   -7.6300
   29   -7.6278
   30   -7.6268
   31   -7.6238
   32   -7.6227
   33   -7.6200
   34   -7.6182
   35   -7.6171
   36   -7.6166
   37   -7.6159
   38   -7.6135
   39   -7.6124
   40   -7.6112
   41   -7.6083
   42   -7.6035
   43   -1.7777
   44   -1.7278
   45   -1.6847
   46   -1.6775
   47   -1.6648
   48   -1.6083
   49   -1.4164
   50   -1.2337
   51   -1.2130
   52   -1.2023
   53   -1.1923
   54   -1.1691
   55   -1.1677
   56   -1.1610
   57   -1.1447
   58   -1.1430
   59   -1.1275
   60   -1.1271
   61   -1.1201
   62   -1.1175
   63   -1.1168
   64   -1.1125
   65   -1.0985
   66   -1.0970
   67   -1.0017
   68   -0.9217
   69   -0.8802
   70   -0.8714
   71   -0.8653
   72   -0.8503
   73   -0.8193
   74   -0.7828
   75   -0.7763
   76   -0.7729
   77   -0.7718
   78   -0.7553
   79   -0.7542
   80   -0.7523
   81   -0.7480
   82   -0.7446
   83   -0.7431
   84   -0.7417
   85   -0.7394
   86   -0.7272
   87   -0.7213
   88   -0.7169
   89   -0.7150
   90   -0.7122
   91   -0.7120
   92   -0.7025
   93   -0.7025
   94   -0.6989
   95   -0.6882
   96   -0.6874
   97   -0.6841
   98   -0.6663
   99   -0.6562
  100   -0.6517
  101   -0.6507
  102   -0.6440
  103   -0.6408
  104   -0.6272
  105   -0.6183
  106   -0.6114
  107   -0.6095
  108   -0.6008
  109   -0.5904
  110   -0.5854
  111   -0.5816
  112   -0.5752
  113   -0.5724
  114   -0.5671
  115   -0.5520
  116   -0.5465
  117   -0.5449
  118   -0.5291
  119   -0.5286
  120   -0.5261
  121   -0.5202
  122   -0.5133
  123   -0.5122
  124   -0.5121
  125   -0.5105
  126   -0.4983
  127   -0.4838
  128   -0.4816
  129   -0.4793
  130   -0.4763
  131   -0.4669
  132   -0.4655
  133   -0.4642
  134   -0.4535
  135   -0.4434
  136   -0.4396
  137   -0.4373
  138   -0.4141
  139   -0.4054
  140   -0.4017
  141   -0.3995
  142   -0.3811
  143   -0.3697
  144   -0.3666
  145    0.0205
  146    0.0260
  147    0.0319
  148    0.0379
  149    0.0392
  150    0.0428
  151    0.0481
  152    0.0492
  153    0.0511
  154    0.0517
 
          Final beta eigenvalues
          ----------------------

              1      
    1  -26.3967
    2  -26.3903
    3  -26.3896
    4  -26.3885
    5  -26.3823
    6  -20.7284
    7  -20.6142
    8  -15.5490
    9  -15.5483
   10  -15.5442
   11  -15.5434
   12  -15.5430
   13  -15.5391
   14  -15.5386
   15  -15.5376
   16  -15.5363
   17  -15.5363
   18  -15.5349
   19  -15.5348
   20  -15.5329
   21  -15.5315
   22  -15.5281
   23  -15.5223
   24  -11.5717
   25  -11.5129
   26  -11.4691
   27   -7.6325
   28   -7.6300
   29   -7.6278
   30   -7.6268
   31   -7.6238
   32   -7.6227
   33   -7.6200
   34   -7.6182
   35   -7.6171
   36   -7.6166
   37   -7.6159
   38   -7.6135
   39   -7.6124
   40   -7.6112
   41   -7.6083
   42   -7.6035
   43   -1.7775
   44   -1.7269
   45   -1.6846
   46   -1.6773
   47   -1.6641
   48   -1.5027
   49   -1.3809
   50   -1.2337
   51   -1.2130
   52   -1.2023
   53   -1.1923
   54   -1.1691
   55   -1.1677
   56   -1.1610
   57   -1.1447
   58   -1.1430
   59   -1.1275
   60   -1.1202
   61   -1.1201
   62   -1.1175
   63   -1.1168
   64   -1.1125
   65   -1.0985
   66   -1.0970
   67   -0.9904
   68   -0.9081
   69   -0.8777
   70   -0.8711
   71   -0.8515
   72   -0.8164
   73   -0.8046
   74   -0.7763
   75   -0.7729
   76   -0.7718
   77   -0.7553
   78   -0.7527
   79   -0.7523
   80   -0.7461
   81   -0.7430
   82   -0.7417
   83   -0.7394
   84   -0.7309
   85   -0.7213
   86   -0.7169
   87   -0.7144
   88   -0.7122
   89   -0.7120
   90   -0.7073
   91   -0.7025
   92   -0.7008
   93   -0.6943
   94   -0.6880
   95   -0.6874
   96   -0.6835
   97   -0.6711
   98   -0.6663
   99   -0.6562
  100   -0.6517
  101   -0.6440
  102   -0.6408
  103   -0.6272
  104   -0.6183
  105   -0.6114
  106   -0.6109
  107   -0.6095
  108   -0.5904
  109   -0.5854
  110   -0.5816
  111   -0.5751
  112   -0.5724
  113   -0.5671
  114   -0.5520
  115   -0.5465
  116   -0.5449
  117   -0.5291
  118   -0.5281
  119   -0.5202
  120   -0.5198
  121   -0.5133
  122   -0.5121
  123   -0.5105
  124   -0.5033
  125   -0.4983
  126   -0.4838
  127   -0.4816
  128   -0.4793
  129   -0.4763
  130   -0.4669
  131   -0.4655
  132   -0.4642
  133   -0.4535
  134   -0.4434
  135   -0.4396
  136   -0.4373
  137   -0.4140
  138   -0.4054
  139   -0.4017
  140   -0.3995
  141   -0.3811
  142   -0.3697
  143   -0.3666
  144   -0.0202
  145    0.0206
  146    0.0261
  147    0.0319
  148    0.0380
  149    0.0392
  150    0.0428
  151    0.0482
  152    0.0492
  153    0.0513
  154    0.0520
 
                    UHF Final Alpha Molecular Orbital Analysis
                    ------------------------------------------
 
 Vector   49  Occ=1.000000D+00  E=-1.416432D+00
              MO Center=  4.9D+00, -1.5D+00,  5.7D+00, r^2= 8.0D-01
   Bfn.  Coefficient  Atom+Function         Bfn.  Coefficient  Atom+Function  
  ----- ------------  ---------------      ----- ------------  ---------------
  1172      0.408349  58 O  s              1171      0.388324  58 O  s         
   999      0.180295  51 C  px             1147     -0.156288  57 O  s         
   996      0.153683  51 C  s         
 
 Vector   50  Occ=1.000000D+00  E=-1.233729D+00
              MO Center=  4.9D+00,  5.0D-02,  1.7D+00, r^2= 8.4D+00
   Bfn.  Coefficient  Atom+Function         Bfn.  Coefficient  Atom+Function  
  ----- ------------  ---------------      ----- ------------  ---------------
   679      0.252368  28 N  s               429      0.247756  18 N  s         
   479      0.248963  20 N  s               629      0.215930  26 N  s         
   454      0.194750  19 N  s               754      0.183944  31 N  s         
   504      0.181671  21 N  s               579      0.172827  24 N  s         
   554      0.161999  23 N  s               552      0.154352  23 N  s         
 
 Vector   51  Occ=1.000000D+00  E=-1.213030D+00
              MO Center=  4.9D+00, -4.4D-01,  1.7D+00, r^2= 1.6D+01
   Bfn.  Coefficient  Atom+Function         Bfn.  Coefficient  Atom+Function  
  ----- ------------  ---------------      ----- ------------  ---------------
   627     -0.139701  26 N  s               452      0.137862  19 N  s         
   577      0.136551  24 N  s         
 
 Vector   52  Occ=1.000000D+00  E=-1.202253D+00
              MO Center=  5.0D+00, -5.8D-01,  1.7D+00, r^2= 1.1D+01
   Bfn.  Coefficient  Atom+Function         Bfn.  Coefficient  Atom+Function  
  ----- ------------  ---------------      ----- ------------  ---------------
   402      0.164569  17 N  s         
 
 Vector   53  Occ=1.000000D+00  E=-1.192347D+00
              MO Center=  5.1D+00, -1.0D+00,  1.7D+00, r^2= 2.2D+01
   Bfn.  Coefficient  Atom+Function         Bfn.  Coefficient  Atom+Function  
  ----- ------------  ---------------      ----- ------------  ---------------
   602      0.153989  25 N  s         
 
 Vector   54  Occ=1.000000D+00  E=-1.169099D+00
              MO Center=  4.2D+00, -4.7D-01,  1.7D+00, r^2= 2.0D+01
   Bfn.  Coefficient  Atom+Function         Bfn.  Coefficient  Atom+Function  
  ----- ------------  ---------------      ----- ------------  ---------------
   502      0.195170  21 N  s               462      0.187149  19 N  py        
   427     -0.164841  18 N  s               504      0.157010  21 N  s         
 
 Vector   55  Occ=1.000000D+00  E=-1.167683D+00
              MO Center=  5.8D+00, -3.7D-01,  1.7D+00, r^2= 1.8D+01
   Bfn.  Coefficient  Atom+Function         Bfn.  Coefficient  Atom+Function  
  ----- ------------  ---------------      ----- ------------  ---------------
   752      0.197067  31 N  s               587      0.185006  24 N  py        
   754      0.161648  31 N  s               677     -0.160280  28 N  s         
 
 Vector   56  Occ=1.000000D+00  E=-1.160999D+00
              MO Center=  4.9D+00, -1.0D+00,  1.7D+00, r^2= 1.4D+01
   Bfn.  Coefficient  Atom+Function         Bfn.  Coefficient  Atom+Function  
  ----- ------------  ---------------      ----- ------------  ---------------
   554      0.302900  23 N  s               654      0.218225  27 N  s         
   402     -0.213920  17 N  s               777     -0.196641  32 N  s         
   529      0.193257  22 N  s               537     -0.163017  22 N  py        
   403     -0.157638  17 N  s         
 
 Vector   57  Occ=1.000000D+00  E=-1.144686D+00
              MO Center=  4.7D+00, -2.8D-01,  1.7D+00, r^2= 1.8D+01
   Bfn.  Coefficient  Atom+Function         Bfn.  Coefficient  Atom+Function  
  ----- ------------  ---------------      ----- ------------  ---------------
   452      0.172028  19 N  s               777      0.156750  32 N  s         
 
 Vector   58  Occ=1.000000D+00  E=-1.143010D+00
              MO Center=  5.3D+00, -7.2D-01,  1.7D+00, r^2= 2.6D+01
   Bfn.  Coefficient  Atom+Function         Bfn.  Coefficient  Atom+Function  
  ----- ------------  ---------------      ----- ------------  ---------------
   702      0.202212  29 N  s               477      0.193706  20 N  s         
   703      0.151290  29 N  s         
 
 Vector   59  Occ=1.000000D+00  E=-1.127455D+00
              MO Center=  4.9D+00, -1.9D+00,  1.7D+00, r^2= 2.3D+01
   Bfn.  Coefficient  Atom+Function         Bfn.  Coefficient  Atom+Function  
  ----- ------------  ---------------      ----- ------------  ---------------
   604      0.228325  25 N  s               729      0.209678  30 N  s         
   702     -0.195456  29 N  s         
 
 Vector   60  Occ=1.000000D+00  E=-1.127100D+00
              MO Center=  4.9D+00,  5.3D-01,  6.7D+00, r^2= 2.2D+00
   Bfn.  Coefficient  Atom+Function         Bfn.  Coefficient  Atom+Function  
  ----- ------------  ---------------      ----- ------------  ---------------
   998      0.349904  51 C  s               971      0.298068  50 C  s         
   973     -0.262563  50 C  s               948     -0.236502  49 C  s         
   946      0.219979  49 C  s              1097     -0.153173  55 F  s         
   951     -0.150357  49 C  pz        
 
 Vector   61  Occ=1.000000D+00  E=-1.120105D+00
              MO Center=  4.7D+00, -3.1D-01,  1.7D+00, r^2= 1.1D+01
   Bfn.  Coefficient  Atom+Function         Bfn.  Coefficient  Atom+Function  
  ----- ------------  ---------------      ----- ------------  ---------------
   636      0.227981  26 N  px              402      0.182053  17 N  s         
   527     -0.179946  22 N  s               652      0.180525  27 N  s         
   777     -0.156751  32 N  s         
 
 Vector   62  Occ=1.000000D+00  E=-1.117467D+00
              MO Center=  5.1D+00,  2.9D-01,  1.7D+00, r^2= 1.4D+01
   Bfn.  Coefficient  Atom+Function         Bfn.  Coefficient  Atom+Function  
  ----- ------------  ---------------      ----- ------------  ---------------
   552      0.226602  23 N  s               553      0.168217  23 N  s         
   627     -0.154510  26 N  s         
 
 Vector   63  Occ=1.000000D+00  E=-1.116829D+00
              MO Center=  5.2D+00, -1.7D+00,  1.7D+00, r^2= 1.8D+01
   Bfn.  Coefficient  Atom+Function         Bfn.  Coefficient  Atom+Function  
  ----- ------------  ---------------      ----- ------------  ---------------
   727     -0.209104  30 N  s               602      0.199945  25 N  s         
   728     -0.158615  30 N  s               603      0.150299  25 N  s         
 
 Vector   64  Occ=1.000000D+00  E=-1.112493D+00
              MO Center=  5.1D+00, -3.3D-01,  1.7D+00, r^2= 1.7D+01
   Bfn.  Coefficient  Atom+Function         Bfn.  Coefficient  Atom+Function  
  ----- ------------  ---------------      ----- ------------  ---------------
   427      0.168982  18 N  s               677      0.168398  28 N  s         
 
 Vector   65  Occ=1.000000D+00  E=-1.098470D+00
              MO Center=  5.3D+00, -9.7D-01,  1.7D+00, r^2= 1.1D+01
   Bfn.  Coefficient  Atom+Function         Bfn.  Coefficient  Atom+Function  
  ----- ------------  ---------------      ----- ------------  ---------------
   527      0.173916  22 N  s               652     -0.160247  27 N  s         
   752      0.154857  31 N  s         
 
 Vector   66  Occ=1.000000D+00  E=-1.096961D+00
              MO Center=  5.1D+00, -1.8D+00,  1.7D+00, r^2= 9.0D+00
   Bfn.  Coefficient  Atom+Function         Bfn.  Coefficient  Atom+Function  
  ----- ------------  ---------------      ----- ------------  ---------------
   627      0.257832  26 N  s               628      0.205625  26 N  s         
 
 Vector   67  Occ=1.000000D+00  E=-1.001665D+00
              MO Center=  4.8D+00,  5.0D-01,  7.1D+00, r^2= 3.5D+00
   Bfn.  Coefficient  Atom+Function         Bfn.  Coefficient  Atom+Function  
  ----- ------------  ---------------      ----- ------------  ---------------
   948      0.316721  49 C  s               946     -0.260833  49 C  s         
   998     -0.198490  51 C  s               973     -0.192413  50 C  s         
  1024     -0.189322  52 F  px              972      0.183707  50 C  s         
  1050      0.176905  53 F  py        
 
 Vector   68  Occ=1.000000D+00  E=-9.216701D-01
              MO Center=  4.6D+00,  3.8D-01,  6.8D+00, r^2= 3.7D+00
   Bfn.  Coefficient  Atom+Function         Bfn.  Coefficient  Atom+Function  
  ----- ------------  ---------------      ----- ------------  ---------------
   951      0.220191  49 C  pz             1024      0.203869  52 F  px        
  1149      0.175119  57 O  px              975     -0.168872  50 C  py        
 
 Vector   69  Occ=1.000000D+00  E=-8.802242D-01
              MO Center=  5.0D+00,  8.7D-01,  6.8D+00, r^2= 3.2D+00
   Bfn.  Coefficient  Atom+Function         Bfn.  Coefficient  Atom+Function  
  ----- ------------  ---------------      ----- ------------  ---------------
   973      0.462539  50 C  s               948     -0.402319  49 C  s         
   998     -0.301403  51 C  s               982      0.287123  50 C  pz        
  1124     -0.246445  56 F  px             1099      0.211610  55 F  px        
   976     -0.201780  50 C  pz             1050     -0.178230  53 F  py        
  1127     -0.166290  56 F  px             1100     -0.165309  55 F  py        
 
 Vector   70  Occ=1.000000D+00  E=-8.714009D-01
              MO Center=  4.8D+00,  6.7D-01,  7.8D+00, r^2= 2.6D+00
   Bfn.  Coefficient  Atom+Function         Bfn.  Coefficient  Atom+Function  
  ----- ------------  ---------------      ----- ------------  ---------------
  1075      0.248740  54 F  py             1024     -0.240713  52 F  px        
   949      0.239263  49 C  px             1049      0.205014  53 F  px        
  1076     -0.205294  54 F  pz              950     -0.167093  49 C  py        
   948      0.161098  49 C  s              1078      0.159074  54 F  py        
   998     -0.154263  51 C  s              1026      0.153101  52 F  pz        
 
 Vector   71  Occ=1.000000D+00  E=-8.652796D-01
              MO Center=  4.1D+00,  3.1D-02,  6.7D+00, r^2= 4.5D+00
   Bfn.  Coefficient  Atom+Function         Bfn.  Coefficient  Atom+Function  
  ----- ------------  ---------------      ----- ------------  ---------------
  1149      0.354709  57 O  px              973      0.308164  50 C  s         
  1147     -0.236984  57 O  s               997      0.231848  51 C  s         
   998     -0.212941  51 C  s              1050     -0.201740  53 F  py        
  1152      0.177927  57 O  px             1074      0.175111  54 F  px        
   999     -0.167290  51 C  px             1024     -0.163130  52 F  px        
 
 Vector   72  Occ=1.000000D+00  E=-8.503406D-01
              MO Center=  4.4D+00,  2.1D-01,  6.7D+00, r^2= 4.4D+00
   Bfn.  Coefficient  Atom+Function         Bfn.  Coefficient  Atom+Function  
  ----- ------------  ---------------      ----- ------------  ---------------
   973      0.333211  50 C  s              1150      0.308562  57 O  py        
  1153      0.214877  57 O  py             1149     -0.207892  57 O  px        
  1050     -0.194834  53 F  py             1074      0.188449  54 F  px        
  1099     -0.169173  55 F  px             1025      0.168010  52 F  py        
   950      0.164725  49 C  py        
 
 Vector   73  Occ=1.000000D+00  E=-8.192892D-01
              MO Center=  5.1D+00,  6.9D-01,  6.2D+00, r^2= 3.2D+00
   Bfn.  Coefficient  Atom+Function         Bfn.  Coefficient  Atom+Function  
  ----- ------------  ---------------      ----- ------------  ---------------
  1100      0.265575  55 F  py             1124     -0.238704  56 F  px        
   974      0.202790  50 C  px             1101     -0.197816  55 F  pz        
  1125     -0.198559  56 F  py              679     -0.184932  28 N  s         
   975     -0.180023  50 C  py             1103      0.174791  55 F  py        
   529     -0.163805  22 N  s              1150     -0.161917  57 O  py        
 
 Vector   74  Occ=1.000000D+00  E=-7.828268D-01
              MO Center=  4.3D+00, -1.1D-01,  5.9D+00, r^2= 3.5D+00
   Bfn.  Coefficient  Atom+Function         Bfn.  Coefficient  Atom+Function  
  ----- ------------  ---------------      ----- ------------  ---------------
  1150      0.424811  57 O  py             1153      0.304180  57 O  py        
   997     -0.223649  51 C  s              1100      0.218677  55 F  py        
  1003     -0.176661  51 C  py             1125      0.177000  56 F  py        
  1172      0.158279  58 O  s              1124     -0.152194  56 F  px        
   974      0.150921  50 C  px             1103      0.150452  55 F  py        
 
 Vector   75  Occ=1.000000D+00  E=-7.762533D-01
              MO Center=  4.8D+00,  1.4D+00,  1.7D+00, r^2= 1.4D+01
   Bfn.  Coefficient  Atom+Function         Bfn.  Coefficient  Atom+Function  
  ----- ------------  ---------------      ----- ------------  ---------------
   554      0.194267  23 N  s         
 
 Vector   76  Occ=1.000000D+00  E=-7.729391D-01
              MO Center=  4.9D+00,  1.1D+00,  1.7D+00, r^2= 1.1D+01
   Bfn.  Coefficient  Atom+Function         Bfn.  Coefficient  Atom+Function  
  ----- ------------  ---------------      ----- ------------  ---------------
   555      0.195699  23 N  px              430     -0.159247  18 N  px        
   127     -0.151935   6 B  s         
 
 Vector   77  Occ=1.000000D+00  E=-7.717590D-01
              MO Center=  4.9D+00,  1.8D-01,  1.7D+00, r^2= 1.0D+01
   Bfn.  Coefficient  Atom+Function         Bfn.  Coefficient  Atom+Function  
  ----- ------------  ---------------      ----- ------------  ---------------
   556      0.181221  23 N  py              152      0.167854   7 B  s         
   530     -0.167625  22 N  px              655      0.159932  27 N  px        
   170     -0.158040   7 B  dxx             102      0.151297   5 B  s         
 
 Vector   78  Occ=1.000000D+00  E=-7.552994D-01
              MO Center=  5.0D+00,  2.7D-01,  1.7D+00, r^2= 1.5D+01
   Bfn.  Coefficient  Atom+Function         Bfn.  Coefficient  Atom+Function  
  ----- ------------  ---------------      ----- ------------  ---------------
   561      0.166917  23 N  px              630      0.161982  26 N  px        
 
 Vector   79  Occ=1.000000D+00  E=-7.541879D-01
              MO Center=  4.7D+00,  6.9D-01,  6.7D+00, r^2= 3.9D+00
   Bfn.  Coefficient  Atom+Function         Bfn.  Coefficient  Atom+Function  
  ----- ------------  ---------------      ----- ------------  ---------------
   997      0.360665  51 C  s               978      0.327990  50 C  py        
  1101     -0.329579  55 F  pz             1003      0.318320  51 C  py        
   947     -0.287059  49 C  s               979      0.285237  50 C  pz        
   998     -0.280384  51 C  s               948      0.271539  49 C  s         
  1026     -0.268639  52 F  pz              954      0.255187  49 C  pz        
 
 Vector   80  Occ=1.000000D+00  E=-7.523157D-01
              MO Center=  5.0D+00,  1.3D-01,  1.7D+00, r^2= 1.6D+01
   Bfn.  Coefficient  Atom+Function         Bfn.  Coefficient  Atom+Function  
  ----- ------------  ---------------      ----- ------------  ---------------
   170     -0.210016   7 B  dxx              33      0.206665   2 B  px        
   283     -0.187281  12 B  px              227      0.170771  10 B  s         
   631      0.171082  26 N  py              455      0.153546  19 N  px        
   536     -0.154081  22 N  px        
 
 Vector   81  Occ=1.000000D+00  E=-7.479942D-01
              MO Center=  4.3D+00,  2.4D-01,  7.0D+00, r^2= 4.2D+00
   Bfn.  Coefficient  Atom+Function         Bfn.  Coefficient  Atom+Function  
  ----- ------------  ---------------      ----- ------------  ---------------
   998      0.353158  51 C  s              1151      0.314400  57 O  pz        
  1026     -0.296025  52 F  pz              973     -0.278841  50 C  s         
  1076      0.216415  54 F  pz             1154      0.216106  57 O  pz        
  1029     -0.211451  52 F  pz             1025     -0.177569  52 F  py        
  1050     -0.157974  53 F  py             1079      0.153047  54 F  pz        
 
 Vector   82  Occ=1.000000D+00  E=-7.446056D-01
              MO Center=  4.7D+00,  2.5D-01,  7.0D+00, r^2= 4.4D+00
   Bfn.  Coefficient  Atom+Function         Bfn.  Coefficient  Atom+Function  
  ----- ------------  ---------------      ----- ------------  ---------------
  1151      0.279003  57 O  pz              998      0.257746  51 C  s         
  1076     -0.235764  54 F  pz             1126     -0.213777  56 F  pz        
  1049     -0.204509  53 F  px             1026      0.201886  52 F  pz        
  1154      0.193963  57 O  pz             1079     -0.165273  54 F  pz        
  1099      0.152917  55 F  px             1129     -0.153177  56 F  pz        
 
 Vector   83  Occ=1.000000D+00  E=-7.430759D-01
              MO Center=  4.9D+00,  8.3D-01,  7.9D+00, r^2= 2.9D+00
   Bfn.  Coefficient  Atom+Function         Bfn.  Coefficient  Atom+Function  
  ----- ------------  ---------------      ----- ------------  ---------------
   973      0.581708  50 C  s              1051     -0.370503  53 F  pz        
  1025     -0.294610  52 F  py              998     -0.270590  51 C  s         
  1054     -0.260789  53 F  pz             1076      0.256636  54 F  pz        
   948     -0.206250  49 C  s              1028     -0.205696  52 F  py        
  1074     -0.189813  54 F  px             1079      0.180313  54 F  pz        
 
 Vector   84  Occ=1.000000D+00  E=-7.416762D-01
              MO Center=  4.3D+00, -1.7D+00,  1.7D+00, r^2= 1.4D+01
   Bfn.  Coefficient  Atom+Function         Bfn.  Coefficient  Atom+Function  
  ----- ------------  ---------------      ----- ------------  ---------------
   202      0.180675   9 B  s               506     -0.172179  21 N  py        
   529      0.165235  22 N  s               606      0.153672  25 N  py        
   654     -0.153002  27 N  s         
 
 Vector   85  Occ=1.000000D+00  E=-7.394380D-01
              MO Center=  5.7D+00, -1.9D+00,  1.7D+00, r^2= 2.2D+01
   Bfn.  Coefficient  Atom+Function         Bfn.  Coefficient  Atom+Function  
  ----- ------------  ---------------      ----- ------------  ---------------
   302      0.202790  13 B  s                78     -0.163222   4 B  s         
   706      0.159529  29 N  py              245     -0.154030  10 B  dxx       
   731     -0.152872  30 N  py              327     -0.151563  14 B  s         
   579      0.151772  24 N  s               756      0.151392  31 N  py        
 
 Vector   86  Occ=1.000000D+00  E=-7.272279D-01
              MO Center=  4.9D+00,  8.3D-01,  6.0D+00, r^2= 2.9D+00
   Bfn.  Coefficient  Atom+Function         Bfn.  Coefficient  Atom+Function  
  ----- ------------  ---------------      ----- ------------  ---------------
  1101      0.339432  55 F  pz             1100      0.321041  55 F  py        
  1126     -0.302648  56 F  pz             1104      0.257619  55 F  pz        
  1103      0.235733  55 F  py             1129     -0.224794  56 F  pz        
   998     -0.182088  51 C  s               991      0.169399  50 C  dxz       
  1151     -0.153843  57 O  pz        
 
 Vector   87  Occ=1.000000D+00  E=-7.212954D-01
              MO Center=  4.8D+00, -4.6D-01,  1.7D+00, r^2= 1.8D+01
   Bfn.  Coefficient  Atom+Function         Bfn.  Coefficient  Atom+Function  
  ----- ------------  ---------------      ----- ------------  ---------------
   173      0.189737   7 B  dyy             271     -0.164079  11 B  dxy       
   146      0.158691   6 B  dxy       
 
 Vector   88  Occ=1.000000D+00  E=-7.168841D-01
              MO Center=  4.6D+00,  2.6D+00,  1.7D+00, r^2= 1.7D+01
   Bfn.  Coefficient  Atom+Function         Bfn.  Coefficient  Atom+Function  
  ----- ------------  ---------------      ----- ------------  ---------------
   480      0.256216  20 N  px              148      0.176661   6 B  dyy       
    52     -0.174206   3 B  s               171     -0.163573   7 B  dxy       
   177      0.161853   8 B  s         
 
 Vector   89  Occ=1.000000D+00  E=-7.150342D-01
              MO Center=  5.3D+00, -2.0D-01,  6.1D+00, r^2= 3.9D+00
   Bfn.  Coefficient  Atom+Function         Bfn.  Coefficient  Atom+Function  
  ----- ------------  ---------------      ----- ------------  ---------------
  1125      0.318264  56 F  py             1175      0.260084  58 O  py        
  1128      0.231003  56 F  py              999      0.217791  51 C  px        
  1172     -0.210798  58 O  s               998     -0.195200  51 C  s         
  1099      0.166867  55 F  px             1124      0.162738  56 F  px        
   978     -0.158839  50 C  py        
 
 Vector   90  Occ=1.000000D+00  E=-7.122286D-01
              MO Center=  5.3D+00, -5.9D-01,  1.7D+00, r^2= 2.2D+01
   Bfn.  Coefficient  Atom+Function         Bfn.  Coefficient  Atom+Function  
  ----- ------------  ---------------      ----- ------------  ---------------
   679      0.200513  28 N  s               377      0.175635  16 B  s         
   404      0.170772  17 N  s               781      0.168513  32 N  py        
   170     -0.163050   7 B  dxx             429      0.163490  18 N  s         
   383      0.154027  16 B  px              406      0.154339  17 N  py        
     8     -0.153036   1 B  px               78      0.151351   4 B  s         
 
 Vector   91  Occ=1.000000D+00  E=-7.120196D-01
              MO Center=  5.3D+00, -1.5D-01,  1.7D+00, r^2= 1.6D+01
   Bfn.  Coefficient  Atom+Function         Bfn.  Coefficient  Atom+Function  
  ----- ------------  ---------------      ----- ------------  ---------------
   780      0.178736  32 N  px              864      0.178059  40 H  s         
   405      0.158074  17 N  px        
 
 Vector   92  Occ=1.000000D+00  E=-7.025228D-01
              MO Center=  5.0D+00,  2.9D-01,  6.2D+00, r^2= 1.4D+01
   Bfn.  Coefficient  Atom+Function         Bfn.  Coefficient  Atom+Function  
  ----- ------------  ---------------      ----- ------------  ---------------
  1074      0.293079  54 F  px             1125     -0.222321  56 F  py        
  1024      0.202195  52 F  px             1026      0.201460  52 F  pz        
  1077      0.202452  54 F  px             1099      0.174292  55 F  px        
  1128     -0.161001  56 F  py              579      0.154573  24 N  s         
  1025     -0.153842  52 F  py        
 
 Vector   93  Occ=1.000000D+00  E=-7.024856D-01
              MO Center=  5.0D+00, -4.0D-01,  3.0D+00, r^2= 2.5D+01
   Bfn.  Coefficient  Atom+Function         Bfn.  Coefficient  Atom+Function  
  ----- ------------  ---------------      ----- ------------  ---------------
   454     -0.186192  19 N  s                78      0.172005   4 B  s         
  1074      0.158353  54 F  px              661      0.152967  27 N  px        
 
 Vector   94  Occ=1.000000D+00  E=-6.989172D-01
              MO Center=  5.0D+00,  1.1D+00,  7.9D+00, r^2= 2.6D+00
   Bfn.  Coefficient  Atom+Function         Bfn.  Coefficient  Atom+Function  
  ----- ------------  ---------------      ----- ------------  ---------------
   973      0.566402  50 C  s              1051      0.362790  53 F  pz        
   948     -0.293035  49 C  s              1025     -0.276332  52 F  py        
  1075     -0.276238  54 F  py             1054      0.261671  53 F  pz        
  1049     -0.230766  53 F  px             1050     -0.224679  53 F  py        
   998     -0.222812  51 C  s              1028     -0.197937  52 F  py        
 
 Vector   95  Occ=1.000000D+00  E=-6.882320D-01
              MO Center=  5.2D+00,  1.1D+00,  7.5D+00, r^2= 3.0D+00
   Bfn.  Coefficient  Atom+Function         Bfn.  Coefficient  Atom+Function  
  ----- ------------  ---------------      ----- ------------  ---------------
  1049      0.356954  53 F  px             1075     -0.260095  54 F  py        
  1052      0.249692  53 F  px             1025      0.231747  52 F  py        
  1050     -0.232627  53 F  py             1099     -0.219778  55 F  px        
  1126     -0.179161  56 F  pz             1078     -0.178270  54 F  py        
  1074     -0.165100  54 F  px             1028      0.161480  52 F  py        
 
 Vector   96  Occ=1.000000D+00  E=-6.874335D-01
              MO Center=  5.0D+00, -4.6D+00,  1.7D+00, r^2= 1.6D+01
   Bfn.  Coefficient  Atom+Function         Bfn.  Coefficient  Atom+Function  
  ----- ------------  ---------------      ----- ------------  ---------------
   705      0.310313  29 N  px              837     -0.233049  37 H  s         
   828      0.230973  36 H  s               829      0.165701  36 H  s         
   838     -0.165953  37 H  s         
 
 Vector   97  Occ=1.000000D+00  E=-6.841456D-01
              MO Center=  5.2D+00,  8.1D-01,  6.8D+00, r^2= 3.5D+00
   Bfn.  Coefficient  Atom+Function         Bfn.  Coefficient  Atom+Function  
  ----- ------------  ---------------      ----- ------------  ---------------
  1099      0.349584  55 F  px             1074     -0.288636  54 F  px        
  1125     -0.262324  56 F  py             1102      0.243271  55 F  px        
  1025      0.234372  52 F  py             1077     -0.200665  54 F  px        
  1126      0.189823  56 F  pz             1128     -0.184817  56 F  py        
  1124      0.182879  56 F  px             1028      0.162667  52 F  py        
 
 Vector   98  Occ=1.000000D+00  E=-6.662762D-01
              MO Center=  5.0D+00, -1.0D+00,  1.7D+00, r^2= 2.0D+01
   Bfn.  Coefficient  Atom+Function         Bfn.  Coefficient  Atom+Function  
  ----- ------------  ---------------      ----- ------------  ---------------
   505      0.180898  21 N  px              755     -0.180936  31 N  px        
   762     -0.172984  31 N  py              512     -0.170145  21 N  py        
   706      0.154952  29 N  py              430      0.153266  18 N  px        
   680     -0.150592  28 N  px        
 
 Vector   99  Occ=1.000000D+00  E=-6.561662D-01
              MO Center=  4.8D+00,  9.4D-01,  1.7D+00, r^2= 2.4D+01
   Bfn.  Coefficient  Atom+Function         Bfn.  Coefficient  Atom+Function  
  ----- ------------  ---------------      ----- ------------  ---------------
   479      0.278039  20 N  s                78      0.264133   4 B  s         
   810     -0.175639  34 H  s               855     -0.170474  39 H  s         
    77      0.164192   4 B  s               487     -0.155235  20 N  py        
   173     -0.152154   7 B  dyy             755     -0.150783  31 N  px        
 
 Vector  100  Occ=1.000000D+00  E=-6.517343D-01
              MO Center=  5.1D+00, -2.0D+00,  1.7D+00, r^2= 2.4D+01
   Bfn.  Coefficient  Atom+Function         Bfn.  Coefficient  Atom+Function  
  ----- ------------  ---------------      ----- ------------  ---------------
   705      0.250321  29 N  px              837     -0.195124  37 H  s         
   828      0.192071  36 H  s               829      0.150280  36 H  s         
   838     -0.151014  37 H  s         
 
 Vector  101  Occ=1.000000D+00  E=-6.506783D-01
              MO Center=  4.9D+00, -2.3D-01,  6.2D+00, r^2= 3.7D+00
   Bfn.  Coefficient  Atom+Function         Bfn.  Coefficient  Atom+Function  
  ----- ------------  ---------------      ----- ------------  ---------------
   973      0.358212  50 C  s              1174      0.232492  58 O  px        
  1150     -0.228076  57 O  py             1000      0.225143  51 C  py        
  1125      0.203637  56 F  py              947      0.198735  49 C  s         
   554      0.196224  23 N  s              1175     -0.184389  58 O  py        
  1076      0.179441  54 F  pz             1153     -0.176921  57 O  py        
 
 Vector  102  Occ=1.000000D+00  E=-6.439771D-01
              MO Center=  5.1D+00,  1.8D+00,  1.7D+00, r^2= 1.6D+01
   Bfn.  Coefficient  Atom+Function         Bfn.  Coefficient  Atom+Function  
  ----- ------------  ---------------      ----- ------------  ---------------
   779     -0.190321  32 N  s               404      0.187173  17 N  s         
   679      0.184443  28 N  s               480      0.177092  20 N  px        
   181      0.173490   8 B  py              429     -0.174136  18 N  s         
    56     -0.167896   3 B  py              171     -0.160667   7 B  dxy       
   581     -0.160070  24 N  py              864     -0.158523  40 H  s         
 
 Vector  103  Occ=1.000000D+00  E=-6.408290D-01
              MO Center=  5.0D+00, -1.2D+00,  1.7D+00, r^2= 1.7D+01
   Bfn.  Coefficient  Atom+Function         Bfn.  Coefficient  Atom+Function  
  ----- ------------  ---------------      ----- ------------  ---------------
   706     -0.178604  29 N  py              306      0.177664  13 B  py        
   479     -0.174596  20 N  s               234      0.170225  10 B  py        
   227      0.164246  10 B  s               245     -0.163791  10 B  dxx       
   631      0.152596  26 N  py        
 
 Vector  104  Occ=1.000000D+00  E=-6.271891D-01
              MO Center=  5.0D+00, -5.5D-02,  1.7D+00, r^2= 2.2D+01
   Bfn.  Coefficient  Atom+Function         Bfn.  Coefficient  Atom+Function  
  ----- ------------  ---------------      ----- ------------  ---------------
   155      0.198223   7 B  px              455     -0.174600  19 N  px        
   580     -0.173744  24 N  px        
 
 Vector  105  Occ=1.000000D+00  E=-6.182848D-01
              MO Center=  5.0D+00,  6.6D-01,  1.7D+00, r^2= 1.7D+01
   Bfn.  Coefficient  Atom+Function         Bfn.  Coefficient  Atom+Function  
  ----- ------------  ---------------      ----- ------------  ---------------
   679      0.245430  28 N  s               429      0.232950  18 N  s         
   556     -0.187179  23 N  py               53     -0.180805   3 B  s         
   178     -0.177495   8 B  s               780     -0.175289  32 N  px        
   405      0.171655  17 N  px              864     -0.160046  40 H  s         
   801     -0.154341  33 H  s         
 
 Vector  106  Occ=1.000000D+00  E=-6.113645D-01
              MO Center=  4.6D+00, -1.5D+00,  1.7D+00, r^2= 2.2D+01
   Bfn.  Coefficient  Atom+Function         Bfn.  Coefficient  Atom+Function  
  ----- ------------  ---------------      ----- ------------  ---------------
     3      0.206724   1 B  s               506      0.192763  21 N  py        
   706     -0.180508  29 N  py              106     -0.169049   5 B  py        
   754     -0.163407  31 N  s               554     -0.151443  23 N  s         
   604     -0.151167  25 N  s         
 
 Vector  107  Occ=1.000000D+00  E=-6.094522D-01
              MO Center=  5.4D+00, -2.4D+00,  1.7D+00, r^2= 1.5D+01
   Bfn.  Coefficient  Atom+Function         Bfn.  Coefficient  Atom+Function  
  ----- ------------  ---------------      ----- ------------  ---------------
   605      0.198726  25 N  px              730      0.197379  30 N  px        
   819     -0.191323  35 H  s               756     -0.174647  31 N  py        
   378     -0.165618  16 B  s               555     -0.159538  23 N  px        
   330      0.151238  14 B  px              729      0.151499  30 N  s         
   846      0.150304  38 H  s         
 
 Vector  108  Occ=1.000000D+00  E=-6.008387D-01
              MO Center=  5.0D+00,  1.1D-01,  6.5D+00, r^2= 3.6D+00
   Bfn.  Coefficient  Atom+Function         Bfn.  Coefficient  Atom+Function  
  ----- ------------  ---------------      ----- ------------  ---------------
  1174      0.277367  58 O  px              976     -0.249886  50 C  pz        
   951      0.242006  49 C  pz             1126      0.216742  56 F  pz        
  1000      0.204491  51 C  py             1101      0.202997  55 F  pz        
  1150     -0.201496  57 O  py             1177      0.183390  58 O  px        
  1076     -0.179119  54 F  pz             1026     -0.173734  52 F  pz        
 
 Vector  109  Occ=1.000000D+00  E=-5.904312D-01
              MO Center=  4.9D+00, -3.5D-01,  1.7D+00, r^2= 1.1D+01
   Bfn.  Coefficient  Atom+Function         Bfn.  Coefficient  Atom+Function  
  ----- ------------  ---------------      ----- ------------  ---------------
   531      0.216896  22 N  py              656     -0.207451  27 N  py        
   454     -0.180136  19 N  s               230      0.163412  10 B  px        
   131     -0.162277   6 B  py              811     -0.158579  34 H  s         
   256      0.153247  11 B  py        
 
 Vector  110  Occ=1.000000D+00  E=-5.854193D-01
              MO Center=  5.0D+00, -4.0D-01,  1.7D+00, r^2= 1.6D+01
   Bfn.  Coefficient  Atom+Function         Bfn.  Coefficient  Atom+Function  
  ----- ------------  ---------------      ----- ------------  ---------------
   231      0.203723  10 B  py              556      0.184714  23 N  py        
   579     -0.172212  24 N  s               631     -0.169167  26 N  py        
   530      0.167530  22 N  px              156     -0.150852   7 B  py        
 
 Vector  111  Occ=1.000000D+00  E=-5.816175D-01
              MO Center=  5.1D+00,  3.7D-01,  1.7D+00, r^2= 1.3D+01
   Bfn.  Coefficient  Atom+Function         Bfn.  Coefficient  Atom+Function  
  ----- ------------  ---------------      ----- ------------  ---------------
   555      0.242028  23 N  px              279     -0.173414  12 B  s         
    29      0.171355   2 B  s               255     -0.163195  11 B  px        
   130     -0.161413   6 B  px              230      0.155423  10 B  px        
 
 Vector  112  Occ=1.000000D+00  E=-5.752004D-01
              MO Center=  4.9D+00, -4.1D-02,  1.7D+00, r^2= 8.7D+00
   Bfn.  Coefficient  Atom+Function         Bfn.  Coefficient  Atom+Function  
  ----- ------------  ---------------      ----- ------------  ---------------
   129      0.265525   6 B  s               554      0.259938  23 N  s         
   229      0.231254  10 B  s               998     -0.210928  51 C  s         
   529      0.189665  22 N  s               557      0.179915  23 N  pz        
   532      0.173093  22 N  pz              254      0.168547  11 B  s         
   657      0.162016  27 N  pz              948     -0.160791  49 C  s         
 
 Vector  113  Occ=1.000000D+00  E=-5.723687D-01
              MO Center=  5.0D+00, -2.5D+00,  1.7D+00, r^2= 1.3D+01
   Bfn.  Coefficient  Atom+Function         Bfn.  Coefficient  Atom+Function  
  ----- ------------  ---------------      ----- ------------  ---------------
   630      0.245191  26 N  px              606      0.191361  25 N  py        
   206     -0.187642   9 B  py              731     -0.178463  30 N  py        
   331      0.174705  14 B  py              233     -0.167868  10 B  px        
   305      0.168605  13 B  px        
 
 Vector  114  Occ=1.000000D+00  E=-5.671470D-01
              MO Center=  5.1D+00, -4.0D-01,  1.7D+00, r^2= 1.9D+01
   Bfn.  Coefficient  Atom+Function         Bfn.  Coefficient  Atom+Function  
  ----- ------------  ---------------      ----- ------------  ---------------
   123      0.208409   5 B  dyy             373      0.207292  15 B  dyy       
   631      0.198868  26 N  py              245      0.186856  10 B  dxx       
   579     -0.187530  24 N  s               454     -0.180795  19 N  s         
   554     -0.181207  23 N  s               754     -0.178615  31 N  s         
   504     -0.172759  21 N  s               781     -0.169936  32 N  py        
 
 Vector  115  Occ=1.000000D+00  E=-5.519889D-01
              MO Center=  5.0D+00, -1.3D-01,  1.7D+00, r^2= 2.4D+01
   Bfn.  Coefficient  Atom+Function         Bfn.  Coefficient  Atom+Function  
  ----- ------------  ---------------      ----- ------------  ---------------
    84      0.219437   4 B  py               53      0.194501   3 B  s         
   178      0.195394   8 B  s               556      0.181492  23 N  py        
   234     -0.173009  10 B  py              196     -0.160688   8 B  dxy       
   606     -0.160322  25 N  py               71      0.158346   3 B  dxy       
   306      0.158448  13 B  py              731     -0.158610  30 N  py        
 
 Vector  116  Occ=1.000000D+00  E=-5.464678D-01
              MO Center=  5.1D+00, -6.7D-01,  1.7D+00, r^2= 1.9D+01
   Bfn.  Coefficient  Atom+Function         Bfn.  Coefficient  Atom+Function  
  ----- ------------  ---------------      ----- ------------  ---------------
   171      0.354496   7 B  dxy             145      0.264580   6 B  dxx       
   270     -0.261948  11 B  dxx             305     -0.205449  13 B  px        
   681     -0.189284  28 N  py              431      0.176693  18 N  py        
   730      0.167371  30 N  px              148     -0.165888   6 B  dyy       
   329      0.166047  14 B  s               204     -0.164349   9 B  s         
 
 Vector  117  Occ=1.000000D+00  E=-5.449097D-01
              MO Center=  5.0D+00, -3.5D-01,  1.7D+00, r^2= 1.7D+01
   Bfn.  Coefficient  Atom+Function         Bfn.  Coefficient  Atom+Function  
  ----- ------------  ---------------      ----- ------------  ---------------
   998      0.324782  51 C  s               229     -0.242438  10 B  s         
   154      0.239946   7 B  s               554      0.239922  23 N  s         
   973     -0.215689  50 C  s               529     -0.201648  22 N  s         
   632     -0.177965  26 N  pz              457      0.165658  19 N  pz        
   582      0.163813  24 N  pz              563      0.158199  23 N  pz        
 
 Vector  118  Occ=1.000000D+00  E=-5.291034D-01
              MO Center=  5.0D+00,  5.5D+00,  1.7D+00, r^2= 8.5D+00
   Bfn.  Coefficient  Atom+Function         Bfn.  Coefficient  Atom+Function  
  ----- ------------  ---------------      ----- ------------  ---------------
   554      0.317311  23 N  s                81      0.270471   4 B  py        
   481     -0.269529  20 N  py               84      0.245437   4 B  py        
    55      0.183131   3 B  px              180     -0.180606   8 B  px        
   891     -0.175298  43 H  s               918     -0.172813  46 H  s         
    58      0.171172   3 B  px              183     -0.166058   8 B  px        
 
 Vector  119  Occ=1.000000D+00  E=-5.285823D-01
              MO Center=  4.8D+00, -6.9D-01,  2.9D+00, r^2= 1.2D+01
   Bfn.  Coefficient  Atom+Function         Bfn.  Coefficient  Atom+Function  
  ----- ------------  ---------------      ----- ------------  ---------------
   529      0.407498  22 N  s               654     -0.268976  27 N  s         
  1176      0.259392  58 O  pz              254     -0.235565  11 B  s         
   429     -0.208423  18 N  s              1179      0.196187  58 O  pz        
   129      0.160678   6 B  s               407      0.159145  17 N  pz        
   538      0.153018  22 N  pz        
 
 Vector  120  Occ=1.000000D+00  E=-5.260971D-01
              MO Center=  4.9D+00, -1.1D+00,  4.5D+00, r^2= 8.1D+00
   Bfn.  Coefficient  Atom+Function         Bfn.  Coefficient  Atom+Function  
  ----- ------------  ---------------      ----- ------------  ---------------
   973      0.436393  50 C  s              1176     -0.410190  58 O  pz        
   998     -0.340551  51 C  s              1179     -0.311873  58 O  pz        
  1151      0.239854  57 O  pz             1154      0.186307  57 O  pz        
  1001     -0.181354  51 C  pz        
 
 Vector  121  Occ=1.000000D+00  E=-5.201818D-01
[...]
   58 O    8     8.85   2.01  0.81  1.00  0.21  2.79  1.86  0.17  0.01 -0.02
 
  Mulliken analysis of the alpha density
  --------------------------------------

    Atom       Charge   Shell Charges
 -----------   ------   -------------------------------------------------------
    1 B    5     2.91   1.00  0.30  0.31  0.09  0.77  0.29 -0.01  0.12  0.03
    2 B    5     2.97   1.00  0.31  0.29  0.03  0.77  0.37  0.02  0.12  0.07
    3 B    5     2.84   1.00  0.30  0.27  0.04  0.76  0.31 -0.02  0.12  0.06
    4 B    5     3.21   1.00  0.30  0.39  0.01  0.74  0.68  0.04  0.06 -0.01
    5 B    5     1.95   1.00  0.30  0.03  0.02  0.78 -0.25 -0.06  0.20 -0.08
    6 B    5     1.96   1.00  0.30  0.06 -0.04  0.78 -0.20 -0.03  0.21 -0.13
    7 B    5     1.97   1.00  0.30 -0.03 -0.06  0.78 -0.17 -0.05  0.21 -0.02
    8 B    5     2.85   1.00  0.30  0.27  0.04  0.76  0.32 -0.03  0.12  0.06
    9 B    5     1.97   1.00  0.30  0.05 -0.01  0.78 -0.22 -0.03  0.20 -0.11
   10 B    5     2.05   1.00  0.30  0.08  0.05  0.78 -0.20 -0.09  0.22 -0.08
   11 B    5     2.00   1.00  0.30  0.05 -0.03  0.78 -0.18 -0.03  0.21 -0.12
   12 B    5     2.96   1.00  0.31  0.29  0.02  0.77  0.37  0.01  0.12  0.06
   13 B    5     2.08   1.00  0.29  0.06  0.06  0.75 -0.21 -0.00  0.19 -0.06
   14 B    5     1.98   1.00  0.30  0.05 -0.01  0.78 -0.22 -0.03  0.20 -0.10
   15 B    5     1.99   1.00  0.30  0.03  0.01  0.79 -0.22 -0.05  0.20 -0.08
   16 B    5     2.91   1.00  0.30  0.31  0.09  0.77  0.29 -0.00  0.12  0.03
   17 N    7     3.62   1.00  0.36  0.26  0.15  1.22  0.63 -0.00  0.02 -0.03
   18 N    7     3.61   1.00  0.35  0.26  0.23  1.22  0.66 -0.10  0.03 -0.04
   19 N    7     3.58   1.00  0.35  0.26  0.15  1.22  0.65 -0.03  0.03 -0.05
   20 N    7     3.32   1.00  0.35  0.26  0.10  1.22  0.67 -0.26  0.03 -0.06
   21 N    7     3.70   1.00  0.36  0.26  0.18  1.23  0.62  0.05  0.02 -0.03
   22 N    7     3.89   1.00  0.35  0.26  0.13  1.23  0.65  0.27  0.03 -0.03
   23 N    7     3.90   1.00  0.35  0.27  0.16  1.23  0.63  0.27  0.03 -0.04
   24 N    7     3.54   1.00  0.35  0.26  0.13  1.22  0.65 -0.06  0.03 -0.04
   25 N    7     3.71   1.00  0.36  0.26  0.12  1.27  0.64  0.07  0.02 -0.04
   26 N    7     3.82   1.00  0.35  0.27  0.21  1.24  0.66  0.09  0.03 -0.03
   27 N    7     3.79   1.00  0.35  0.26  0.13  1.23  0.64  0.18  0.03 -0.03
   28 N    7     3.64   1.00  0.35  0.26  0.24  1.22  0.66 -0.09  0.03 -0.04
   29 N    7     3.81   1.00  0.40  0.28 -0.04  1.48  0.69  0.04  0.01 -0.05
   30 N    7     3.70   1.00  0.36  0.26  0.12  1.26  0.64  0.07  0.02 -0.04
   31 N    7     3.70   1.00  0.36  0.26  0.18  1.22  0.62  0.06  0.02 -0.03
   32 N    7     3.61   1.00  0.36  0.26  0.15  1.22  0.63 -0.00  0.02 -0.03
   33 H    1     0.64   0.38  0.20  0.03  0.03  0.01
   34 H    1     0.64   0.38  0.21  0.02  0.03  0.01
   35 H    1     0.62   0.37  0.20  0.01  0.03  0.01
   36 H    1     0.46   0.34  0.10 -0.00  0.03 -0.01
   37 H    1     0.46   0.34  0.10 -0.00  0.03 -0.01
   38 H    1     0.63   0.38  0.20  0.01  0.03  0.01
   39 H    1     0.64   0.38  0.21  0.02  0.03  0.01
   40 H    1     0.64   0.38  0.20  0.03  0.03  0.01
   41 H    1     0.20   0.39 -0.16 -0.01  0.01 -0.02
   42 H    1     0.22   0.39 -0.22  0.06  0.01 -0.02
   43 H    1     0.23   0.39 -0.18  0.02  0.01 -0.01
   44 H    1     0.26   0.39 -0.12 -0.01  0.01  0.01
   45 H    1     0.26   0.39 -0.12 -0.01  0.01  0.01
   46 H    1     0.23   0.39 -0.17  0.02  0.01 -0.01
   47 H    1     0.22   0.39 -0.22  0.06  0.01 -0.02
   48 H    1     0.21   0.39 -0.16 -0.01  0.01 -0.02
   49 C    6     1.90   1.00  0.34 -0.10 -0.23  0.86 -0.12 -0.00  0.15 -0.00
   50 C    6     2.40   1.00  0.34 -0.01 -0.16  0.90  0.20  0.06  0.11 -0.05
   51 C    6     2.56   1.00  0.34  0.05 -0.01  0.93  0.12  0.02  0.15 -0.04
   52 F    9     4.81   1.00  0.43  0.56  0.06  1.66  1.05  0.06 -0.00 -0.01
   53 F    9     4.82   1.00  0.43  0.56  0.07  1.66  1.05  0.06 -0.01 -0.01
   54 F    9     4.83   1.00  0.43  0.56  0.07  1.66  1.06  0.06 -0.00 -0.01
   55 F    9     4.86   1.00  0.43  0.56  0.09  1.65  1.09  0.04 -0.00 -0.01
   56 F    9     4.88   1.00  0.43  0.57  0.10  1.65  1.08  0.06 -0.01 -0.01
   57 O    8     4.42   1.00  0.41  0.50  0.11  1.39  0.93  0.08  0.01 -0.01
   58 O    8     4.42   1.00  0.41  0.50  0.11  1.40  0.93  0.08  0.01 -0.01
 
   Mulliken analysis of the beta density
   -------------------------------------

    Atom       Charge   Shell Charges
 -----------   ------   -------------------------------------------------------
    1 B    5     2.91   1.00  0.30  0.31  0.09  0.77  0.29 -0.01  0.12  0.03
    2 B    5     2.97   1.00  0.31  0.29  0.03  0.77  0.37  0.02  0.12  0.07
    3 B    5     2.84   1.00  0.30  0.27  0.04  0.76  0.31 -0.02  0.12  0.06
    4 B    5     3.21   1.00  0.30  0.39  0.01  0.74  0.68  0.04  0.06 -0.01
    5 B    5     1.95   1.00  0.30  0.03  0.02  0.79 -0.25 -0.06  0.20 -0.08
    6 B    5     1.96   1.00  0.30  0.06 -0.04  0.78 -0.20 -0.03  0.21 -0.13
    7 B    5     1.97   1.00  0.30 -0.03 -0.06  0.78 -0.17 -0.05  0.21 -0.02
    8 B    5     2.85   1.00  0.30  0.27  0.04  0.76  0.32 -0.03  0.12  0.06
    9 B    5     1.99   1.00  0.30  0.05 -0.01  0.80 -0.21 -0.03  0.20 -0.11
   10 B    5     2.06   1.00  0.30  0.08  0.05  0.78 -0.20 -0.09  0.21 -0.08
   11 B    5     2.00   1.00  0.30  0.05 -0.03  0.78 -0.18 -0.03  0.21 -0.12
   12 B    5     2.96   1.00  0.31  0.29  0.02  0.77  0.37  0.01  0.12  0.06
   13 B    5     2.27   1.00  0.30  0.06  0.05  0.86 -0.15 -0.00  0.17 -0.04
   14 B    5     2.00   1.00  0.30  0.05 -0.01  0.80 -0.21 -0.02  0.20 -0.10
   15 B    5     1.99   1.00  0.30  0.03  0.01  0.79 -0.22 -0.05  0.20 -0.08
   16 B    5     2.91   1.00  0.30  0.31  0.09  0.77  0.29 -0.00  0.12  0.03
   17 N    7     3.62   1.00  0.36  0.26  0.15  1.22  0.63 -0.00  0.02 -0.03
   18 N    7     3.61   1.00  0.35  0.26  0.23  1.22  0.66 -0.10  0.03 -0.04
   19 N    7     3.58   1.00  0.35  0.26  0.15  1.22  0.65 -0.03  0.03 -0.05
   20 N    7     3.32   1.00  0.35  0.26  0.10  1.22  0.67 -0.26  0.03 -0.06
   21 N    7     3.69   1.00  0.36  0.26  0.18  1.22  0.62  0.05  0.02 -0.03
   22 N    7     3.88   1.00  0.35  0.26  0.13  1.23  0.64  0.27  0.03 -0.03
   23 N    7     3.90   1.00  0.35  0.27  0.16  1.23  0.63  0.27  0.03 -0.04
   24 N    7     3.54   1.00  0.35  0.26  0.13  1.22  0.65 -0.06  0.03 -0.04
   25 N    7     3.57   1.00  0.36  0.26  0.13  1.16  0.59  0.07  0.02 -0.03
   26 N    7     3.77   1.00  0.35  0.27  0.21  1.21  0.64  0.10  0.03 -0.03
   27 N    7     3.79   1.00  0.35  0.26  0.13  1.23  0.64  0.18  0.03 -0.03
   28 N    7     3.64   1.00  0.35  0.26  0.24  1.22  0.66 -0.09  0.03 -0.04
   29 N    7     2.72   1.00  0.36  0.25 -0.03  0.86  0.29  0.01  0.02 -0.04
   30 N    7     3.58   1.00  0.36  0.26  0.13  1.17  0.60  0.07  0.02 -0.03
   31 N    7     3.69   1.00  0.36  0.26  0.18  1.22  0.62  0.05  0.02 -0.03
   32 N    7     3.61   1.00  0.36  0.26  0.15  1.22  0.63 -0.00  0.02 -0.03
   33 H    1     0.64   0.38  0.20  0.03  0.03  0.01
   34 H    1     0.65   0.38  0.21  0.02  0.03  0.01
   35 H    1     0.64   0.38  0.20  0.01  0.03  0.01
   36 H    1     0.53   0.39  0.12  0.00  0.02 -0.00
   37 H    1     0.53   0.39  0.12  0.00  0.02 -0.00
   38 H    1     0.64   0.38  0.20  0.01  0.03  0.01
   39 H    1     0.64   0.38  0.21  0.02  0.03  0.01
   40 H    1     0.64   0.38  0.20  0.03  0.03  0.01
   41 H    1     0.20   0.39 -0.16 -0.01  0.01 -0.02
   42 H    1     0.22   0.39 -0.22  0.06  0.01 -0.02
   43 H    1     0.23   0.39 -0.18  0.02  0.01 -0.01
   44 H    1     0.26   0.39 -0.12 -0.01  0.01  0.01
   45 H    1     0.26   0.39 -0.12 -0.01  0.01  0.01
   46 H    1     0.23   0.39 -0.17  0.02  0.01 -0.01
   47 H    1     0.22   0.39 -0.22  0.06  0.01 -0.02
   48 H    1     0.21   0.39 -0.16 -0.01  0.01 -0.02
   49 C    6     1.90   1.00  0.34 -0.10 -0.23  0.86 -0.12 -0.00  0.15 -0.00
   50 C    6     2.40   1.00  0.34 -0.01 -0.16  0.90  0.20  0.06  0.11 -0.05
   51 C    6     2.56   1.00  0.34  0.05 -0.01  0.93  0.12  0.02  0.15 -0.04
   52 F    9     4.81   1.00  0.43  0.56  0.06  1.66  1.05  0.06 -0.00 -0.01
   53 F    9     4.82   1.00  0.43  0.56  0.07  1.66  1.05  0.06 -0.01 -0.01
   54 F    9     4.83   1.00  0.43  0.56  0.07  1.66  1.06  0.06 -0.00 -0.01
   55 F    9     4.86   1.00  0.43  0.56  0.09  1.65  1.09  0.04 -0.00 -0.01
   56 F    9     4.88   1.00  0.43  0.57  0.10  1.65  1.08  0.06 -0.01 -0.01
   57 O    8     4.42   1.00  0.41  0.50  0.11  1.39  0.93  0.08  0.01 -0.01
   58 O    8     4.42   1.00  0.41  0.50  0.11  1.40  0.93  0.08  0.01 -0.01
 
   Mulliken analysis of the spin density
   -------------------------------------

    Atom       Charge   Shell Charges
 -----------   ------   -------------------------------------------------------
    1 B    5    -0.00   0.00 -0.00 -0.00 -0.00 -0.00 -0.00 -0.00 -0.00 -0.00
    2 B    5    -0.00  -0.00 -0.00 -0.00 -0.00 -0.00 -0.00  0.00  0.00 -0.00
    3 B    5    -0.00  -0.00 -0.00 -0.00 -0.00 -0.00 -0.00  0.00  0.00  0.00
    4 B    5    -0.00  -0.00 -0.00 -0.00 -0.00  0.00 -0.00 -0.00  0.00 -0.00
    5 B    5    -0.00   0.00 -0.00 -0.00  0.00 -0.00 -0.00 -0.00  0.00 -0.00
    6 B    5    -0.00  -0.00 -0.00 -0.00 -0.00 -0.00 -0.00  0.00  0.00 -0.00
    7 B    5    -0.00  -0.00 -0.00 -0.00 -0.00 -0.00 -0.00 -0.00  0.00  0.00
    8 B    5    -0.00  -0.00 -0.00 -0.00 -0.00 -0.00 -0.00  0.00  0.00 -0.00
    9 B    5    -0.02  -0.00 -0.00 -0.00  0.00 -0.02 -0.01 -0.00  0.00  0.00
   10 B    5    -0.01  -0.00 -0.00 -0.00 -0.00 -0.00 -0.00 -0.00  0.00 -0.00
   11 B    5    -0.00  -0.00 -0.00 -0.00 -0.00 -0.00 -0.00  0.00  0.00 -0.00
   12 B    5    -0.00  -0.00 -0.00 -0.00 -0.00 -0.00 -0.00  0.00  0.00 -0.00
   13 B    5    -0.19   0.00 -0.02 -0.00  0.01 -0.11 -0.06 -0.00  0.02 -0.03
   14 B    5    -0.02  -0.00 -0.00 -0.00 -0.00 -0.02 -0.01 -0.00  0.00  0.00
   15 B    5    -0.00   0.00 -0.00 -0.00  0.00 -0.00 -0.00 -0.00  0.00 -0.00
   16 B    5    -0.00   0.00 -0.00 -0.00 -0.00 -0.00 -0.00 -0.00 -0.00 -0.00
   17 N    7    -0.00   0.00  0.00 -0.00 -0.00 -0.00  0.00  0.00 -0.00 -0.00
   18 N    7     0.00  -0.00  0.00  0.00  0.00  0.00  0.00 -0.00 -0.00 -0.00
   19 N    7     0.00  -0.00  0.00  0.00  0.00  0.00  0.00 -0.00 -0.00 -0.00
   20 N    7     0.00  -0.00  0.00  0.00 -0.00  0.00  0.00 -0.00 -0.00 -0.00
   21 N    7     0.01  -0.00  0.00  0.00  0.00  0.00  0.00  0.00 -0.00 -0.00
   22 N    7     0.01  -0.00  0.00  0.00 -0.00  0.00  0.00 -0.00 -0.00 -0.00
   23 N    7     0.00  -0.00  0.00  0.00 -0.00  0.00  0.00 -0.00 -0.00 -0.00
   24 N    7     0.00  -0.00  0.00  0.00  0.00  0.00  0.00 -0.00 -0.00 -0.00
   25 N    7     0.14  -0.00  0.01  0.00 -0.01  0.10  0.05 -0.00 -0.00 -0.01
   26 N    7     0.05  -0.00  0.00  0.00 -0.00  0.03  0.02 -0.00 -0.00 -0.00
   27 N    7     0.00  -0.00  0.00  0.00  0.00  0.00  0.00 -0.00 -0.00 -0.00
   28 N    7     0.00  -0.00  0.00  0.00  0.00  0.00  0.00 -0.00 -0.00 -0.00
   29 N    7     1.09  -0.00  0.04  0.03 -0.01  0.63  0.40  0.03 -0.01 -0.01
   30 N    7     0.12  -0.00  0.01  0.00 -0.01  0.08  0.04 -0.00 -0.00 -0.01
   31 N    7     0.01  -0.00  0.00  0.00  0.00  0.00  0.00  0.00 -0.00 -0.00
   32 N    7    -0.00   0.00 -0.00 -0.00 -0.00 -0.00  0.00 -0.00 -0.00 -0.00
   33 H    1     0.00  -0.00  0.00  0.00 -0.00  0.00
   34 H    1    -0.00  -0.00 -0.00  0.00  0.00 -0.00
   35 H    1    -0.02  -0.01 -0.01 -0.00  0.00 -0.00
   36 H    1    -0.07  -0.05 -0.03 -0.00  0.01 -0.01
   37 H    1    -0.07  -0.05 -0.03 -0.00  0.01 -0.01
   38 H    1    -0.01  -0.01 -0.00 -0.00  0.00 -0.00
   39 H    1    -0.00  -0.00 -0.00  0.00  0.00  0.00
   40 H    1     0.00   0.00  0.00  0.00 -0.00  0.00
   41 H    1     0.00   0.00  0.00 -0.00 -0.00 -0.00
   42 H    1     0.00   0.00  0.00 -0.00 -0.00 -0.00
   43 H    1     0.00   0.00  0.00  0.00 -0.00  0.00
   44 H    1     0.00  -0.00  0.00  0.00  0.00  0.00
   45 H    1     0.00  -0.00  0.00  0.00  0.00  0.00
   46 H    1     0.00   0.00  0.00  0.00 -0.00  0.00
   47 H    1     0.00   0.00  0.00 -0.00 -0.00 -0.00
   48 H    1     0.00   0.00  0.00 -0.00 -0.00 -0.00
   49 C    6    -0.00  -0.00 -0.00  0.00 -0.00 -0.00  0.00 -0.00  0.00  0.00
   50 C    6     0.00   0.00  0.00 -0.00  0.00  0.00  0.00 -0.00 -0.00 -0.00
   51 C    6    -0.00   0.00 -0.00  0.00 -0.00 -0.00 -0.00  0.00  0.00 -0.00
   52 F    9     0.00  -0.00 -0.00  0.00  0.00 -0.00  0.00 -0.00 -0.00  0.00
   53 F    9    -0.00  -0.00 -0.00  0.00 -0.00 -0.00 -0.00 -0.00  0.00  0.00
   54 F    9    -0.00  -0.00 -0.00  0.00 -0.00 -0.00  0.00 -0.00  0.00  0.00
   55 F    9    -0.00  -0.00 -0.00  0.00  0.00 -0.00  0.00 -0.00  0.00  0.00
   56 F    9    -0.00   0.00  0.00 -0.00 -0.00  0.00 -0.00 -0.00  0.00 -0.00
   57 O    8     0.00  -0.00  0.00  0.00  0.00  0.00  0.00 -0.00 -0.00 -0.00
   58 O    8    -0.00  -0.00  0.00  0.00  0.00  0.00  0.00 -0.00 -0.00 -0.00
 
       Multipole analysis of the density wrt the origin
       ------------------------------------------------
 
     L   x y z        total         alpha         beta         nuclear
     -   - - -        -----         -----         ----         -------
     0   0 0 0      0.000000   -144.000000   -143.000000    287.000000
 
     1   1 0 0      0.967579  -1349.399466  -1339.989654   2690.356699
     1   0 1 0    -11.825334      1.275945    -11.600668     -1.500611
     1   0 0 1     -6.846435   -837.210087   -834.051962   1664.415614
 
     2   2 0 0   -151.561637 -14496.144315 -14406.576157  28751.158835
     2   1 1 0   -113.113449     -2.679614   -124.096676     13.662841
     2   1 0 1    -54.325875  -7772.205860  -7742.491446  15460.371430
     2   0 2 0    -35.801977  -5286.487326  -5115.516974  10366.202323
     2   0 1 1    -26.127840   -295.474653   -336.094229    605.441042
     2   0 0 2   -280.995895  -7823.771007  -7812.873240  15355.648352
 
                         NWChem Constraints Module
                         -------------------------
 Summary
 -------
 fixed atoms                  :  33    34    35    36
                                 37    38    39    40
                                 41    42    43    44
                                 45    46    47    48


 Total energy with constraints        :   -2037.818838
 Energy contribution from constraints :       0.000000
 Total energy without constraints     :   -2037.818838
 --------------------------------------

 Task  times  cpu:     1388.0s     wall:     1381.9s
 
 
                                NWChem Input Module
                                -------------------
 
 
                         NWChem Constraints Module
                         -------------------------
 General Information
 -------------------
 fixed atoms                  :  33    34    35    36
                                 37    38    39    40
                                 41    42    43    44
                                 45    46    47    48


 no springs found
 no bondings springs found
 no dihedral springs found
                           Electron Transfer Calculation
                           -----------------------------
 
 MO vectors for reactants: reactant.movecs
 MO vectors for products : product.movecs
 
 Electronic energy of reactants     H(RR)   -6769.1407898553
 Electronic energy of products      H(PP)   -6769.2486076793
 
 Reactants/Products overlap S(RP) : -1.58D-03
 
 Reactants/Products interaction energy:    
 -------------------------------------           
 One-electron contribution         H1(RP)      19.3020893082
 
 Beginning calculation of 2e contribution
 Two-electron integral screening (tol2e) : 1.58D-10
 
 Two-electron contribution         H2(RP)      -8.6135871745
 Total interaction energy           H(RP)      10.6885021337
 
 Electron Transfer Coupling Energy |V(RP)|      0.0001416546
                                                      31.090 cm-1
                                                    0.003855 eV
                                                       0.089 kcal/mol
 
                         NWChem Constraints Module
                         -------------------------
 Summary
 -------
 fixed atoms                  :  33    34    35    36
                                 37    38    39    40
                                 41    42    43    44
                                 45    46    47    48



 Task  times  cpu:       73.1s     wall:       72.4s
 
 
                                NWChem Input Module
                                -------------------
 
 
 Summary of allocated global arrays
-----------------------------------
  No active global arrays



                         GA Statistics for process    0
                         ------------------------------

       create   destroy   get      put      acc     scatter   gather  read&inc
calls: 5523     5523     1.29e+05 2.22e+04 9.91e+04  584        0     3500     
number of processes/call 4.03e+00 1.90e+01 2.18e+00 0.00e+00 0.00e+00
bytes total:             1.18e+10 7.67e+09 1.95e+09 3.60e+02 0.00e+00 2.80e+04
bytes remote:            1.14e+10 7.52e+09 1.79e+09 -2.88e+03 0.00e+00 0.00e+00
Max memory consumed for GA by this process: 784920 bytes
 
MA_summarize_allocated_blocks: starting scan ...
MA_summarize_allocated_blocks: scan completed: 0 heap blocks, 0 stack blocks
MA usage statistics:

	allocation statistics:
					      heap	     stack
					      ----	     -----
	current number of blocks	         0	         0
	maximum number of blocks	        16	        15
	current total bytes		         0	         0
	maximum total bytes		    265944	 127323272
	maximum total K-bytes		       266	    127324
	maximum total M-bytes		         1	       128
 
 
                                     CITATION
                                     --------
                Please cite the following reference when publishing
                           results obtained with NWChem:
 
                 M. Valiev, E.J. Bylaska, N. Govind, K. Kowalski,
              T.P. Straatsma, H.J.J. van Dam, D. Wang, J. Nieplocha,
                        E. Apra, T.L. Windus, W.A. de Jong
                 "NWChem: a comprehensive and scalable open-source
                  solution for large scale molecular simulations"
                      Comput. Phys. Commun. 181, 1477 (2010)
                           doi:10.1016/j.cpc.2010.04.018
 
                                      AUTHORS
                                      -------
          E. Apra, E. J. Bylaska, W. A. de Jong, N. Govind, K. Kowalski,
       T. P. Straatsma, M. Valiev, H. J. J. van Dam, D. Wang, T. L. Windus,
        J. Hammond, J. Autschbach, K. Bhaskaran-Nair, J. Brabec, K. Lopata,
    S. A. Fischer, S. Krishnamoorthy, M. Jacquelin, W. Ma, M. Klemm, O. Villa,
      Y. Chen, V. Anisimov, F. Aquino, S. Hirata, M. T. Hackler, V. Konjkov,
            D. Mejia-Rodriguez, T. Risthaus, M. Malagoli, A. Marenich,
   A. Otero-de-la-Roza, J. Mullin, P. Nichols, R. Peverati, J. Pittner, Y. Zhao,
        P.-D. Fan, A. Fonari, M. J. Williamson, R. J. Harrison, J. R. Rehr,
      M. Dupuis, D. Silverstein, D. M. A. Smith, J. Nieplocha, V. Tipparaju,
    M. Krishnan, B. E. Van Kuiken, A. Vazquez-Mayagoitia, L. Jensen, M. Swart,
      Q. Wu, T. Van Voorhis, A. A. Auer, M. Nooijen, L. D. Crosby, E. Brown,
      G. Cisneros, G. I. Fann, H. Fruchtl, J. Garza, K. Hirao, R. A. Kendall,
      J. A. Nichols, K. Tsemekhman, K. Wolinski, J. Anchell, D. E. Bernholdt,
      P. Borowski, T. Clark, D. Clerc, H. Dachsel, M. J. O. Deegan, K. Dyall,
    D. Elwood, E. Glendening, M. Gutowski, A. C. Hess, J. Jaffe, B. G. Johnson,
     J. Ju, R. Kobayashi, R. Kutteh, Z. Lin, R. Littlefield, X. Long, B. Meng,
      T. Nakajima, S. Niu, L. Pollack, M. Rosing, K. Glaesemann, G. Sandrone,
      M. Stave, H. Taylor, G. Thomas, J. H. van Lenthe, A. T. Wong, Z. Zhang.

 Total times  cpu:     5135.9s     wall:     5191.9s
Job finished on bc10u7n1 at Thu Mar  3 17:44:07 CST 2022
