Job started on bc4u21n1 at Wed Jan  5 18:21:14 CST 2022
 argument  1 = mol.nw
 


============================== echo of input deck ==============================
echo
start mol
title "mol"

geometry nocenter noautosym noautoz
  load mol.xyz
end

charge 0

basis noprint
  * library aug-cc-pVDZ
end

scf
  tol2e 1d-9
  uhf
  doublet
  vectors output PFCA_q0.movecs
end

task scf
================================================================================


                                         
                                         
 
 
              Northwest Computational Chemistry Package (NWChem) 6.8
              ------------------------------------------------------
 
 
                    Environmental Molecular Sciences Laboratory
                       Pacific Northwest National Laboratory
                                Richland, WA 99352
 
                              Copyright (c) 1994-2017
                       Pacific Northwest National Laboratory
                            Battelle Memorial Institute
 
             NWChem is an open-source computational chemistry package
                        distributed under the terms of the
                      Educational Community License (ECL) 2.0
             A copy of the license is included with this distribution
                              in the LICENSE.TXT file
 
                                  ACKNOWLEDGMENT
                                  --------------

            This software and its documentation were developed at the
            EMSL at Pacific Northwest National Laboratory, a multiprogram
            national laboratory, operated for the U.S. Department of Energy
            by Battelle under Contract Number DE-AC05-76RL01830. Support
            for this work was provided by the Department of Energy Office
            of Biological and Environmental Research, Office of Basic
            Energy Sciences, and the Office of Advanced Scientific Computing.


           Job information
           ---------------

    hostname        = bc4u21n1
    program         = /opt/apps/software/MPI/intel/2019.3.199-GCC-8.3.0/impi/2019.4.243/NWChem/6.8.revision47/bin/nwchem
    date            = Wed Jan  5 18:21:17 2022

    compiled        = Sat Jan 11 14:38:06 CST 2020
    source          = /tmp/eb-_UtWhd/tmp6zSplu-NWChem-6.8.revision47
    nwchem branch   = 6.8
    nwchem revision = v6.8-47-gdf6c956
    ga revision     = ga-5.6.3
    use scalapack   = T
    input           = mol.nw
    prefix          = mol.
    data base       = ./mol.db
    status          = startup
    nproc           =      184
    time left       =     -1s



           Memory information
           ------------------

    heap     =  130136320 doubles =    992.9 Mbytes
    stack    =  130136317 doubles =    992.9 Mbytes
    global   =  260272640 doubles =   1985.7 Mbytes (distinct from heap & stack)
    total    =  520545277 doubles =   3971.4 Mbytes
    verify   = yes
    hardfail = no 


           Directory information
           ---------------------
 
  0 permanent = .
  0 scratch   = .
 
 
 
 
                                NWChem Input Module
                                -------------------
 
 
                                        mol
                                        ---

 Scaling coordinates for geometry "geometry" by  1.889725989
 (inverse scale =  0.529177249)

 
 
                             Geometry "geometry" -> ""
                             -------------------------
 
 Output coordinates in angstroms (scale by  1.889725989 to convert to a.u.)
 
  No.       Tag          Charge          X              Y              Z
 ---- ---------------- ---------- -------------- -------------- --------------
    1 C                    6.0000    10.07342542     8.58187654     9.53951937
    2 C                    6.0000    10.05722965     9.84839909    10.44705776
    3 C                    6.0000    10.02390395    11.16994943     9.65116574
    4 F                    9.0000    11.08304547     8.65689104     8.65597063
    5 F                    9.0000    10.23545147     7.48603479    10.29425738
    6 F                    9.0000     8.91797805     8.48155014     8.86506537
    7 F                    9.0000     8.96577751     9.78506450    11.24580842
    8 F                    9.0000    11.17730861     9.83604454    11.20977784
    9 O                    8.0000    11.06267346    11.80504504     9.35078775
   10 O                    8.0000     8.96320442    11.69571888     9.24036373
 
      Atomic Mass 
      ----------- 
 
      C                 12.000000
      F                 18.998400
      O                 15.994910
 

 Effective nuclear repulsion energy (a.u.)     616.5679752462

            Nuclear Dipole moment (a.u.) 
            ----------------------------
        X                 Y               Z
 ---------------- ---------------- ----------------
  1501.4825914227  1443.4062088910  1472.0844240612
 
 
            XYZ format geometry
            -------------------
    10
 geometry
 C                    10.07342542     8.58187654     9.53951937
 C                    10.05722965     9.84839909    10.44705776
 C                    10.02390395    11.16994943     9.65116574
 F                    11.08304547     8.65689104     8.65597063
 F                    10.23545147     7.48603479    10.29425738
 F                     8.91797805     8.48155014     8.86506537
 F                     8.96577751     9.78506450    11.24580842
 F                    11.17730861     9.83604454    11.20977784
 O                    11.06267346    11.80504504     9.35078775
 O                     8.96320442    11.69571888     9.24036373
 
 ==============================================================================
                                internuclear distances
 ------------------------------------------------------------------------------
       center one      |      center two      | atomic units |  angstroms
 ------------------------------------------------------------------------------
    2 C                |   1 C                |     2.94456  |     1.55819
    3 C                |   2 C                |     2.91597  |     1.54307
    4 F                |   1 C                |     2.53929  |     1.34373
    5 F                |   1 C                |     2.53304  |     1.34043
    6 F                |   1 C                |     2.53534  |     1.34165
    7 F                |   2 C                |     2.55867  |     1.35399
    8 F                |   2 C                |     2.56089  |     1.35516
    9 O                |   3 C                |     2.36979  |     1.25404
   10 O                |   3 C                |     2.36803  |     1.25311
 ------------------------------------------------------------------------------
                         number of included internuclear distances:          9
 ==============================================================================



 ==============================================================================
                                 internuclear angles
 ------------------------------------------------------------------------------
        center 1       |       center 2       |       center 3       |  degrees
 ------------------------------------------------------------------------------
    2 C                |   1 C                |   4 F                |   110.21
    2 C                |   1 C                |   5 F                |   109.74
    2 C                |   1 C                |   6 F                |   110.16
    4 F                |   1 C                |   5 F                |   108.97
    4 F                |   1 C                |   6 F                |   108.71
    5 F                |   1 C                |   6 F                |   109.03
    1 C                |   2 C                |   3 C                |   113.32
    1 C                |   2 C                |   7 F                |   108.30
    1 C                |   2 C                |   8 F                |   108.17
    3 C                |   2 C                |   7 F                |   109.08
    3 C                |   2 C                |   8 F                |   108.42
    7 F                |   2 C                |   8 F                |   109.50
    2 C                |   3 C                |   9 O                |   122.64
    2 C                |   3 C                |  10 O                |   123.14
    9 O                |   3 C                |  10 O                |   114.21
 ------------------------------------------------------------------------------
                            number of included internuclear angles:         15
 ==============================================================================



  library name resolved from: environment
  library file name is: <
 /opt/apps/software/MPI/intel/2019.3.199-GCC-8.3.0/impi/2019.4.243/NWChem/6.8.re
 vision47/data/libraries/>
  
                                 NWChem SCF Module
                                 -----------------
 
 
                                        mol
 
 

  ao basis        = "ao basis"
  functions       =   250
  atoms           =    10
  alpha electrons =    40
  beta  electrons =    39
  charge          =   0.00
  wavefunction    = UHF 
  input vectors   = atomic
  output vectors  = ./PFCA_q0.movecs
  use symmetry    = F
  symmetry adapt  = F


 Summary of "ao basis" -> "ao basis" (cartesian)
 ------------------------------------------------------------------------------
       Tag                 Description            Shells   Functions and Types
 ---------------- ------------------------------  ------  ---------------------
 C                        aug-cc-pVDZ                9       25   4s3p2d
 F                        aug-cc-pVDZ                9       25   4s3p2d
 O                        aug-cc-pVDZ                9       25   4s3p2d



 Forming initial guess at       0.3s

 
      Superposition of Atomic Density Guess
      -------------------------------------
 
 Sum of atomic energies:        -759.47761771
 
      Non-variational initial energy
      ------------------------------

 Total energy =    -762.591704
 1-e energy   =   -2282.660029
 2-e energy   =     903.500349
 HOMO         =      -0.333627
 LUMO         =       0.010586
 

 Starting SCF solution at       0.8s



 ----------------------------------------------
         Quadratically convergent UHF

 Convergence threshold     :          1.000E-04
 Maximum no. of iterations :           30
 Integral*density screening:          1.000E-09
 ----------------------------------------------


              iter       energy          gnorm     gmax       time
             ----- ------------------- --------- --------- --------
                 1     -759.8881910955  2.16D+00  2.99D-01      1.7
  Setting level-shift to   2.23 to force positive preconditioner
                 2     -760.3657999039  5.04D-01  1.57D-01      3.1
                 3     -760.4350039041  3.99D-01  5.17D-02      4.5
                 4     -760.4705667664  1.61D-01  2.10D-02      8.9
  ga_iter_lsolve: convergence stagnant ... aborting solve

 Disabled NR: increased maxiter to  40

                 5     -760.4736875547  5.22D-02  1.00D-02     12.7
                 6     -760.4746977978  7.08D-02  1.82D-02     14.0
                 7     -760.4935676496  3.38D-01  9.81D-02     18.5
                 8     -760.4946690984  3.75D-01  9.07D-02     24.4
                 9     -760.5426423909  2.59D-01  4.28D-02     26.4
                10     -760.5557564296  1.28D-01  3.21D-02     27.1
                11     -760.5596694998  7.67D-02  1.04D-02     28.4
                12     -760.5605269155  3.15D-02  5.33D-03     29.1
                13     -760.5607970809  2.32D-02  4.00D-03     30.4
                14     -760.5609286621  1.76D-02  3.73D-03     31.7
                15     -760.5610476927  1.59D-02  3.21D-03     33.0
                16     -760.5611419867  1.75D-02  2.15D-03     34.3
                17     -760.5612127915  1.38D-02  1.92D-03     35.7
                18     -760.5612619963  9.85D-03  2.15D-03     37.0
                19     -760.5612829647  6.92D-03  1.18D-03     38.3
                20     -760.5612963024  5.28D-03  9.57D-04     39.6
                21     -760.5613040443  4.29D-03  7.36D-04     40.9
                22     -760.5613090989  3.53D-03  5.66D-04     42.2
                23     -760.5613139844  4.01D-03  6.74D-04     43.5
                24     -760.5613197867  3.97D-03  5.44D-04     44.8
                25     -760.5613232065  2.56D-03  4.42D-04     46.1
                26     -760.5613243354  1.26D-03  1.66D-04     46.8
                27     -760.5613247103  8.90D-04  1.57D-04     48.1
                28     -760.5613248371  4.21D-04  5.56D-05     48.8
                29     -760.5613248774  3.33D-04  4.50D-05     50.1
                30     -760.5613248993  2.53D-04  4.62D-05     51.4
                31     -760.5613249174  2.62D-04  3.48D-05     52.6
                32     -760.5613249302  1.89D-04  3.08D-05     53.9
                33     -760.5613249377  1.55D-04  2.00D-05     55.2
                34     -760.5613249423  1.02D-04  9.70D-06     56.5
                35     -760.5613249440  5.69D-05  7.26D-06     57.8


       Final UHF  results 
       ------------------ 

         Total SCF energy =   -760.561324943957
      One electron energy =  -2280.841514561408
      Two electron energy =    903.712214371295
 Nuclear repulsion energy =    616.567975246156

                       Sz =      0.5000
                 Sz(Sz+1) =      0.7500
                      S^2 =      0.7623

        Time for solution =     57.5s


          Final alpha eigenvalues
          -----------------------

              1      
    1  -26.4031
    2  -26.4011
    3  -26.3979
    4  -26.3958
    5  -26.3953
    6  -20.7564
    7  -20.6144
    8  -11.5809
    9  -11.5264
   10  -11.4653
   11   -1.7845
   12   -1.7423
   13   -1.6917
   14   -1.6874
   15   -1.6793
   16   -1.6011
   17   -1.4048
   18   -1.1303
   19   -1.0094
   20   -0.9256
   21   -0.8887
   22   -0.8782
   23   -0.8676
   24   -0.8529
   25   -0.8315
   26   -0.7789
   27   -0.7653
   28   -0.7526
   29   -0.7522
   30   -0.7418
   31   -0.7346
   32   -0.7175
   33   -0.7097
   34   -0.7074
   35   -0.6987
   36   -0.6933
   37   -0.6520
   38   -0.6017
   39   -0.5218
   40   -0.5188
   41    0.0588
   42    0.0676
   43    0.0720
   44    0.0847
   45    0.0887
   46    0.1074
   47    0.1089
   48    0.1119
   49    0.1235
   50    0.1309
 
          Final beta eigenvalues
          ----------------------

              1      
    1  -26.4031
    2  -26.4012
    3  -26.3978
    4  -26.3958
    5  -26.3950
    6  -20.7151
    7  -20.6108
    8  -11.5809
    9  -11.5255
   10  -11.4682
   11   -1.7844
   12   -1.7418
   13   -1.6916
   14   -1.6873
   15   -1.6790
   16   -1.5034
   17   -1.3544
   18   -1.1258
   19   -1.0025
   20   -0.9167
   21   -0.8872
   22   -0.8780
   23   -0.8605
   24   -0.8304
   25   -0.7991
   26   -0.7650
   27   -0.7521
   28   -0.7515
   29   -0.7409
   30   -0.7172
   31   -0.7134
   32   -0.7072
   33   -0.6985
   34   -0.6939
   35   -0.6919
   36   -0.6703
   37   -0.6134
   38   -0.5098
   39   -0.4983
   40   -0.0041
   41    0.0599
   42    0.0679
   43    0.0733
   44    0.0881
   45    0.0907
   46    0.1075
   47    0.1092
   48    0.1142
   49    0.1237
   50    0.1322
 
                    UHF Final Alpha Molecular Orbital Analysis
                    ------------------------------------------
 
 Vector   17  Occ=1.000000D+00  E=-1.404804D+00
              MO Center=  9.4D+00,  1.2D+01,  9.4D+00, r^2= 9.1D-01
   Bfn.  Coefficient  Atom+Function         Bfn.  Coefficient  Atom+Function  
  ----- ------------  ---------------      ----- ------------  ---------------
   228      0.404433  10 O  s               227      0.384660  10 O  s         
    55     -0.221028   3 C  px              203     -0.207985   9 O  s         
   202     -0.182904   9 O  s         
 
 Vector   18  Occ=1.000000D+00  E=-1.130252D+00
              MO Center=  1.0D+01,  9.5D+00,  1.0D+01, r^2= 2.2D+00
   Bfn.  Coefficient  Atom+Function         Bfn.  Coefficient  Atom+Function  
  ----- ------------  ---------------      ----- ------------  ---------------
    27      0.300914   2 C  s                29     -0.227939   2 C  s         
     2      0.213759   1 C  s                54      0.174150   3 C  s         
   178     -0.150197   8 F  s         
 
 Vector   19  Occ=1.000000D+00  E=-1.009443D+00
              MO Center=  1.0D+01,  9.2D+00,  9.8D+00, r^2= 3.4D+00
   Bfn.  Coefficient  Atom+Function         Bfn.  Coefficient  Atom+Function  
  ----- ------------  ---------------      ----- ------------  ---------------
     2      0.266872   1 C  s                31     -0.193351   2 C  py        
    28     -0.189096   2 C  s                 4     -0.187543   1 C  s         
    34     -0.173417   2 C  py              106      0.173283   5 F  py        
    54      0.160758   3 C  s               130      0.161076   6 F  px        
 
 Vector   20  Occ=1.000000D+00  E=-9.256060D-01
              MO Center=  1.0D+01,  9.5D+00,  9.9D+00, r^2= 3.6D+00
   Bfn.  Coefficient  Atom+Function         Bfn.  Coefficient  Atom+Function  
  ----- ------------  ---------------      ----- ------------  ---------------
    31      0.219719   2 C  py               80     -0.191146   4 F  px        
     7     -0.189660   1 C  pz              130      0.185697   6 F  px        
    34      0.162442   2 C  py              107     -0.162702   5 F  pz        
    28     -0.158515   2 C  s               181      0.155289   8 F  py        
 
 Vector   21  Occ=1.000000D+00  E=-8.887328D-01
              MO Center=  1.0D+01,  9.2D+00,  1.0D+01, r^2= 3.1D+00
   Bfn.  Coefficient  Atom+Function         Bfn.  Coefficient  Atom+Function  
  ----- ------------  ---------------      ----- ------------  ---------------
    28      0.301921   2 C  s               180      0.269781   8 F  px        
   155     -0.262208   7 F  px               32     -0.233292   2 C  pz        
     6      0.218643   1 C  py              107      0.197367   5 F  pz        
    81      0.190211   4 F  py              183      0.182307   8 F  px        
   131      0.175515   6 F  py              158     -0.175220   7 F  px        
 
 Vector   22  Occ=1.000000D+00  E=-8.782345D-01
              MO Center=  1.0D+01,  8.7D+00,  9.5D+00, r^2= 2.7D+00
   Bfn.  Coefficient  Atom+Function         Bfn.  Coefficient  Atom+Function  
  ----- ------------  ---------------      ----- ------------  ---------------
     5      0.293721   1 C  px               82      0.283523   4 F  pz        
   132     -0.238118   6 F  pz              105      0.223134   5 F  px        
   130     -0.216796   6 F  px               85      0.180419   4 F  pz        
   108      0.153068   5 F  px              128      0.152269   6 F  s         
   135     -0.150303   6 F  pz        
 
 Vector   23  Occ=1.000000D+00  E=-8.676092D-01
              MO Center=  1.0D+01,  9.3D+00,  9.5D+00, r^2= 4.5D+00
   Bfn.  Coefficient  Atom+Function         Bfn.  Coefficient  Atom+Function  
  ----- ------------  ---------------      ----- ------------  ---------------
    80      0.255980   4 F  px              106      0.253014   5 F  py        
    53      0.249212   3 C  s               205     -0.233478   9 O  px        
     7      0.218346   1 C  pz              203     -0.185013   9 O  s         
    83      0.164214   4 F  px              109      0.158822   5 F  py        
   130     -0.155021   6 F  px        
 
 Vector   24  Occ=1.000000D+00  E=-8.528815D-01
              MO Center=  1.1D+01,  1.1D+01,  9.7D+00, r^2= 3.7D+00
   Bfn.  Coefficient  Atom+Function         Bfn.  Coefficient  Atom+Function  
  ----- ------------  ---------------      ----- ------------  ---------------
   205      0.434288   9 O  px              208      0.238814   9 O  px        
   203      0.194294   9 O  s                56     -0.178680   3 C  py        
   228      0.166986  10 O  s         
 
 Vector   25  Occ=1.000000D+00  E=-8.314984D-01
              MO Center=  1.0D+01,  9.7D+00,  1.1D+01, r^2= 3.0D+00
   Bfn.  Coefficient  Atom+Function         Bfn.  Coefficient  Atom+Function  
  ----- ------------  ---------------      ----- ------------  ---------------
   157      0.296562   7 F  pz              182     -0.284937   8 F  pz        
    30      0.281406   2 C  px              180     -0.203663   8 F  px        
   160      0.192158   7 F  pz              185     -0.185320   8 F  pz        
   155     -0.154219   7 F  px        
 
 Vector   26  Occ=1.000000D+00  E=-7.789124D-01
              MO Center=  1.0D+01,  1.1D+01,  9.9D+00, r^2= 3.5D+00
   Bfn.  Coefficient  Atom+Function         Bfn.  Coefficient  Atom+Function  
  ----- ------------  ---------------      ----- ------------  ---------------
   206      0.408712   9 O  py              209      0.276279   9 O  py        
   207     -0.263647   9 O  pz               53      0.231554   3 C  s         
   182     -0.212931   8 F  pz              156      0.201481   7 F  py        
   210     -0.177522   9 O  pz              155     -0.158895   7 F  px        
   228     -0.157586  10 O  s                55     -0.155205   3 C  px        
 
 Vector   27  Occ=1.000000D+00  E=-7.652974D-01
              MO Center=  1.0D+01,  9.2D+00,  1.0D+01, r^2= 3.4D+00
   Bfn.  Coefficient  Atom+Function         Bfn.  Coefficient  Atom+Function  
  ----- ------------  ---------------      ----- ------------  ---------------
    34      0.539203   2 C  py                3      0.469664   1 C  s         
    53     -0.333968   3 C  s                 9      0.314570   1 C  py        
    81     -0.288563   4 F  py               10      0.259334   1 C  pz        
    59      0.259777   3 C  py              181     -0.253037   8 F  py        
   182     -0.244634   8 F  pz               49     -0.227777   2 C  dyz       
 
 Vector   28  Occ=1.000000D+00  E=-7.526484D-01
              MO Center=  1.0D+01,  8.5D+00,  9.3D+00, r^2= 2.7D+00
   Bfn.  Coefficient  Atom+Function         Bfn.  Coefficient  Atom+Function  
  ----- ------------  ---------------      ----- ------------  ---------------
   131      0.392844   6 F  py               81     -0.313631   4 F  py        
   105      0.291001   5 F  px              134      0.277906   6 F  py        
    84     -0.222292   4 F  py              108      0.201162   5 F  px        
 
 Vector   29  Occ=1.000000D+00  E=-7.521581D-01
              MO Center=  1.0D+01,  8.6D+00,  9.6D+00, r^2= 3.3D+00
   Bfn.  Coefficient  Atom+Function         Bfn.  Coefficient  Atom+Function  
  ----- ------------  ---------------      ----- ------------  ---------------
   106      0.327446   5 F  py               82     -0.293581   4 F  pz        
   132     -0.294668   6 F  pz              109      0.223976   5 F  py        
   135     -0.204164   6 F  pz               85     -0.202943   4 F  pz        
   156      0.183552   7 F  py               29      0.174986   2 C  s         
   107      0.168549   5 F  pz              181     -0.151911   8 F  py        
 
 Vector   30  Occ=1.000000D+00  E=-7.418262D-01
              MO Center=  1.0D+01,  1.0D+01,  1.0D+01, r^2= 3.9D+00
   Bfn.  Coefficient  Atom+Function         Bfn.  Coefficient  Atom+Function  
  ----- ------------  ---------------      ----- ------------  ---------------
   181      0.348967   8 F  py              184      0.256700   8 F  py        
   156     -0.227804   7 F  py              207      0.210039   9 O  pz        
   206      0.179370   9 O  py              157     -0.170748   7 F  pz        
   159     -0.171357   7 F  py               80     -0.161445   4 F  px        
    46     -0.159953   2 C  dxy       
 
 Vector   31  Occ=1.000000D+00  E=-7.345725D-01
              MO Center=  1.0D+01,  1.1D+01,  1.0D+01, r^2= 3.6D+00
   Bfn.  Coefficient  Atom+Function         Bfn.  Coefficient  Atom+Function  
  ----- ------------  ---------------      ----- ------------  ---------------
   207      0.385503   9 O  pz              181     -0.311285   8 F  py        
   210      0.264716   9 O  pz              184     -0.232738   8 F  py        
   156      0.231058   7 F  py              159      0.169548   7 F  py        
    46      0.163499   2 C  dxy              57      0.155398   3 C  pz        
 
 Vector   32  Occ=1.000000D+00  E=-7.175213D-01
              MO Center=  9.9D+00,  1.0D+01,  1.0D+01, r^2= 4.4D+00
   Bfn.  Coefficient  Atom+Function         Bfn.  Coefficient  Atom+Function  
  ----- ------------  ---------------      ----- ------------  ---------------
    34      0.269041   2 C  py              156     -0.219843   7 F  py        
   182      0.217146   8 F  pz               55     -0.187305   3 C  px        
    81     -0.180828   4 F  py               53     -0.179002   3 C  s         
   228     -0.169064  10 O  s                28      0.166979   2 C  s         
   159     -0.163954   7 F  py              180     -0.162445   8 F  px        
 
 Vector   33  Occ=1.000000D+00  E=-7.096869D-01
              MO Center=  9.7D+00,  9.3D+00,  9.8D+00, r^2= 4.0D+00
   Bfn.  Coefficient  Atom+Function         Bfn.  Coefficient  Atom+Function  
  ----- ------------  ---------------      ----- ------------  ---------------
   130      0.274566   6 F  px               80      0.263988   4 F  px        
   156     -0.212425   7 F  py              157      0.196086   7 F  pz        
   155      0.194049   7 F  px               83      0.181143   4 F  px        
   133      0.179833   6 F  px              180      0.170267   8 F  px        
   131     -0.168832   6 F  py              159     -0.157580   7 F  py        
 
 Vector   34  Occ=1.000000D+00  E=-7.074487D-01
              MO Center=  1.0D+01,  8.6D+00,  9.7D+00, r^2= 3.5D+00
   Bfn.  Coefficient  Atom+Function         Bfn.  Coefficient  Atom+Function  
  ----- ------------  ---------------      ----- ------------  ---------------
   107      0.442055   5 F  pz               81     -0.301900   4 F  py        
   110      0.300887   5 F  pz               84     -0.215597   4 F  py        
   131     -0.184231   6 F  py               82      0.163330   4 F  pz        
   132      0.159409   6 F  pz        
 
 Vector   35  Occ=1.000000D+00  E=-6.986621D-01
              MO Center=  9.9D+00,  9.0D+00,  1.0D+01, r^2= 3.3D+00
   Bfn.  Coefficient  Atom+Function         Bfn.  Coefficient  Atom+Function  
  ----- ------------  ---------------      ----- ------------  ---------------
   105      0.312622   5 F  px              155     -0.292253   7 F  px        
   180     -0.262973   8 F  px              131     -0.257985   6 F  py        
   157     -0.237601   7 F  pz              108      0.217689   5 F  px        
   158     -0.200274   7 F  px              182      0.195988   8 F  pz        
   183     -0.183405   8 F  px              134     -0.180868   6 F  py        
 
 Vector   36  Occ=1.000000D+00  E=-6.933109D-01
              MO Center=  9.9D+00,  8.5D+00,  9.5D+00, r^2= 2.8D+00
   Bfn.  Coefficient  Atom+Function         Bfn.  Coefficient  Atom+Function  
  ----- ------------  ---------------      ----- ------------  ---------------
   105      0.337245   5 F  px              132      0.333945   6 F  pz        
    80     -0.248403   4 F  px              108      0.234245   5 F  px        
   135      0.232231   6 F  pz               82     -0.227600   4 F  pz        
   130     -0.185168   6 F  px              131     -0.175894   6 F  py        
    83     -0.170685   4 F  px               85     -0.160629   4 F  pz        
 
 Vector   37  Occ=1.000000D+00  E=-6.519730D-01
              MO Center=  9.8D+00,  1.1D+01,  9.8D+00, r^2= 3.8D+00
   Bfn.  Coefficient  Atom+Function         Bfn.  Coefficient  Atom+Function  
  ----- ------------  ---------------      ----- ------------  ---------------
   230      0.281876  10 O  px                3     -0.242166   1 C  s         
   157     -0.222441   7 F  pz               32      0.217568   2 C  pz        
   182     -0.212249   8 F  pz              206     -0.207881   9 O  py        
   205      0.180003   9 O  px               55     -0.169323   3 C  px        
   228     -0.164505  10 O  s               160     -0.158574   7 F  pz        
 
 Vector   38  Occ=1.000000D+00  E=-6.016957D-01
              MO Center=  9.9D+00,  9.9D+00,  9.9D+00, r^2= 3.6D+00
   Bfn.  Coefficient  Atom+Function         Bfn.  Coefficient  Atom+Function  
  ----- ------------  ---------------      ----- ------------  ---------------
    31      0.273504   2 C  py              230     -0.254375  10 O  px        
   156     -0.244814   7 F  py               34      0.225943   2 C  py        
     6     -0.204400   1 C  py              181     -0.199813   8 F  py        
   159     -0.183450   7 F  py              106      0.169183   5 F  py        
    56     -0.158675   3 C  py              233     -0.158311  10 O  px        
 
 Vector   39  Occ=1.000000D+00  E=-5.217950D-01
              MO Center=  9.5D+00,  1.2D+01,  9.3D+00, r^2= 1.5D+00
   Bfn.  Coefficient  Atom+Function         Bfn.  Coefficient  Atom+Function  
  ----- ------------  ---------------      ----- ------------  ---------------
   232      0.407208  10 O  pz              235      0.303342  10 O  pz        
   231      0.286355  10 O  py              207     -0.267131   9 O  pz        
   234      0.217087  10 O  py              210     -0.202194   9 O  pz        
    57      0.185744   3 C  pz              206     -0.163344   9 O  py        
 
 Vector   40  Occ=1.000000D+00  E=-5.187685D-01
              MO Center=  9.3D+00,  1.1D+01,  9.4D+00, r^2= 1.8D+00
   Bfn.  Coefficient  Atom+Function         Bfn.  Coefficient  Atom+Function  
  ----- ------------  ---------------      ----- ------------  ---------------
   231      0.423941  10 O  py              234      0.316920  10 O  py        
   230      0.298236  10 O  px              232     -0.267788  10 O  pz        
   233      0.220359  10 O  px              235     -0.198710  10 O  pz        
    31      0.183329   2 C  py              205      0.163753   9 O  px        
 
 Vector   41  Occ=0.000000D+00  E= 5.883758D-02
              MO Center=  1.1D+01,  1.1D+01,  1.1D+01, r^2= 1.3D+01
   Bfn.  Coefficient  Atom+Function         Bfn.  Coefficient  Atom+Function  
  ----- ------------  ---------------      ----- ------------  ---------------
     4      6.094826   1 C  s                29     -4.619072   2 C  s         
    38      2.774319   2 C  pz               62      1.383290   3 C  py        
    54      1.162946   3 C  s                53      0.996257   3 C  s         
   204     -0.950911   9 O  s                37      0.795887   2 C  py        
   104     -0.786262   5 F  s                63     -0.719343   3 C  pz        
 
 Vector   42  Occ=0.000000D+00  E= 6.764880D-02
              MO Center=  1.0D+01,  8.1D+00,  9.3D+00, r^2= 1.9D+01
   Bfn.  Coefficient  Atom+Function         Bfn.  Coefficient  Atom+Function  
  ----- ------------  ---------------      ----- ------------  ---------------
     4     11.298698   1 C  s                54    -10.297620   3 C  s         
    37      4.142612   2 C  py               12      3.550705   1 C  py        
    29     -3.248161   2 C  s                62      3.136439   3 C  py        
    13      1.981790   1 C  pz              229      1.602081  10 O  s         
   204      1.465027   9 O  s                63     -1.086174   3 C  pz        
 
 Vector   43  Occ=0.000000D+00  E= 7.204778D-02
              MO Center=  1.0D+01,  1.1D+01,  9.3D+00, r^2= 1.7D+01
   Bfn.  Coefficient  Atom+Function         Bfn.  Coefficient  Atom+Function  
  ----- ------------  ---------------      ----- ------------  ---------------
    29     12.209051   2 C  s                54     -7.178960   3 C  s         
     4     -3.130312   1 C  s                62      2.699226   3 C  py        
    38     -2.411393   2 C  pz               63     -1.777341   3 C  pz        
    53      1.142845   3 C  s                28     -1.119629   2 C  s         
    13     -1.102010   1 C  pz               37      1.098888   2 C  py        
 
 Vector   44  Occ=0.000000D+00  E= 8.471343D-02
              MO Center=  1.0D+01,  9.7D+00,  9.7D+00, r^2= 1.7D+01
   Bfn.  Coefficient  Atom+Function         Bfn.  Coefficient  Atom+Function  
  ----- ------------  ---------------      ----- ------------  ---------------
    29      4.451756   2 C  s                54     -3.959951   3 C  s         
    62      1.490072   3 C  py              204      1.367539   9 O  s         
    11     -1.339221   1 C  px              229     -1.026928  10 O  s         
    63     -0.986146   3 C  pz               37      0.962743   2 C  py        
    61     -0.856375   3 C  px               36     -0.811745   2 C  px        
 
 Vector   45  Occ=0.000000D+00  E= 8.872141D-02
              MO Center=  9.9D+00,  1.1D+01,  1.1D+01, r^2= 8.6D+00
   Bfn.  Coefficient  Atom+Function         Bfn.  Coefficient  Atom+Function  
  ----- ------------  ---------------      ----- ------------  ---------------
    29     10.605866   2 C  s                54     -5.068791   3 C  s         
     4     -4.996452   1 C  s                38     -3.458603   2 C  pz        
    37      1.537420   2 C  py               12     -0.887111   1 C  py        
   179     -0.862806   8 F  s               104      0.612424   5 F  s         
   204     -0.574461   9 O  s                60      0.534965   3 C  pz        
 
 Vector   46  Occ=0.000000D+00  E= 1.073668D-01
              MO Center=  1.0D+01,  9.4D+00,  9.5D+00, r^2= 2.0D+01
   Bfn.  Coefficient  Atom+Function         Bfn.  Coefficient  Atom+Function  
  ----- ------------  ---------------      ----- ------------  ---------------
    29      8.910364   2 C  s                54     -5.005568   3 C  s         
    38     -3.795492   2 C  pz                4     -2.821912   1 C  s         
    62      2.659192   3 C  py               13      2.211042   1 C  pz        
    12     -2.119832   1 C  py              104     -1.136365   5 F  s         
    79      0.658276   4 F  s               154     -0.651144   7 F  s         
 
 Vector   47  Occ=0.000000D+00  E= 1.088541D-01
              MO Center=  1.0D+01,  1.0D+01,  9.7D+00, r^2= 1.9D+01
   Bfn.  Coefficient  Atom+Function         Bfn.  Coefficient  Atom+Function  
  ----- ------------  ---------------      ----- ------------  ---------------
    54      3.196418   3 C  s                29     -2.225632   2 C  s         
    63     -2.148659   3 C  pz               13      1.678904   1 C  pz        
    61      1.539325   3 C  px              204     -1.527542   9 O  s         
    11     -1.377894   1 C  px               62     -1.136527   3 C  py        
    38      1.020906   2 C  pz               12      0.957697   1 C  py        
 
 Vector   48  Occ=0.000000D+00  E= 1.118552D-01
              MO Center=  1.0D+01,  9.9D+00,  9.6D+00, r^2= 2.1D+01
   Bfn.  Coefficient  Atom+Function         Bfn.  Coefficient  Atom+Function  
  ----- ------------  ---------------      ----- ------------  ---------------
    54      3.733845   3 C  s                11     -2.834277   1 C  px        
    61      2.469714   3 C  px               29     -2.155564   2 C  s         
     4     -1.901754   1 C  s                63      1.821372   3 C  pz        
   204     -1.700350   9 O  s                62     -1.515547   3 C  py        
    13     -1.285926   1 C  pz              229      1.145022  10 O  s         
 
 Vector   49  Occ=0.000000D+00  E= 1.234908D-01
              MO Center=  1.0D+01,  9.9D+00,  1.0D+01, r^2= 2.0D+01
   Bfn.  Coefficient  Atom+Function         Bfn.  Coefficient  Atom+Function  
  ----- ------------  ---------------      ----- ------------  ---------------
    36      6.646083   2 C  px               61     -3.973624   3 C  px        
    29      3.060641   2 C  s                11     -2.813927   1 C  px        
    54     -2.291760   3 C  s               179     -1.504512   8 F  s         
   204      1.107984   9 O  s               154      0.965518   7 F  s         
   229     -0.877849  10 O  s                63     -0.835270   3 C  pz        
 
 Vector   50  Occ=0.000000D+00  E= 1.309343D-01
              MO Center=  9.6D+00,  1.0D+01,  9.8D+00, r^2= 1.7D+01
   Bfn.  Coefficient  Atom+Function         Bfn.  Coefficient  Atom+Function  
  ----- ------------  ---------------      ----- ------------  ---------------
    54      6.299588   3 C  s                38     -4.426741   2 C  pz        
    63      3.178182   3 C  pz              229     -2.926341  10 O  s         
    62     -2.721446   3 C  py               79     -1.935833   4 F  s         
   204     -1.828168   9 O  s               129     -1.803822   6 F  s         
   154     -1.698389   7 F  s               179     -1.653422   8 F  s         
 
 Vector   51  Occ=0.000000D+00  E= 1.493250D-01
              MO Center=  1.0D+01,  1.0D+01,  1.0D+01, r^2= 2.1D+01
   Bfn.  Coefficient  Atom+Function         Bfn.  Coefficient  Atom+Function  
  ----- ------------  ---------------      ----- ------------  ---------------
    37     11.954291   2 C  py                4      8.850524   1 C  s         
    54     -7.159583   3 C  s                13      4.183816   1 C  pz        
    63     -4.073122   3 C  pz               62     -3.102199   3 C  py        
    12     -2.490849   1 C  py               29     -1.483720   2 C  s         
   104     -0.793019   5 F  s               162     -0.757938   7 F  py        
 
 Vector   52  Occ=0.000000D+00  E= 1.836839D-01
              MO Center=  1.0D+01,  1.0D+01,  1.0D+01, r^2= 1.5D+01
   Bfn.  Coefficient  Atom+Function         Bfn.  Coefficient  Atom+Function  
  ----- ------------  ---------------      ----- ------------  ---------------
    29     30.686805   2 C  s                54    -17.871150   3 C  s         
     4    -11.942273   1 C  s               154     -3.839637   7 F  s         
   179     -3.737863   8 F  s                38     -3.614031   2 C  pz        
    62      2.913232   3 C  py               12     -2.650243   1 C  py        
    63     -2.355684   3 C  pz               37      1.866625   2 C  py        
 
 Vector   53  Occ=0.000000D+00  E= 1.977085D-01
              MO Center=  1.0D+01,  1.0D+01,  9.6D+00, r^2= 1.9D+01
   Bfn.  Coefficient  Atom+Function         Bfn.  Coefficient  Atom+Function  
  ----- ------------  ---------------      ----- ------------  ---------------
    54     30.799740   3 C  s                 4    -25.140388   1 C  s         
    37    -10.072421   2 C  py               62     -6.006061   3 C  py        
   204     -5.325699   9 O  s               229     -5.161113  10 O  s         
    29     -4.876435   2 C  s                12     -4.123022   1 C  py        
    13     -3.822219   1 C  pz               63      3.684212   3 C  pz        
 
 Vector   54  Occ=0.000000D+00  E= 2.091925D-01
              MO Center=  1.0D+01,  9.5D+00,  9.7D+00, r^2= 8.6D+00
   Bfn.  Coefficient  Atom+Function         Bfn.  Coefficient  Atom+Function  
  ----- ------------  ---------------      ----- ------------  ---------------
    29      8.408835   2 C  s                 4     -7.441987   1 C  s         
    37     -1.607790   2 C  py               38     -1.498310   2 C  pz        
   154     -1.457455   7 F  s               204      1.319625   9 O  s         
   229     -1.281202  10 O  s                11     -1.253867   1 C  px        
    12     -1.228376   1 C  py              129      1.211796   6 F  s         
 
 Vector   55  Occ=0.000000D+00  E= 2.268497D-01
              MO Center=  1.0D+01,  1.1D+01,  1.0D+01, r^2= 1.3D+01
   Bfn.  Coefficient  Atom+Function         Bfn.  Coefficient  Atom+Function  
  ----- ------------  ---------------      ----- ------------  ---------------
    29     18.750824   2 C  s                 4    -13.336571   1 C  s         
    28      4.393515   2 C  s                38     -4.102775   2 C  pz        
    53     -4.077856   3 C  s                54     -3.210625   3 C  s         
   179     -2.901398   8 F  s               154     -2.391431   7 F  s         
    12     -2.224635   1 C  py                3     -2.069489   1 C  s         
 
 Vector   56  Occ=0.000000D+00  E= 2.314577D-01
              MO Center=  1.0D+01,  1.0D+01,  9.7D+00, r^2= 1.2D+01
   Bfn.  Coefficient  Atom+Function         Bfn.  Coefficient  Atom+Function  
  ----- ------------  ---------------      ----- ------------  ---------------
     4      9.380179   1 C  s                29     -5.921854   2 C  s         
    54     -4.319234   3 C  s                36     -3.085643   2 C  px        
    37      2.660256   2 C  py              129     -2.128587   6 F  s         
    12      1.913489   1 C  py               11      1.539663   1 C  px        
   204      1.389397   9 O  s                38      1.372727   2 C  pz        
 
 Vector   57  Occ=0.000000D+00  E= 2.395896D-01
              MO Center=  1.0D+01,  1.1D+01,  9.4D+00, r^2= 1.3D+01
   Bfn.  Coefficient  Atom+Function         Bfn.  Coefficient  Atom+Function  
  ----- ------------  ---------------      ----- ------------  ---------------
    61      2.791492   3 C  px               54      2.151625   3 C  s         
   229     -1.974646  10 O  s               236     -1.981040  10 O  px        
    36     -1.496281   2 C  px               28     -1.481734   2 C  s         
   213      1.454214   9 O  pz              211     -1.417310   9 O  px        
    53      1.308216   3 C  s                29     -1.219221   2 C  s         
 
 Vector   58  Occ=0.000000D+00  E= 2.489259D-01
              MO Center=  1.0D+01,  9.1D+00,  9.5D+00, r^2= 1.2D+01
   Bfn.  Coefficient  Atom+Function         Bfn.  Coefficient  Atom+Function  
  ----- ------------  ---------------      ----- ------------  ---------------
    54     11.404707   3 C  s                 4     -8.121661   1 C  s         
    37     -3.612218   2 C  py               29     -2.564437   2 C  s         
   229     -2.319451  10 O  s                62     -2.181183   3 C  py        
    12     -2.161334   1 C  py              104      1.855441   5 F  s         
    28     -1.583465   2 C  s                63      1.575461   3 C  pz        
 
 Vector   59  Occ=0.000000D+00  E= 2.718923D-01
              MO Center=  1.0D+01,  1.0D+01,  9.6D+00, r^2= 1.2D+01
   Bfn.  Coefficient  Atom+Function         Bfn.  Coefficient  Atom+Function  
  ----- ------------  ---------------      ----- ------------  ---------------
   229      2.836056  10 O  s               236      2.429895  10 O  px        
    61     -2.309199   3 C  px               54     -2.102494   3 C  s         
   211      2.072249   9 O  px                3     -1.901190   1 C  s         
     4      1.796613   1 C  s                72     -1.366671   3 C  dxz       
    62      1.234462   3 C  py               71      1.195123   3 C  dxy       
 
 Vector   60  Occ=0.000000D+00  E= 2.757859D-01
              MO Center=  1.0D+01,  9.5D+00,  1.1D+01, r^2= 1.1D+01
   Bfn.  Coefficient  Atom+Function         Bfn.  Coefficient  Atom+Function  
  ----- ------------  ---------------      ----- ------------  ---------------
    29     26.154815   2 C  s                54    -14.023605   3 C  s         
     4    -11.389079   1 C  s                28     -6.958202   2 C  s         
     3      4.393157   1 C  s                38     -4.329657   2 C  pz        
    50     -1.978039   2 C  dzz              62      1.821150   3 C  py        
    35      1.734009   2 C  pz              204      1.667137   9 O  s         
 
 Vector   61  Occ=0.000000D+00  E= 2.880236D-01
              MO Center=  1.0D+01,  1.0D+01,  9.4D+00, r^2= 1.5D+01
   Bfn.  Coefficient  Atom+Function         Bfn.  Coefficient  Atom+Function  
  ----- ------------  ---------------      ----- ------------  ---------------
    29      8.950991   2 C  s                 4     -7.545916   1 C  s         
    62      2.706863   3 C  py                3      2.140694   1 C  s         
    12     -2.093093   1 C  py              212     -1.700294   9 O  py        
    63     -1.641032   3 C  pz               36     -1.487269   2 C  px        
   237     -1.097919  10 O  py              179     -1.075399   8 F  s         
 
 Vector   62  Occ=0.000000D+00  E= 2.997400D-01
              MO Center=  1.0D+01,  1.0D+01,  9.3D+00, r^2= 1.4D+01
   Bfn.  Coefficient  Atom+Function         Bfn.  Coefficient  Atom+Function  
  ----- ------------  ---------------      ----- ------------  ---------------
    54      5.834786   3 C  s                29     -5.098948   2 C  s         
    62     -4.161550   3 C  py                3      3.136267   1 C  s         
    36      2.583924   2 C  px              204     -2.588587   9 O  s         
   212      2.577433   9 O  py               61     -2.431253   3 C  px        
    79     -2.375217   4 F  s                28      1.869922   2 C  s         
 
 Vector   63  Occ=0.000000D+00  E= 3.043532D-01
              MO Center=  9.7D+00,  9.7D+00,  9.6D+00, r^2= 1.1D+01
   Bfn.  Coefficient  Atom+Function         Bfn.  Coefficient  Atom+Function  
  ----- ------------  ---------------      ----- ------------  ---------------
    29     14.215945   2 C  s                54     -8.905008   3 C  s         
     4     -3.349892   1 C  s                38     -3.193513   2 C  pz        
    36      3.118061   2 C  px               61     -2.827875   3 C  px        
   154     -2.227970   7 F  s                37      2.087630   2 C  py        
    63     -1.466773   3 C  pz              229      1.454963  10 O  s         
 
 Vector   64  Occ=0.000000D+00  E= 3.179723D-01
              MO Center=  1.0D+01,  1.1D+01,  9.4D+00, r^2= 1.3D+01
   Bfn.  Coefficient  Atom+Function         Bfn.  Coefficient  Atom+Function  
  ----- ------------  ---------------      ----- ------------  ---------------
    29      9.277187   2 C  s                 4     -8.192513   1 C  s         
    63      4.046891   3 C  pz               37     -2.432066   2 C  py        
    38     -2.388457   2 C  pz               34      2.225905   2 C  py        
   238     -2.035191  10 O  pz              213     -1.878833   9 O  pz        
    13     -1.734230   1 C  pz              211     -1.729696   9 O  px        
 
 Vector   65  Occ=0.000000D+00  E= 3.222557D-01
              MO Center=  1.0D+01,  1.0D+01,  9.4D+00, r^2= 1.3D+01
   Bfn.  Coefficient  Atom+Function         Bfn.  Coefficient  Atom+Function  
  ----- ------------  ---------------      ----- ------------  ---------------
    29      8.216504   2 C  s                54     -6.774306   3 C  s         
    53     -2.678329   3 C  s                34      2.107804   2 C  py        
    38     -2.065146   2 C  pz              237      1.900607  10 O  py        
    28      1.882209   2 C  s               104     -1.752791   5 F  s         
    59      1.735491   3 C  py              229      1.735723  10 O  s         
 
 Vector   66  Occ=0.000000D+00  E= 3.281876D-01
              MO Center=  9.9D+00,  9.6D+00,  9.9D+00, r^2= 1.3D+01
   Bfn.  Coefficient  Atom+Function         Bfn.  Coefficient  Atom+Function  
  ----- ------------  ---------------      ----- ------------  ---------------
    61      3.677820   3 C  px              236     -2.520905  10 O  px        
     4      2.424676   1 C  s               229     -2.170392  10 O  s         
   211     -2.118754   9 O  px               11     -1.709856   1 C  px        
    63     -1.485099   3 C  pz              111      1.372042   5 F  px        
     3     -1.295138   1 C  s                62     -1.291189   3 C  py        
 
 Vector   67  Occ=0.000000D+00  E= 3.337814D-01
              MO Center=  1.0D+01,  9.5D+00,  1.0D+01, r^2= 1.3D+01
   Bfn.  Coefficient  Atom+Function         Bfn.  Coefficient  Atom+Function  
  ----- ------------  ---------------      ----- ------------  ---------------
    54     12.455258   3 C  s               204     -6.103838   9 O  s         
    53      5.412691   3 C  s                 4     -3.400338   1 C  s         
    62     -3.303082   3 C  py              229     -3.232290  10 O  s         
    34     -2.965228   2 C  py               29     -2.932078   2 C  s         
    63      2.417045   3 C  pz                3     -2.317538   1 C  s         
 
 Vector   68  Occ=0.000000D+00  E= 3.401037D-01
              MO Center=  1.0D+01,  9.3D+00,  9.9D+00, r^2= 1.2D+01
   Bfn.  Coefficient  Atom+Function         Bfn.  Coefficient  Atom+Function  
  ----- ------------  ---------------      ----- ------------  ---------------
    54      2.849030   3 C  s               229     -2.567271  10 O  s         
     4      2.003450   1 C  s                46     -1.978169   2 C  dxy       
    11      1.802148   1 C  px               29     -1.735198   2 C  s         
    36     -1.595913   2 C  px               62     -1.598463   3 C  py        
    71     -1.299837   3 C  dxy              53      1.282881   3 C  s         
 
 Vector   69  Occ=0.000000D+00  E= 3.502195D-01
              MO Center=  9.8D+00,  9.3D+00,  9.3D+00, r^2= 1.2D+01
   Bfn.  Coefficient  Atom+Function         Bfn.  Coefficient  Atom+Function  
  ----- ------------  ---------------      ----- ------------  ---------------
    54      8.486668   3 C  s                 4     -3.599735   1 C  s         
    29     -3.092646   2 C  s                13     -3.044337   1 C  pz        
    37     -3.043867   2 C  py              204     -2.887077   9 O  s         
    62     -2.271033   3 C  py               38      1.864727   2 C  pz        
    11     -1.748479   1 C  px              112     -1.645283   5 F  py        
 
 Vector   70  Occ=0.000000D+00  E= 3.532928D-01
              MO Center=  9.8D+00,  9.7D+00,  1.0D+01, r^2= 1.2D+01
   Bfn.  Coefficient  Atom+Function         Bfn.  Coefficient  Atom+Function  
  ----- ------------  ---------------      ----- ------------  ---------------
   204      3.857602   9 O  s                38      3.278731   2 C  pz        
    61     -2.180461   3 C  px               54     -2.163308   3 C  s         
    13     -2.137808   1 C  pz              129      1.902684   6 F  s         
    28     -1.677676   2 C  s               138      1.560404   6 F  pz        
   163     -1.416671   7 F  pz              179      1.400875   8 F  s         
 
 Vector   71  Occ=0.000000D+00  E= 3.592329D-01
              MO Center=  1.0D+01,  9.1D+00,  9.6D+00, r^2= 1.3D+01
   Bfn.  Coefficient  Atom+Function         Bfn.  Coefficient  Atom+Function  
  ----- ------------  ---------------      ----- ------------  ---------------
    54      5.263341   3 C  s                28      3.826193   2 C  s         
    11      2.934755   1 C  px               62     -2.549529   3 C  py        
     4     -2.293719   1 C  s                63      2.251596   3 C  pz        
    59      2.102998   3 C  py              229     -1.944162  10 O  s         
    35     -1.878358   2 C  pz               38     -1.726301   2 C  pz        
 
 Vector   72  Occ=0.000000D+00  E= 3.611363D-01
              MO Center=  9.8D+00,  1.0D+01,  9.8D+00, r^2= 1.3D+01
   Bfn.  Coefficient  Atom+Function         Bfn.  Coefficient  Atom+Function  
  ----- ------------  ---------------      ----- ------------  ---------------
    29      5.601388   2 C  s                54     -5.592139   3 C  s         
   229      3.879263  10 O  s                61      2.810743   3 C  px        
    28     -2.759283   2 C  s                11      2.408444   1 C  px        
    62      2.013746   3 C  py               86     -1.767070   4 F  px        
   136     -1.690765   6 F  px               38      1.541419   2 C  pz        
 
 Vector   73  Occ=0.000000D+00  E= 3.704611D-01
              MO Center=  9.8D+00,  9.0D+00,  9.3D+00, r^2= 8.7D+00
   Bfn.  Coefficient  Atom+Function         Bfn.  Coefficient  Atom+Function  
  ----- ------------  ---------------      ----- ------------  ---------------
    54      7.181384   3 C  s                 4     -5.508973   1 C  s         
    29     -3.318925   2 C  s                53     -2.552648   3 C  s         
    36     -2.505832   2 C  px                3      2.398438   1 C  s         
    34      2.352700   2 C  py                9      2.281186   1 C  py        
   104      2.114009   5 F  s                62     -1.832784   3 C  py        
 
 Vector   74  Occ=0.000000D+00  E= 3.783422D-01
              MO Center=  1.0D+01,  9.5D+00,  1.1D+01, r^2= 1.2D+01
   Bfn.  Coefficient  Atom+Function         Bfn.  Coefficient  Atom+Function  
  ----- ------------  ---------------      ----- ------------  ---------------
    36      6.005171   2 C  px              161     -3.250461   7 F  px        
   186     -3.220096   8 F  px               61     -2.515963   3 C  px        
    11     -1.911870   1 C  px              154     -1.850033   7 F  s         
   204     -1.640527   9 O  s               179      1.378796   8 F  s         
   229      1.243572  10 O  s               187      1.008821   8 F  py        
 
 Vector   75  Occ=0.000000D+00  E= 3.850460D-01
              MO Center=  1.0D+01,  9.1D+00,  1.0D+01, r^2= 9.4D+00
   Bfn.  Coefficient  Atom+Function         Bfn.  Coefficient  Atom+Function  
  ----- ------------  ---------------      ----- ------------  ---------------
     4      3.725644   1 C  s                37     -2.760258   2 C  py        
    54      2.494990   3 C  s               129     -2.111948   6 F  s         
    79     -1.890985   4 F  s                28     -1.858658   2 C  s         
   229     -1.807216  10 O  s                13      1.683679   1 C  pz        
    36      1.566848   2 C  px               88     -1.401417   4 F  pz        
 
 Vector   76  Occ=0.000000D+00  E= 3.894231D-01
              MO Center=  9.7D+00,  9.1D+00,  1.0D+01, r^2= 1.1D+01
   Bfn.  Coefficient  Atom+Function         Bfn.  Coefficient  Atom+Function  
  ----- ------------  ---------------      ----- ------------  ---------------
    36      4.851023   2 C  px               29     -3.427291   2 C  s         
    37      3.007829   2 C  py               61     -2.800666   3 C  px        
   104      2.107693   5 F  s                79      1.888100   4 F  s         
    12     -1.774159   1 C  py              162     -1.650633   7 F  py        
   136     -1.567681   6 F  px               86     -1.243733   4 F  px        
 
 Vector   77  Occ=0.000000D+00  E= 3.928473D-01
              MO Center=  1.0D+01,  9.1D+00,  9.6D+00, r^2= 1.3D+01
   Bfn.  Coefficient  Atom+Function         Bfn.  Coefficient  Atom+Function  
  ----- ------------  ---------------      ----- ------------  ---------------
     4     13.528373   1 C  s                29    -10.747203   2 C  s         
    54     -6.603920   3 C  s                37      6.543256   2 C  py        
    36     -3.235021   2 C  px              229      2.886893  10 O  s         
    63     -2.811659   3 C  pz               38      2.765127   2 C  pz        
   112      2.551640   5 F  py               87      2.286687   4 F  py        
 
 Vector   78  Occ=0.000000D+00  E= 4.047328D-01
              MO Center=  9.8D+00,  9.7D+00,  1.0D+01, r^2= 8.4D+00
   Bfn.  Coefficient  Atom+Function         Bfn.  Coefficient  Atom+Function  
  ----- ------------  ---------------      ----- ------------  ---------------
     4     11.544805   1 C  s                54     -8.816636   3 C  s         
    29     -4.588965   2 C  s                28      3.717089   2 C  s         
   229      2.539948  10 O  s               204      2.379926   9 O  s         
   163      2.153065   7 F  pz               37      2.059961   2 C  py        
    62      2.017194   3 C  py               12      1.920621   1 C  py        
 
 Vector   79  Occ=0.000000D+00  E= 4.099804D-01
              MO Center=  1.0D+01,  9.4D+00,  9.9D+00, r^2= 9.0D+00
   Bfn.  Coefficient  Atom+Function         Bfn.  Coefficient  Atom+Function  
  ----- ------------  ---------------      ----- ------------  ---------------
    29      4.517131   2 C  s                36      3.695924   2 C  px        
    37      2.978704   2 C  py               11     -2.727015   1 C  px        
     4     -2.609361   1 C  s                12     -1.973180   1 C  py        
   204     -1.686165   9 O  s               137      1.592704   6 F  py        
    62     -1.564929   3 C  py              129      1.481317   6 F  s         
 
 Vector   80  Occ=0.000000D+00  E= 4.228781D-01
              MO Center=  9.8D+00,  9.8D+00,  1.0D+01, r^2= 7.7D+00
   Bfn.  Coefficient  Atom+Function         Bfn.  Coefficient  Atom+Function  
  ----- ------------  ---------------      ----- ------------  ---------------
    29     21.782884   2 C  s                 4    -12.007257   1 C  s         
    54     -3.744152   3 C  s               179     -3.720067   8 F  s         
   154     -3.233126   7 F  s                38     -3.128531   2 C  pz        
    28     -3.100297   2 C  s                53      2.807990   3 C  s         
    12     -2.543611   1 C  py              229     -2.443893  10 O  s         
 
 Vector   81  Occ=0.000000D+00  E= 4.282707D-01
              MO Center=  1.0D+01,  9.4D+00,  9.6D+00, r^2= 1.0D+01
   Bfn.  Coefficient  Atom+Function         Bfn.  Coefficient  Atom+Function  
  ----- ------------  ---------------      ----- ------------  ---------------
    54     17.134782   3 C  s                 4    -12.533900   1 C  s         
    37     -7.953308   2 C  py              204     -7.154700   9 O  s         
   229     -3.632143  10 O  s                13     -2.939759   1 C  pz        
    63      2.913228   3 C  pz              129      2.358868   6 F  s         
    62     -2.029798   3 C  py              212      1.915524   9 O  py        
 
 Vector   82  Occ=0.000000D+00  E= 4.417221D-01
              MO Center=  9.7D+00,  9.3D+00,  9.7D+00, r^2= 1.2D+01
   Bfn.  Coefficient  Atom+Function         Bfn.  Coefficient  Atom+Function  
  ----- ------------  ---------------      ----- ------------  ---------------
    54      6.714638   3 C  s               229     -6.193870  10 O  s         
    79      2.986622   4 F  s               129     -2.770310   6 F  s         
    29     -2.754234   2 C  s                37     -2.004930   2 C  py        
    86     -1.907270   4 F  px              111     -1.890188   5 F  px        
   236     -1.867741  10 O  px               58     -1.819038   3 C  px        
 
 Vector   83  Occ=0.000000D+00  E= 4.505407D-01
              MO Center=  1.0D+01,  9.3D+00,  1.0D+01, r^2= 6.2D+00
   Bfn.  Coefficient  Atom+Function         Bfn.  Coefficient  Atom+Function  
  ----- ------------  ---------------      ----- ------------  ---------------
    29      3.051516   2 C  s               229     -2.805342  10 O  s         
     4     -2.687659   1 C  s               204     -2.670344   9 O  s         
    54      2.549397   3 C  s               104     -2.108444   5 F  s         
    62     -1.827462   3 C  py              112     -1.762781   5 F  py        
    59      1.587396   3 C  py                3      1.508580   1 C  s         
 
 Vector   84  Occ=0.000000D+00  E= 4.865415D-01
              MO Center=  1.0D+01,  9.7D+00,  9.9D+00, r^2= 9.1D+00
   Bfn.  Coefficient  Atom+Function         Bfn.  Coefficient  Atom+Function  
  ----- ------------  ---------------      ----- ------------  ---------------
    29      7.169806   2 C  s                54     -6.804452   3 C  s         
   179     -5.681749   8 F  s                79      5.268041   4 F  s         
   104     -3.311582   5 F  s                33      3.268283   2 C  px        
   154      3.134171   7 F  s                37      2.607197   2 C  py        
    36     -2.539263   2 C  px              129     -2.492883   6 F  s         
 
 Vector   85  Occ=0.000000D+00  E= 4.934653D-01
              MO Center=  9.7D+00,  8.7D+00,  1.0D+01, r^2= 9.5D+00
   Bfn.  Coefficient  Atom+Function         Bfn.  Coefficient  Atom+Function  
  ----- ------------  ---------------      ----- ------------  ---------------
   104     -7.363060   5 F  s                29      7.110286   2 C  s         
   154     -4.869668   7 F  s               129      3.939921   6 F  s         
    54     -3.780789   3 C  s                10      3.506554   1 C  pz        
    37      3.369907   2 C  py              112     -2.300618   5 F  py        
    79      2.277898   4 F  s               113      2.143368   5 F  pz        
 
 Vector   86  Occ=0.000000D+00  E= 5.121899D-01
              MO Center=  1.0D+01,  9.9D+00,  9.6D+00, r^2= 9.8D+00
   Bfn.  Coefficient  Atom+Function         Bfn.  Coefficient  Atom+Function  
  ----- ------------  ---------------      ----- ------------  ---------------
    54     12.316722   3 C  s                29     -8.029558   2 C  s         
   204     -6.732087   9 O  s                 4     -6.121029   1 C  s         
    79      5.888404   4 F  s               179      5.659715   8 F  s         
   129     -3.198389   6 F  s                37     -3.125088   2 C  py        
     8     -2.892603   1 C  px               47     -2.592753   2 C  dxz       
 
 
                     UHF Final Beta Molecular Orbital Analysis
                     -----------------------------------------
 
 Vector   17  Occ=1.000000D+00  E=-1.354432D+00
              MO Center=  9.8D+00,  1.2D+01,  9.4D+00, r^2= 1.2D+00
   Bfn.  Coefficient  Atom+Function         Bfn.  Coefficient  Atom+Function  
  ----- ------------  ---------------      ----- ------------  ---------------
   228      0.357959  10 O  s               227      0.333636  10 O  s         
   203     -0.300934   9 O  s               202     -0.274226   9 O  s         
    55     -0.265137   3 C  px        
 
 Vector   18  Occ=1.000000D+00  E=-1.125752D+00
              MO Center=  1.0D+01,  9.5D+00,  1.0D+01, r^2= 2.2D+00
   Bfn.  Coefficient  Atom+Function         Bfn.  Coefficient  Atom+Function  
  ----- ------------  ---------------      ----- ------------  ---------------
    27      0.296683   2 C  s                29     -0.230094   2 C  s         
     2      0.223409   1 C  s                54      0.188440   3 C  s         
 
 Vector   19  Occ=1.000000D+00  E=-1.002489D+00
              MO Center=  1.0D+01,  9.1D+00,  9.8D+00, r^2= 3.3D+00
   Bfn.  Coefficient  Atom+Function         Bfn.  Coefficient  Atom+Function  
  ----- ------------  ---------------      ----- ------------  ---------------
     2      0.263716   1 C  s                28     -0.193396   2 C  s         
     4     -0.190257   1 C  s                31     -0.172578   2 C  py        
   106      0.171635   5 F  py              130      0.169716   6 F  px        
    27     -0.157133   2 C  s                80     -0.151156   4 F  px        
 
 Vector   20  Occ=1.000000D+00  E=-9.166512D-01
              MO Center=  1.0D+01,  9.4D+00,  9.9D+00, r^2= 3.3D+00
   Bfn.  Coefficient  Atom+Function         Bfn.  Coefficient  Atom+Function  
  ----- ------------  ---------------      ----- ------------  ---------------
    31      0.243639   2 C  py                7     -0.208172   1 C  pz        
    80     -0.200873   4 F  px              130      0.192228   6 F  px        
    34      0.178894   2 C  py              181      0.177884   8 F  py        
    28     -0.171081   2 C  s               107     -0.162931   5 F  pz        
   156      0.161885   7 F  py        
 
 Vector   21  Occ=1.000000D+00  E=-8.872335D-01
              MO Center=  1.0D+01,  9.1D+00,  1.0D+01, r^2= 3.1D+00
   Bfn.  Coefficient  Atom+Function         Bfn.  Coefficient  Atom+Function  
  ----- ------------  ---------------      ----- ------------  ---------------
    28      0.294825   2 C  s               180      0.270208   8 F  px        
   155     -0.255736   7 F  px               32     -0.232872   2 C  pz        
     6      0.222246   1 C  py              107      0.195613   5 F  pz        
    81      0.189361   4 F  py              131      0.182690   6 F  py        
   183      0.181811   8 F  px              158     -0.170603   7 F  px        
 
 Vector   22  Occ=1.000000D+00  E=-8.780420D-01
              MO Center=  1.0D+01,  8.6D+00,  9.5D+00, r^2= 2.6D+00
   Bfn.  Coefficient  Atom+Function         Bfn.  Coefficient  Atom+Function  
  ----- ------------  ---------------      ----- ------------  ---------------
     5      0.296508   1 C  px               82      0.287891   4 F  pz        
   132     -0.246290   6 F  pz              105      0.230387   5 F  px        
   130     -0.206714   6 F  px               85      0.182601   4 F  pz        
   108      0.157823   5 F  px              135     -0.156167   6 F  pz        
 
 Vector   23  Occ=1.000000D+00  E=-8.604800D-01
              MO Center=  1.0D+01,  8.9D+00,  9.8D+00, r^2= 3.6D+00
   Bfn.  Coefficient  Atom+Function         Bfn.  Coefficient  Atom+Function  
  ----- ------------  ---------------      ----- ------------  ---------------
    80      0.260792   4 F  px               53      0.256361   3 C  s         
   106      0.255598   5 F  py                7      0.219177   1 C  pz        
   130     -0.189876   6 F  px              155     -0.182339   7 F  px        
   180      0.176968   8 F  px               83      0.166792   4 F  px        
   109      0.160065   5 F  py        
 
 Vector   24  Occ=1.000000D+00  E=-8.303835D-01
              MO Center=  1.0D+01,  9.6D+00,  1.1D+01, r^2= 2.8D+00
   Bfn.  Coefficient  Atom+Function         Bfn.  Coefficient  Atom+Function  
  ----- ------------  ---------------      ----- ------------  ---------------
   157      0.305316   7 F  pz               30      0.287445   2 C  px        
   182     -0.285318   8 F  pz              180     -0.204165   8 F  px        
   160      0.198100   7 F  pz              185     -0.185299   8 F  pz        
   155     -0.166497   7 F  px        
 
 Vector   25  Occ=1.000000D+00  E=-7.990574D-01
              MO Center=  1.1D+01,  1.1D+01,  9.8D+00, r^2= 3.2D+00
   Bfn.  Coefficient  Atom+Function         Bfn.  Coefficient  Atom+Function  
  ----- ------------  ---------------      ----- ------------  ---------------
   205      0.320793   9 O  px              203      0.313237   9 O  s         
   206      0.209590   9 O  py              182     -0.184386   8 F  pz        
    52     -0.175496   3 C  s               202      0.168220   9 O  s         
   208      0.162324   9 O  px              181      0.154502   8 F  py        
   228      0.152441  10 O  s                56     -0.150319   3 C  py        
 
 Vector   26  Occ=1.000000D+00  E=-7.650364D-01
              MO Center=  1.0D+01,  9.2D+00,  1.0D+01, r^2= 3.3D+00
   Bfn.  Coefficient  Atom+Function         Bfn.  Coefficient  Atom+Function  
  ----- ------------  ---------------      ----- ------------  ---------------
    34      0.526902   2 C  py                3      0.465981   1 C  s         
    53     -0.315204   3 C  s                 9      0.311969   1 C  py        
    81     -0.292134   4 F  py              182     -0.260701   8 F  pz        
    10      0.256206   1 C  pz               59      0.252966   3 C  py        
   181     -0.251186   8 F  py              157     -0.226683   7 F  pz        
 
 Vector   27  Occ=1.000000D+00  E=-7.521357D-01
              MO Center=  1.0D+01,  8.3D+00,  9.4D+00, r^2= 2.4D+00
   Bfn.  Coefficient  Atom+Function         Bfn.  Coefficient  Atom+Function  
  ----- ------------  ---------------      ----- ------------  ---------------
   131      0.374731   6 F  py               81     -0.290416   4 F  py        
   105      0.280037   5 F  px              134      0.264389   6 F  py        
    84     -0.206712   4 F  py              106      0.199458   5 F  py        
   108      0.193827   5 F  px               82     -0.192796   4 F  pz        
 
 Vector   28  Occ=1.000000D+00  E=-7.514730D-01
              MO Center=  1.0D+01,  8.5D+00,  9.4D+00, r^2= 2.8D+00
   Bfn.  Coefficient  Atom+Function         Bfn.  Coefficient  Atom+Function  
  ----- ------------  ---------------      ----- ------------  ---------------
   132     -0.324209   6 F  pz              106      0.299940   5 F  py        
    82     -0.262313   4 F  pz              135     -0.224427   6 F  pz        
   109      0.205060   5 F  py               85     -0.181557   4 F  pz        
    80     -0.177663   4 F  px               29      0.162640   2 C  s         
   131     -0.163389   6 F  py              107      0.160949   5 F  pz        
 
 Vector   29  Occ=1.000000D+00  E=-7.408830D-01
              MO Center=  1.0D+01,  9.7D+00,  1.1D+01, r^2= 2.9D+00
   Bfn.  Coefficient  Atom+Function         Bfn.  Coefficient  Atom+Function  
  ----- ------------  ---------------      ----- ------------  ---------------
   181      0.450147   8 F  py              156     -0.372591   7 F  py        
   184      0.333074   8 F  py              159     -0.276428   7 F  py        
    46     -0.217774   2 C  dxy       
 
 Vector   30  Occ=1.000000D+00  E=-7.171806D-01
              MO Center=  1.0D+01,  1.0D+01,  1.0D+01, r^2= 4.4D+00
   Bfn.  Coefficient  Atom+Function         Bfn.  Coefficient  Atom+Function  
  ----- ------------  ---------------      ----- ------------  ---------------
   107      0.270524   5 F  pz              182     -0.231953   8 F  pz        
   207      0.220208   9 O  pz              156      0.192948   7 F  py        
   110      0.185625   5 F  pz               56      0.179201   3 C  py        
   185     -0.168402   8 F  pz              231      0.162235  10 O  py        
   180      0.152649   8 F  px              210      0.150038   9 O  pz        
 
 Vector   31  Occ=1.000000D+00  E=-7.134280D-01
              MO Center=  1.0D+01,  8.9D+00,  9.7D+00, r^2= 3.7D+00
   Bfn.  Coefficient  Atom+Function         Bfn.  Coefficient  Atom+Function  
  ----- ------------  ---------------      ----- ------------  ---------------
    81      0.263710   4 F  py              107     -0.248355   5 F  pz        
    80      0.224956   4 F  px              130      0.217829   6 F  px        
   105      0.209143   5 F  px              132     -0.203291   6 F  pz        
   155      0.199479   7 F  px               84      0.190012   4 F  py        
   180      0.172414   8 F  px              110     -0.169377   5 F  pz        
 
 Vector   32  Occ=1.000000D+00  E=-7.071630D-01
              MO Center=  9.9D+00,  9.2D+00,  9.7D+00, r^2= 4.0D+00
   Bfn.  Coefficient  Atom+Function         Bfn.  Coefficient  Atom+Function  
  ----- ------------  ---------------      ----- ------------  ---------------
   107      0.272087   5 F  pz              131     -0.243417   6 F  py        
    34      0.226044   2 C  py              157      0.206744   7 F  pz        
   156     -0.203634   7 F  py               53     -0.200599   3 C  s         
   130      0.200445   6 F  px               80      0.189824   4 F  px        
   110      0.183163   5 F  pz              134     -0.178540   6 F  py        
 
 Vector   33  Occ=1.000000D+00  E=-6.984816D-01
              MO Center=  9.9D+00,  9.0D+00,  1.0D+01, r^2= 3.4D+00
   Bfn.  Coefficient  Atom+Function         Bfn.  Coefficient  Atom+Function  
  ----- ------------  ---------------      ----- ------------  ---------------
   105      0.318942   5 F  px              155     -0.291366   7 F  px        
   180     -0.260193   8 F  px              157     -0.238363   7 F  pz        
   131     -0.233340   6 F  py              108      0.222239   5 F  px        
    81      0.201988   4 F  py              158     -0.200763   7 F  px        
   182      0.183244   8 F  pz              183     -0.180765   8 F  px        
 
 Vector   34  Occ=1.000000D+00  E=-6.938781D-01
              MO Center=  9.9D+00,  9.4D+00,  9.4D+00, r^2= 4.4D+00
   Bfn.  Coefficient  Atom+Function         Bfn.  Coefficient  Atom+Function  
  ----- ------------  ---------------      ----- ------------  ---------------
   132      0.305080   6 F  pz              105      0.264934   5 F  px        
   135      0.213248   6 F  pz               80     -0.207216   4 F  px        
   131     -0.207484   6 F  py              108      0.183383   5 F  px        
   207     -0.168952   9 O  pz              206     -0.161060   9 O  py        
    82     -0.157655   4 F  pz        
 
 Vector   35  Occ=1.000000D+00  E=-6.919251D-01
              MO Center=  1.0D+01,  1.0D+01,  9.7D+00, r^2= 4.6D+00
   Bfn.  Coefficient  Atom+Function         Bfn.  Coefficient  Atom+Function  
  ----- ------------  ---------------      ----- ------------  ---------------
   206      0.216603   9 O  py              105      0.199658   5 F  px        
   207      0.185784   9 O  pz              232      0.183785  10 O  pz        
    55     -0.178132   3 C  px              157      0.165807   7 F  pz        
    82     -0.159741   4 F  pz              132      0.154419   6 F  pz        
    81      0.151783   4 F  py              156     -0.150697   7 F  py        
 
 Vector   36  Occ=1.000000D+00  E=-6.703118D-01
              MO Center=  9.7D+00,  1.1D+01,  9.8D+00, r^2= 3.1D+00
   Bfn.  Coefficient  Atom+Function         Bfn.  Coefficient  Atom+Function  
  ----- ------------  ---------------      ----- ------------  ---------------
   230      0.327934  10 O  px              228     -0.256945  10 O  s         
    34     -0.240181   2 C  py                3     -0.227116   1 C  s         
    57     -0.224951   3 C  pz               55     -0.218336   3 C  px        
   182     -0.212946   8 F  pz               53      0.211592   3 C  s         
    29     -0.203081   2 C  s               207     -0.199838   9 O  pz        
 
 Vector   37  Occ=1.000000D+00  E=-6.133593D-01
              MO Center=  1.0D+01,  9.4D+00,  1.0D+01, r^2= 3.1D+00
   Bfn.  Coefficient  Atom+Function         Bfn.  Coefficient  Atom+Function  
  ----- ------------  ---------------      ----- ------------  ---------------
    31     -0.241771   2 C  py                6      0.230026   1 C  py        
   156      0.228713   7 F  py              181      0.208147   8 F  py        
   106     -0.190125   5 F  py               34     -0.188228   2 C  py        
   131     -0.178464   6 F  py              159      0.170708   7 F  py        
     7      0.163878   1 C  pz               81     -0.161433   4 F  py        
 
 Vector   38  Occ=1.000000D+00  E=-5.097925D-01
              MO Center=  9.6D+00,  1.2D+01,  9.3D+00, r^2= 1.6D+00
   Bfn.  Coefficient  Atom+Function         Bfn.  Coefficient  Atom+Function  
  ----- ------------  ---------------      ----- ------------  ---------------
   232      0.367761  10 O  pz              231      0.325897  10 O  py        
   207     -0.314622   9 O  pz              235      0.275103  10 O  pz        
   234      0.247798  10 O  py              210     -0.241721   9 O  pz        
   206     -0.175990   9 O  py        
 
 Vector   39  Occ=1.000000D+00  E=-4.983083D-01
              MO Center=  9.3D+00,  1.1D+01,  9.4D+00, r^2= 1.8D+00
   Bfn.  Coefficient  Atom+Function         Bfn.  Coefficient  Atom+Function  
  ----- ------------  ---------------      ----- ------------  ---------------
   231      0.375652  10 O  py              232     -0.302379  10 O  pz        
   234      0.282375  10 O  py              230      0.277366  10 O  px        
   235     -0.226044  10 O  pz              233      0.211035  10 O  px        
    31      0.194333   2 C  py               53      0.175174   3 C  s         
   206      0.159005   9 O  py        
 
 Vector   40  Occ=0.000000D+00  E=-4.122984D-03
              MO Center=  1.1D+01,  1.2D+01,  9.4D+00, r^2= 2.2D+00
   Bfn.  Coefficient  Atom+Function         Bfn.  Coefficient  Atom+Function  
  ----- ------------  ---------------      ----- ------------  ---------------
    54      0.695913   3 C  s               205      0.297698   9 O  px        
    62     -0.279661   3 C  py              206     -0.275705   9 O  py        
   208      0.268315   9 O  px                4     -0.266570   1 C  s         
    29     -0.261046   2 C  s               209     -0.259714   9 O  py        
   204     -0.250136   9 O  s               211      0.248352   9 O  px        
 
 Vector   41  Occ=0.000000D+00  E= 5.993042D-02
              MO Center=  1.0D+01,  1.1D+01,  1.1D+01, r^2= 1.4D+01
   Bfn.  Coefficient  Atom+Function         Bfn.  Coefficient  Atom+Function  
  ----- ------------  ---------------      ----- ------------  ---------------
     4      6.224326   1 C  s                29     -4.663400   2 C  s         
    38      2.879855   2 C  pz               62      1.468377   3 C  py        
    54      1.091085   3 C  s                53      1.002009   3 C  s         
   204     -0.896154   9 O  s               104     -0.805091   5 F  s         
    37      0.798893   2 C  py               63     -0.796336   3 C  pz        
 
 Vector   42  Occ=0.000000D+00  E= 6.785542D-02
              MO Center=  1.0D+01,  8.0D+00,  9.2D+00, r^2= 1.9D+01
   Bfn.  Coefficient  Atom+Function         Bfn.  Coefficient  Atom+Function  
  ----- ------------  ---------------      ----- ------------  ---------------
     4     11.544469   1 C  s                54     -9.703971   3 C  s         
    29     -4.147606   2 C  s                37      4.055796   2 C  py        
    12      3.621283   1 C  py               62      2.925158   3 C  py        
    13      2.047656   1 C  pz              229      1.639406  10 O  s         
   204      1.420857   9 O  s                63     -0.938941   3 C  pz        
 
 Vector   43  Occ=0.000000D+00  E= 7.332845D-02
              MO Center=  1.0D+01,  1.1D+01,  9.6D+00, r^2= 1.7D+01
   Bfn.  Coefficient  Atom+Function         Bfn.  Coefficient  Atom+Function  
  ----- ------------  ---------------      ----- ------------  ---------------
    29     12.571247   2 C  s                54     -7.963385   3 C  s         
     4     -2.834823   1 C  s                62      2.842177   3 C  py        
    38     -2.595623   2 C  pz               63     -1.782736   3 C  pz        
    37      1.375043   2 C  py               28     -1.135488   2 C  s         
    53      1.124593   3 C  s                13     -1.005496   1 C  pz        
 
 Vector   44  Occ=0.000000D+00  E= 8.807968D-02
              MO Center=  1.0D+01,  1.0D+01,  1.0D+01, r^2= 1.2D+01
   Bfn.  Coefficient  Atom+Function         Bfn.  Coefficient  Atom+Function  
  ----- ------------  ---------------      ----- ------------  ---------------
    29      9.624804   2 C  s                54     -6.260018   3 C  s         
     4     -2.940175   1 C  s                38     -2.344264   2 C  pz        
    37      1.875781   2 C  py               62      1.150162   3 C  py        
    11     -1.029191   1 C  px               63     -1.031247   3 C  pz        
   154     -0.756931   7 F  s                12     -0.714790   1 C  py        
 
 Vector   45  Occ=0.000000D+00  E= 9.065237D-02
              MO Center=  9.8D+00,  1.0D+01,  9.9D+00, r^2= 1.4D+01
   Bfn.  Coefficient  Atom+Function         Bfn.  Coefficient  Atom+Function  
  ----- ------------  ---------------      ----- ------------  ---------------
    29      4.374737   2 C  s                 4     -3.114556   1 C  s         
    38     -2.003907   2 C  pz               11      1.372462   1 C  px        
   204     -1.174863   9 O  s                54     -0.980635   3 C  s         
   179     -0.868686   8 F  s                62     -0.803265   3 C  py        
    13      0.770125   1 C  pz               61      0.746296   3 C  px        
 
 Vector   46  Occ=0.000000D+00  E= 1.075275D-01
[...]
    11      2.790081   1 C  px               61     -2.012146   3 C  px        
   137     -1.432346   6 F  py              129      1.381139   6 F  s         
    21     -1.296232   1 C  dxy              36     -1.231807   2 C  px        
    87      1.198110   4 F  py               38      1.141197   2 C  pz        
 
 Vector   71  Occ=0.000000D+00  E= 3.604316D-01
              MO Center=  1.1D+01,  9.5D+00,  9.5D+00, r^2= 1.3D+01
   Bfn.  Coefficient  Atom+Function         Bfn.  Coefficient  Atom+Function  
  ----- ------------  ---------------      ----- ------------  ---------------
    54      6.392321   3 C  s               204     -4.576697   9 O  s         
    28      3.314833   2 C  s                 4     -3.020055   1 C  s         
    63      2.598311   3 C  pz               62     -2.343183   3 C  py        
    37     -2.323485   2 C  py               11      2.186003   1 C  px        
    38     -2.082980   2 C  pz               29      2.010712   2 C  s         
 
 Vector   72  Occ=0.000000D+00  E= 3.624337D-01
              MO Center=  9.5D+00,  1.0D+01,  9.9D+00, r^2= 1.3D+01
   Bfn.  Coefficient  Atom+Function         Bfn.  Coefficient  Atom+Function  
  ----- ------------  ---------------      ----- ------------  ---------------
    54      7.834597   3 C  s                29     -4.603604   2 C  s         
   229     -4.409623  10 O  s                28      4.034924   2 C  s         
    62     -2.923001   3 C  py               61     -2.515532   3 C  px        
    11     -2.229578   1 C  px               38     -2.078959   2 C  pz        
     3     -2.020733   1 C  s                63      1.963936   3 C  pz        
 
 Vector   73  Occ=0.000000D+00  E= 3.723245D-01
              MO Center=  1.0D+01,  9.3D+00,  9.4D+00, r^2= 9.1D+00
   Bfn.  Coefficient  Atom+Function         Bfn.  Coefficient  Atom+Function  
  ----- ------------  ---------------      ----- ------------  ---------------
    54     10.457208   3 C  s                 4     -6.645179   1 C  s         
    29     -3.197576   2 C  s                62     -2.811843   3 C  py        
    53     -2.648191   3 C  s                34      2.524062   2 C  py        
     9      2.046003   1 C  py                3      1.939519   1 C  s         
    37     -1.917488   2 C  py               61      1.839083   3 C  px        
 
 Vector   74  Occ=0.000000D+00  E= 3.784308D-01
              MO Center=  1.0D+01,  9.5D+00,  1.1D+01, r^2= 1.2D+01
   Bfn.  Coefficient  Atom+Function         Bfn.  Coefficient  Atom+Function  
  ----- ------------  ---------------      ----- ------------  ---------------
    36      6.021364   2 C  px              161     -3.265220   7 F  px        
   186     -3.227263   8 F  px               61     -2.573437   3 C  px        
    11     -1.863634   1 C  px              154     -1.780895   7 F  s         
   204     -1.479818   9 O  s               179      1.435831   8 F  s         
   229      1.407371  10 O  s               187      1.023876   8 F  py        
 
 Vector   75  Occ=0.000000D+00  E= 3.867161D-01
              MO Center=  1.0D+01,  9.1D+00,  1.0D+01, r^2= 9.5D+00
   Bfn.  Coefficient  Atom+Function         Bfn.  Coefficient  Atom+Function  
  ----- ------------  ---------------      ----- ------------  ---------------
     4      4.329566   1 C  s                37     -2.327312   2 C  py        
    28     -2.095396   2 C  s               129     -2.051952   6 F  s         
    36      1.880872   2 C  px               79     -1.703088   4 F  s         
    13      1.652709   1 C  pz               61     -1.589233   3 C  px        
   187      1.499762   8 F  py              229     -1.459601  10 O  s         
 
 Vector   76  Occ=0.000000D+00  E= 3.900969D-01
              MO Center=  9.6D+00,  9.2D+00,  1.0D+01, r^2= 1.1D+01
   Bfn.  Coefficient  Atom+Function         Bfn.  Coefficient  Atom+Function  
  ----- ------------  ---------------      ----- ------------  ---------------
    36      5.080574   2 C  px               37      2.697596   2 C  py        
    61     -2.690657   3 C  px               29     -2.626119   2 C  s         
     4     -2.440912   1 C  s               104      2.215728   5 F  s         
    79      1.935210   4 F  s                54      1.783930   3 C  s         
   162     -1.761512   7 F  py               12     -1.727392   1 C  py        
 
 Vector   77  Occ=0.000000D+00  E= 3.937489D-01
              MO Center=  1.0D+01,  9.2D+00,  9.5D+00, r^2= 1.3D+01
   Bfn.  Coefficient  Atom+Function         Bfn.  Coefficient  Atom+Function  
  ----- ------------  ---------------      ----- ------------  ---------------
     4     13.525111   1 C  s                29    -11.241092   2 C  s         
    37      6.811000   2 C  py               54     -5.983688   3 C  s         
    63     -2.817759   3 C  pz               36     -2.725785   2 C  px        
   229      2.726870  10 O  s                38      2.639726   2 C  pz        
   112      2.594088   5 F  py                3     -2.332308   1 C  s         
 
 Vector   78  Occ=0.000000D+00  E= 4.068982D-01
              MO Center=  9.9D+00,  9.5D+00,  1.0D+01, r^2= 9.6D+00
   Bfn.  Coefficient  Atom+Function         Bfn.  Coefficient  Atom+Function  
  ----- ------------  ---------------      ----- ------------  ---------------
     4     12.112458   1 C  s                54     -8.780136   3 C  s         
    29     -6.433483   2 C  s                28      3.616034   2 C  s         
   229      3.203203  10 O  s               204      3.133059   9 O  s         
    62      2.741579   3 C  py               12      2.698500   1 C  py        
   104     -1.873718   5 F  s               113      1.774167   5 F  pz        
 
 Vector   79  Occ=0.000000D+00  E= 4.138855D-01
              MO Center=  1.0D+01,  9.5D+00,  1.0D+01, r^2= 8.0D+00
   Bfn.  Coefficient  Atom+Function         Bfn.  Coefficient  Atom+Function  
  ----- ------------  ---------------      ----- ------------  ---------------
    54      4.375783   3 C  s                 4     -3.902717   1 C  s         
    36     -3.783230   2 C  px               37     -3.057064   2 C  py        
    11      2.782727   1 C  px              137     -1.546766   6 F  py        
   163     -1.369386   7 F  pz               63      1.326533   3 C  pz        
   161      1.271124   7 F  px              129     -1.166120   6 F  s         
 
 Vector   80  Occ=0.000000D+00  E= 4.248834D-01
              MO Center=  9.9D+00,  9.9D+00,  1.0D+01, r^2= 7.3D+00
   Bfn.  Coefficient  Atom+Function         Bfn.  Coefficient  Atom+Function  
  ----- ------------  ---------------      ----- ------------  ---------------
    29     22.594488   2 C  s                 4     -8.812085   1 C  s         
    54     -8.699799   3 C  s               179     -4.014062   8 F  s         
    37      3.538978   2 C  py              154     -3.401630   7 F  s         
    38     -3.130062   2 C  pz               28     -3.031241   2 C  s         
    53      2.694660   3 C  s                12     -2.375454   1 C  py        
 
 Vector   81  Occ=0.000000D+00  E= 4.299216D-01
              MO Center=  1.0D+01,  9.5D+00,  9.7D+00, r^2= 1.0D+01
   Bfn.  Coefficient  Atom+Function         Bfn.  Coefficient  Atom+Function  
  ----- ------------  ---------------      ----- ------------  ---------------
    54     15.981251   3 C  s                 4    -13.224586   1 C  s         
    37     -7.522931   2 C  py              204     -7.349560   9 O  s         
   229     -3.727941  10 O  s                29      3.397803   2 C  s         
    13     -2.698479   1 C  pz               63      2.691124   3 C  pz        
   129      2.219340   6 F  s                53      2.127733   3 C  s         
 
 Vector   82  Occ=0.000000D+00  E= 4.428038D-01
              MO Center=  9.7D+00,  9.3D+00,  9.7D+00, r^2= 1.2D+01
   Bfn.  Coefficient  Atom+Function         Bfn.  Coefficient  Atom+Function  
  ----- ------------  ---------------      ----- ------------  ---------------
   229      6.024809  10 O  s                54     -5.172763   3 C  s         
    79     -2.897264   4 F  s               129      2.895125   6 F  s         
    86      1.889174   4 F  px              111      1.868118   5 F  px        
    58      1.826095   3 C  px              236      1.785479  10 O  px        
    37      1.721226   2 C  py               22     -1.598176   1 C  dxz       
 
 Vector   83  Occ=0.000000D+00  E= 4.517091D-01
              MO Center=  9.9D+00,  9.4D+00,  1.0D+01, r^2= 6.3D+00
   Bfn.  Coefficient  Atom+Function         Bfn.  Coefficient  Atom+Function  
  ----- ------------  ---------------      ----- ------------  ---------------
    29      3.890598   2 C  s               229     -2.996008  10 O  s         
     4     -2.962582   1 C  s               204     -2.801312   9 O  s         
    54      2.371884   3 C  s               104     -2.047062   5 F  s         
    62     -1.765591   3 C  py              112     -1.717162   5 F  py        
    59      1.536150   3 C  py                3      1.468465   1 C  s         
 
 Vector   84  Occ=0.000000D+00  E= 4.892374D-01
              MO Center=  1.0D+01,  9.5D+00,  9.9D+00, r^2= 9.3D+00
   Bfn.  Coefficient  Atom+Function         Bfn.  Coefficient  Atom+Function  
  ----- ------------  ---------------      ----- ------------  ---------------
    79      5.912250   4 F  s                29      5.106351   2 C  s         
   179     -5.068208   8 F  s                54     -4.153842   3 C  s         
   104     -3.875411   5 F  s               154      3.085352   7 F  s         
    33      3.015140   2 C  px               10      2.639873   1 C  pz        
    36     -2.493432   2 C  px               37      2.275253   2 C  py        
 
 Vector   85  Occ=0.000000D+00  E= 4.937324D-01
              MO Center=  9.7D+00,  8.8D+00,  1.0D+01, r^2= 9.6D+00
   Bfn.  Coefficient  Atom+Function         Bfn.  Coefficient  Atom+Function  
  ----- ------------  ---------------      ----- ------------  ---------------
    29      7.147506   2 C  s               104     -7.101488   5 F  s         
   154     -5.211765   7 F  s               129      4.137843   6 F  s         
    54     -3.970143   3 C  s                37      3.323504   2 C  py        
    10      3.285238   1 C  pz               33     -2.288300   2 C  px        
   112     -2.206238   5 F  py               53      2.073463   3 C  s         
 
 Vector   86  Occ=0.000000D+00  E= 5.147553D-01
              MO Center=  1.0D+01,  9.9D+00,  9.7D+00, r^2= 1.0D+01
   Bfn.  Coefficient  Atom+Function         Bfn.  Coefficient  Atom+Function  
  ----- ------------  ---------------      ----- ------------  ---------------
    54      8.461703   3 C  s               204     -6.562023   9 O  s         
   179      5.858945   8 F  s                 4     -5.323422   1 C  s         
    79      5.200078   4 F  s                29     -4.665801   2 C  s         
   129     -3.792885   6 F  s               229      3.385350  10 O  s         
   154     -3.189112   7 F  s                 8     -2.900191   1 C  px        
 

 center of mass
 --------------
 x =  19.00717393 y =  18.22328787 z =  18.64524654

 moments of inertia (a.u.)
 ------------------
        1624.648077991469           7.813966475082          -7.858083586036
           7.813966475082         943.665414581612           3.024830448931
          -7.858083586036           3.024830448931        1588.393713036907
 
  Mulliken analysis of the total density
  --------------------------------------

    Atom       Charge   Shell Charges
 -----------   ------   -------------------------------------------------------
    1 C    6     4.13   2.01  0.67 -0.19 -0.06  1.71 -0.33  0.00  0.30  0.02
    2 C    6     5.09   2.01  0.67  0.19 -0.32  1.80  0.49  0.02  0.23 -0.00
    3 C    6     4.94   2.01  0.69  0.08 -0.02  1.89  0.13  0.02  0.25 -0.10
    4 F    9     9.58   2.01  0.87  1.13  0.12  3.31  2.09  0.09 -0.01 -0.02
    5 F    9     9.57   2.01  0.87  1.13  0.12  3.31  2.09  0.09 -0.01 -0.02
    6 F    9     9.57   2.01  0.87  1.13  0.12  3.31  2.09  0.09 -0.01 -0.02
    7 F    9     9.65   2.01  0.87  1.13  0.15  3.30  2.12  0.11 -0.01 -0.02
    8 F    9     9.66   2.01  0.87  1.13  0.15  3.30  2.13  0.10 -0.01 -0.02
    9 O    8     8.22   2.01  0.86  1.01  0.12  2.69  1.53  0.05  0.01 -0.04
   10 O    8     8.59   2.01  0.83  1.01  0.14  2.74  1.77  0.12  0.01 -0.03
 
  Mulliken analysis of the alpha density
  --------------------------------------

    Atom       Charge   Shell Charges
 -----------   ------   -------------------------------------------------------
    1 C    6     2.06   1.00  0.34 -0.10 -0.03  0.86 -0.17  0.00  0.15  0.01
    2 C    6     2.58   1.00  0.34  0.10 -0.16  0.91  0.25  0.01  0.12  0.01
    3 C    6     2.37   1.00  0.34  0.03 -0.02  0.92  0.04  0.01  0.13 -0.08
    4 F    9     4.79   1.00  0.43  0.56  0.06  1.65  1.05  0.05 -0.01 -0.01
    5 F    9     4.78   1.00  0.43  0.56  0.06  1.65  1.04  0.04 -0.01 -0.01
    6 F    9     4.79   1.00  0.43  0.56  0.06  1.65  1.04  0.04 -0.01 -0.01
    7 F    9     4.83   1.00  0.43  0.57  0.08  1.65  1.06  0.05 -0.01 -0.01
    8 F    9     4.83   1.00  0.43  0.57  0.08  1.65  1.06  0.05 -0.01 -0.01
    9 O    8     4.64   1.00  0.44  0.51  0.06  1.69  0.94  0.03  0.00 -0.03
   10 O    8     4.32   1.00  0.42  0.50  0.07  1.40  0.89  0.06  0.00 -0.02
 
   Mulliken analysis of the beta density
   -------------------------------------

    Atom       Charge   Shell Charges
 -----------   ------   -------------------------------------------------------
    1 C    6     2.06   1.00  0.34 -0.10 -0.03  0.86 -0.17  0.00  0.15  0.01
    2 C    6     2.51   1.00  0.34  0.09 -0.16  0.89  0.23  0.01  0.12 -0.01
    3 C    6     2.56   1.00  0.35  0.05 -0.01  0.97  0.08  0.01  0.12 -0.02
    4 F    9     4.79   1.00  0.43  0.56  0.06  1.65  1.05  0.05 -0.01 -0.01
    5 F    9     4.78   1.00  0.43  0.56  0.06  1.65  1.04  0.04 -0.01 -0.01
    6 F    9     4.79   1.00  0.43  0.56  0.06  1.65  1.04  0.04 -0.01 -0.01
    7 F    9     4.82   1.00  0.43  0.57  0.08  1.65  1.06  0.05 -0.01 -0.01
    8 F    9     4.83   1.00  0.43  0.57  0.07  1.65  1.06  0.05 -0.01 -0.01
    9 O    8     3.58   1.00  0.41  0.50  0.06  1.00  0.59  0.02  0.01 -0.02
   10 O    8     4.27   1.00  0.41  0.51  0.07  1.34  0.89  0.06  0.00 -0.01
 
   Mulliken analysis of the spin density
   -------------------------------------

    Atom       Charge   Shell Charges
 -----------   ------   -------------------------------------------------------
    1 C    6     0.00   0.00  0.00 -0.00  0.00 -0.00  0.00 -0.00  0.00  0.00
    2 C    6     0.07   0.00  0.00  0.01  0.00  0.02  0.02  0.00 -0.00  0.02
    3 C    6    -0.19  -0.00 -0.01 -0.03 -0.01 -0.05 -0.04  0.00  0.01 -0.07
    4 F    9     0.00  -0.00 -0.00  0.00  0.00  0.00  0.00  0.00 -0.00  0.00
    5 F    9     0.00   0.00  0.00 -0.00 -0.00  0.00 -0.00 -0.00 -0.00 -0.00
    6 F    9    -0.00  -0.00 -0.00  0.00 -0.00 -0.00  0.00 -0.00  0.00  0.00
    7 F    9     0.00   0.00  0.00 -0.00  0.00  0.00 -0.00 -0.00 -0.00 -0.00
    8 F    9     0.00   0.00  0.00 -0.00  0.00 -0.00 -0.00  0.00  0.00  0.00
    9 O    8     1.06  -0.00  0.03  0.01 -0.00  0.69  0.35  0.00 -0.00 -0.01
   10 O    8     0.05  -0.00  0.00 -0.00 -0.01  0.06  0.00 -0.00 -0.00 -0.01
 
       Multipole analysis of the density wrt the origin
       ------------------------------------------------
 
     L   x y z        total         alpha         beta         nuclear
     -   - - -        -----         -----         ----         -------
     0   0 0 0      0.000000    -40.000000    -39.000000     79.000000
 
     1   1 0 0      0.709973   -760.731238   -740.041380   1501.482591
     1   0 1 0     -0.288667   -732.952360   -710.742516   1443.406209
     1   0 0 1      0.216606   -744.794861   -727.072957   1472.084424
 
     2   2 0 0    -14.851930 -14599.987685 -14170.472310  28755.608065
     2   1 1 0     10.215809 -13939.444013 -13479.986078  27429.645900
     2   1 0 1     16.480155 -14166.442247 -13799.650969  27982.573370
     2   0 2 0    -52.329284 -13736.722550 -13242.736340  26927.129606
     2   0 1 1      0.265813 -13642.254726 -13249.021509  26891.542047
     2   0 0 2    -31.890318 -14005.409034 -13690.914989  27664.433705
 

 Task  times  cpu:       59.0s     wall:       44.5s
 
 
                                NWChem Input Module
                                -------------------
 
 
 Summary of allocated global arrays
-----------------------------------
  No active global arrays



                         GA Statistics for process    0
                         ------------------------------

       create   destroy   get      put      acc     scatter   gather  read&inc
calls: 2691     2691     3.13e+04 4909     4.09e+04  251        0     1496     
number of processes/call 6.38e+00 8.89e+00 3.64e+00 0.00e+00 0.00e+00
bytes total:             7.94e+08 1.90e+08 3.45e+08 0.00e+00 0.00e+00 1.20e+04
bytes remote:            7.60e+08 1.68e+08 2.68e+08 -4.00e+02 0.00e+00 0.00e+00
Max memory consumed for GA by this process: 99104 bytes
 
MA_summarize_allocated_blocks: starting scan ...
MA_summarize_allocated_blocks: scan completed: 0 heap blocks, 0 stack blocks
MA usage statistics:

	allocation statistics:
					      heap	     stack
					      ----	     -----
	current number of blocks	         0	         0
	maximum number of blocks	        16	        14
	current total bytes		         0	         0
	maximum total bytes		    773304	  22521096
	maximum total K-bytes		       774	     22522
	maximum total M-bytes		         1	        23
 
 
                                     CITATION
                                     --------
                Please cite the following reference when publishing
                           results obtained with NWChem:
 
                 M. Valiev, E.J. Bylaska, N. Govind, K. Kowalski,
              T.P. Straatsma, H.J.J. van Dam, D. Wang, J. Nieplocha,
                        E. Apra, T.L. Windus, W.A. de Jong
                 "NWChem: a comprehensive and scalable open-source
                  solution for large scale molecular simulations"
                      Comput. Phys. Commun. 181, 1477 (2010)
                           doi:10.1016/j.cpc.2010.04.018
 
                                      AUTHORS
                                      -------
          E. Apra, E. J. Bylaska, W. A. de Jong, N. Govind, K. Kowalski,
       T. P. Straatsma, M. Valiev, H. J. J. van Dam, D. Wang, T. L. Windus,
        J. Hammond, J. Autschbach, K. Bhaskaran-Nair, J. Brabec, K. Lopata,
    S. A. Fischer, S. Krishnamoorthy, M. Jacquelin, W. Ma, M. Klemm, O. Villa,
      Y. Chen, V. Anisimov, F. Aquino, S. Hirata, M. T. Hackler, V. Konjkov,
            D. Mejia-Rodriguez, T. Risthaus, M. Malagoli, A. Marenich,
   A. Otero-de-la-Roza, J. Mullin, P. Nichols, R. Peverati, J. Pittner, Y. Zhao,
        P.-D. Fan, A. Fonari, M. J. Williamson, R. J. Harrison, J. R. Rehr,
      M. Dupuis, D. Silverstein, D. M. A. Smith, J. Nieplocha, V. Tipparaju,
    M. Krishnan, B. E. Van Kuiken, A. Vazquez-Mayagoitia, L. Jensen, M. Swart,
      Q. Wu, T. Van Voorhis, A. A. Auer, M. Nooijen, L. D. Crosby, E. Brown,
      G. Cisneros, G. I. Fann, H. Fruchtl, J. Garza, K. Hirao, R. A. Kendall,
      J. A. Nichols, K. Tsemekhman, K. Wolinski, J. Anchell, D. E. Bernholdt,
      P. Borowski, T. Clark, D. Clerc, H. Dachsel, M. J. O. Deegan, K. Dyall,
    D. Elwood, E. Glendening, M. Gutowski, A. C. Hess, J. Jaffe, B. G. Johnson,
     J. Ju, R. Kobayashi, R. Kutteh, Z. Lin, R. Littlefield, X. Long, B. Meng,
      T. Nakajima, S. Niu, L. Pollack, M. Rosing, K. Glaesemann, G. Sandrone,
      M. Stave, H. Taylor, G. Thomas, J. H. van Lenthe, A. T. Wong, Z. Zhang.

 Total times  cpu:       59.1s     wall:       44.7s
Job finished on bc4u21n1 at Wed Jan  5 18:22:02 CST 2022
