 vasp.5.4.4.18Apr17-6-g9f103f2a35 (build May 01 2020 14:57:12) complex          
  
 executed on             LinuxIFC date 2020.10.20  05:48:22
 running on   96 total cores
 distrk:  each k-point on   24 cores,    4 groups
 distr:  one band on NCORES_PER_BAND=   1 cores,   24 groups


--------------------------------------------------------------------------------------------------------


 INCAR:
 POTCAR:    PAW_PBE B 06Sep2000                   
 POTCAR:    PAW_PBE N 08Apr2002                   
 POTCAR:    PAW_PBE C 08Apr2002                   
 POTCAR:    PAW_PBE F 08Apr2002                   
 POTCAR:    PAW_PBE O 08Apr2002                   

 ----------------------------------------------------------------------------- 
|                                                                             |
|           W    W    AA    RRRRR   N    N  II  N    N   GGGG   !!!           |
|           W    W   A  A   R    R  NN   N  II  NN   N  G    G  !!!           |
|           W    W  A    A  R    R  N N  N  II  N N  N  G       !!!           |
|           W WW W  AAAAAA  RRRRR   N  N N  II  N  N N  G  GGG   !            |
|           WW  WW  A    A  R   R   N   NN  II  N   NN  G    G                |
|           W    W  A    A  R    R  N    N  II  N    N   GGGG   !!!           |
|                                                                             |
|      For optimal performance we recommend to set                            |
|        NCORE= 4 - approx SQRT( number of cores)                             |
|      NCORE specifies how many cores store one orbital (NPAR=cpu/NCORE).     |
|      This setting can  greatly improve the performance of VASP for DFT.     |
|      The default,   NCORE=1            might be grossly inefficient         |
|      on modern multi-core architectures or massively parallel machines.     |
|      Do your own testing !!!!                                               |
|      Unfortunately you need to use the default for GW and RPA calculations. |
|      (for HF NCORE is supported but not extensively tested yet)             |
|                                                                             |
 ----------------------------------------------------------------------------- 


 ----------------------------------------------------------------------------- 
|                                                                             |
|           W    W    AA    RRRRR   N    N  II  N    N   GGGG   !!!           |
|           W    W   A  A   R    R  NN   N  II  NN   N  G    G  !!!           |
|           W    W  A    A  R    R  N N  N  II  N N  N  G       !!!           |
|           W WW W  AAAAAA  RRRRR   N  N N  II  N  N N  G  GGG   !            |
|           WW  WW  A    A  R   R   N   NN  II  N   NN  G    G                |
|           W    W  A    A  R    R  N    N  II  N    N   GGGG   !!!           |
|                                                                             |
|      You have enabled k-point parallelism (KPAR>1).                         |
|      This developmental code was originally  written by Paul Kent at ORNL,  |
|      and carefully double checked in Vienna.                                |
|      GW as well as linear response parallelism added by Martijn Marsman     |
|      and Georg Kresse.                                                      |
|      Carefully verify results versus KPAR=1.                                |
|      Report problems to Paul Kent and Vienna.                               |
|                                                                             |
 ----------------------------------------------------------------------------- 

 POTCAR:    PAW_PBE B 06Sep2000                   
   VRHFIN =B: s2p1                                                              
   LEXCH  = PE                                                                  
   EATOM  =    71.1703 eV,    5.2309 Ry                                         
                                                                                
   TITEL  = PAW_PBE B 06Sep2000                                                 
   LULTRA =        F    use ultrasoft PP ?                                      
   IUNSCR =        1    unscreen: 0-lin 1-nonlin 2-no                           
   RPACOR =    1.200    partial core radius                                     
   POMASS =   10.811; ZVAL   =    3.000    mass and valenz                      
   RCORE  =    1.700    outmost cutoff radius                                   
   RWIGS  =    1.710; RWIGS  =    0.905    wigner-seitz radius (au A)           
   ENMAX  =  318.614; ENMIN  =  238.960 eV                                      
   ICORE  =        2    local potential                                         
   LCOR   =        T    correct aug charges                                     
   LPAW   =        T    paw PP                                                  
   EAUG   =  535.514                                                            
   DEXC   =    0.000                                                            
   RMAX   =    1.732    core radius for proj-oper                               
   RAUG   =    1.300    factor for augmentation sphere                          
   RDEP   =    1.757    radius for radial grids                                 
   RDEPT  =    1.436    core radius for aug-charge                              
                                                                                
   Atomic configuration                                                         
    4 entries                                                                   
     n  l   j            E        occ.                                          
     1  0  0.50      -180.5896   2.0000                                         
     2  0  0.50        -9.4431   2.0000                                         
     2  1  0.50        -3.6068   1.0000                                         
     3  2  1.50        -4.0817   0.0000                                         
   Description                                                                  
     l       E           TYP  RCUT    TYP  RCUT                                 
     0     -9.4430752     23  1.500                                             
     0      0.8675899     23  1.500                                             
     1     -3.6067955     23  1.700                                             
     1      6.1086146     23  1.700                                             
     2     -4.0817478      7  1.700                                             
  local pseudopotential read in
  partial core-charges read in
  partial kinetic energy density read in
  atomic valenz-charges read in
  non local Contribution for L=           0  read in
    real space projection operators read in
  non local Contribution for L=           0  read in
    real space projection operators read in
  non local Contribution for L=           1  read in
    real space projection operators read in
  non local Contribution for L=           1  read in
    real space projection operators read in
    PAW grid and wavefunctions read in
 
   number of l-projection  operators is LMAX  =           4
   number of lm-projection operators is LMMAX =           8
 
 POTCAR:    PAW_PBE N 08Apr2002                   
   VRHFIN =N: s2p3                                                              
   LEXCH  = PE                                                                  
   EATOM  =   264.5486 eV,   19.4438 Ry                                         
                                                                                
   TITEL  = PAW_PBE N 08Apr2002                                                 
   LULTRA =        F    use ultrasoft PP ?                                      
   IUNSCR =        1    unscreen: 0-lin 1-nonlin 2-no                           
   RPACOR =    1.200    partial core radius                                     
   POMASS =   14.001; ZVAL   =    5.000    mass and valenz                      
   RCORE  =    1.500    outmost cutoff radius                                   
   RWIGS  =    1.400; RWIGS  =    0.741    wigner-seitz radius (au A)           
   ENMAX  =  400.000; ENMIN  =  300.000 eV                                      
   ICORE  =        2    local potential                                         
   LCOR   =        T    correct aug charges                                     
   LPAW   =        T    paw PP                                                  
   EAUG   =  627.112                                                            
   DEXC   =    0.000                                                            
   RMAX   =    1.529    core radius for proj-oper                               
   RAUG   =    1.300    factor for augmentation sphere                          
   RDEP   =    1.514    radius for radial grids                                 
   RDEPT  =    1.338    core radius for aug-charge                              
                                                                                
   Atomic configuration                                                         
    4 entries                                                                   
     n  l   j            E        occ.                                          
     1  0  0.50      -384.7179   2.0000                                         
     2  0  0.50       -18.5828   2.0000                                         
     2  1  0.50        -7.0898   3.0000                                         
     3  2  1.50        -6.8029   0.0000                                         
   Description                                                                  
     l       E           TYP  RCUT    TYP  RCUT                                 
     0    -18.5828119     23  1.200                                             
     0    -13.5018863     23  1.200                                             
     1     -7.0897853     23  1.500                                             
     1      9.5240782     23  1.500                                             
     2     -6.8029130      7  1.500                                             
  local pseudopotential read in
  partial core-charges read in
  partial kinetic energy density read in
  atomic valenz-charges read in
  non local Contribution for L=           0  read in
    real space projection operators read in
  non local Contribution for L=           0  read in
    real space projection operators read in
  non local Contribution for L=           1  read in
    real space projection operators read in
  non local Contribution for L=           1  read in
    real space projection operators read in
    PAW grid and wavefunctions read in
 
   number of l-projection  operators is LMAX  =           4
   number of lm-projection operators is LMMAX =           8
 
 POTCAR:    PAW_PBE C 08Apr2002                   
   VRHFIN =C: s2p2                                                              
   LEXCH  = PE                                                                  
   EATOM  =   147.1560 eV,   10.8157 Ry                                         
                                                                                
   TITEL  = PAW_PBE C 08Apr2002                                                 
   LULTRA =        F    use ultrasoft PP ?                                      
   IUNSCR =        1    unscreen: 0-lin 1-nonlin 2-no                           
   RPACOR =    1.200    partial core radius                                     
   POMASS =   12.011; ZVAL   =    4.000    mass and valenz                      
   RCORE  =    1.500    outmost cutoff radius                                   
   RWIGS  =    1.630; RWIGS  =    0.863    wigner-seitz radius (au A)           
   ENMAX  =  400.000; ENMIN  =  300.000 eV                                      
   ICORE  =        2    local potential                                         
   LCOR   =        T    correct aug charges                                     
   LPAW   =        T    paw PP                                                  
   EAUG   =  644.873                                                            
   DEXC   =    0.000                                                            
   RMAX   =    1.529    core radius for proj-oper                               
   RAUG   =    1.300    factor for augmentation sphere                          
   RDEP   =    1.501    radius for radial grids                                 
   RDEPT  =    1.300    core radius for aug-charge                              
                                                                                
   Atomic configuration                                                         
    4 entries                                                                   
     n  l   j            E        occ.                                          
     1  0  0.50      -273.3789   2.0000                                         
     2  0  0.50       -13.7508   2.0000                                         
     2  1  0.50        -5.2854   2.0000                                         
     3  2  1.50        -5.4423   0.0000                                         
   Description                                                                  
     l       E           TYP  RCUT    TYP  RCUT                                 
     0    -13.7508458     23  1.200                                             
     0     -8.2022199     23  1.200                                             
     1     -5.2854383     23  1.500                                             
     1     34.0145650     23  1.500                                             
     2     -5.4423304      7  1.500                                             
  local pseudopotential read in
  partial core-charges read in
  partial kinetic energy density read in
  atomic valenz-charges read in
  non local Contribution for L=           0  read in
    real space projection operators read in
  non local Contribution for L=           0  read in
    real space projection operators read in
  non local Contribution for L=           1  read in
    real space projection operators read in
  non local Contribution for L=           1  read in
    real space projection operators read in
    PAW grid and wavefunctions read in
 
   number of l-projection  operators is LMAX  =           4
   number of lm-projection operators is LMMAX =           8
 
 POTCAR:    PAW_PBE F 08Apr2002                   
   VRHFIN =F: s2p5                                                              
   LEXCH  = PE                                                                  
   EATOM  =   659.6475 eV,   48.4827 Ry                                         
                                                                                
   TITEL  = PAW_PBE F 08Apr2002                                                 
   LULTRA =        F    use ultrasoft PP ?                                      
   IUNSCR =        1    unscreen: 0-lin 1-nonlin 2-no                           
   RPACOR =    1.200    partial core radius                                     
   POMASS =   18.998; ZVAL   =    7.000    mass and valenz                      
   RCORE  =    1.520    outmost cutoff radius                                   
   RWIGS  =    1.500; RWIGS  =    0.794    wigner-seitz radius (au A)           
   ENMAX  =  400.000; ENMIN  =  300.000 eV                                      
   ICORE  =        2    local potential                                         
   LCOR   =        T    correct aug charges                                     
   LPAW   =        T    paw PP                                                  
   EAUG   =  613.614                                                            
   RMAX   =    1.555    core radius for proj-oper                               
   RAUG   =    1.300    factor for augmentation sphere                          
   RDEP   =    1.539    radius for radial grids                                 
   RDEPT  =    1.299    core radius for aug-charge                              
                                                                                
   Atomic configuration                                                         
    4 entries                                                                   
     n  l   j            E        occ.                                          
     1  0  0.50      -663.3661   2.0000                                         
     2  0  0.50       -29.8995   2.0000                                         
     2  1  0.50       -11.1114   5.0000                                         
     3  2  1.50       -10.8847   0.0000                                         
   Description                                                                  
     l       E           TYP  RCUT    TYP  RCUT                                 
     0    -29.8995018     23  1.200                                             
     0     -9.5240782     23  1.200                                             
     1    -11.1113914     23  1.520                                             
     1      1.3605826     23  1.520                                             
     2    -10.8846608      7  1.500                                             
  local pseudopotential read in
  partial core-charges read in
  partial kinetic energy density read in
  atomic valenz-charges read in
  non local Contribution for L=           0  read in
    real space projection operators read in
  non local Contribution for L=           0  read in
    real space projection operators read in
  non local Contribution for L=           1  read in
    real space projection operators read in
  non local Contribution for L=           1  read in
    real space projection operators read in
    PAW grid and wavefunctions read in
 
   number of l-projection  operators is LMAX  =           4
   number of lm-projection operators is LMMAX =           8
 
 POTCAR:    PAW_PBE O 08Apr2002                   
   VRHFIN =O: s2p4                                                              
   LEXCH  = PE                                                                  
   EATOM  =   432.3788 eV,   31.7789 Ry                                         
                                                                                
   TITEL  = PAW_PBE O 08Apr2002                                                 
   LULTRA =        F    use ultrasoft PP ?                                      
   IUNSCR =        1    unscreen: 0-lin 1-nonlin 2-no                           
   RPACOR =    1.200    partial core radius                                     
   POMASS =   16.000; ZVAL   =    6.000    mass and valenz                      
   RCORE  =    1.520    outmost cutoff radius                                   
   RWIGS  =    1.550; RWIGS  =    0.820    wigner-seitz radius (au A)           
   ENMAX  =  400.000; ENMIN  =  300.000 eV                                      
   ICORE  =        2    local potential                                         
   LCOR   =        T    correct aug charges                                     
   LPAW   =        T    paw PP                                                  
   EAUG   =  605.392                                                            
   DEXC   =    0.000                                                            
   RMAX   =    1.553    core radius for proj-oper                               
   RAUG   =    1.300    factor for augmentation sphere                          
   RDEP   =    1.550    radius for radial grids                                 
   RDEPT  =    1.329    core radius for aug-charge                              
                                                                                
   Atomic configuration                                                         
    4 entries                                                                   
     n  l   j            E        occ.                                          
     1  0  0.50      -514.6923   2.0000                                         
     2  0  0.50       -23.9615   2.0000                                         
     2  1  0.50        -9.0305   4.0000                                         
     3  2  1.50        -9.5241   0.0000                                         
   Description                                                                  
     l       E           TYP  RCUT    TYP  RCUT                                 
     0    -23.9615318     23  1.200                                             
     0     -9.5240782     23  1.200                                             
     1     -9.0304911     23  1.520                                             
     1      8.1634956     23  1.520                                             
     2     -9.5240782      7  1.500                                             
  local pseudopotential read in
  partial core-charges read in
  partial kinetic energy density read in
  kinetic energy density of atom read in
  atomic valenz-charges read in
  non local Contribution for L=           0  read in
    real space projection operators read in
  non local Contribution for L=           0  read in
    real space projection operators read in
  non local Contribution for L=           1  read in
    real space projection operators read in
  non local Contribution for L=           1  read in
    real space projection operators read in
    PAW grid and wavefunctions read in
 
   number of l-projection  operators is LMAX  =           4
   number of lm-projection operators is LMMAX =           8
 
 Optimization of the real space projectors (new method)

 maximal supplied QI-value         = 22.11
 optimisation between [QCUT,QGAM] = [ 11.94, 23.88] = [ 39.92,159.67] Ry 
 Optimized for a Real-space Cutoff    1.18 Angstroem

   l    n(q)    QCUT    max X(q) W(low)/X(q) W(high)/X(q)  e(spline) 
   0      8    11.939    53.033    0.11E-03    0.34E-03    0.60E-07
   0      8    11.939    34.740    0.11E-03    0.34E-03    0.59E-07
   1      8    11.939    30.949    0.22E-03    0.20E-03    0.17E-06
   1      8    11.939    19.518    0.20E-03    0.18E-03    0.16E-06
 Optimization of the real space projectors (new method)

 maximal supplied QI-value         = 25.13
 optimisation between [QCUT,QGAM] = [ 11.81, 23.88] = [ 39.08,159.64] Ry 
 Optimized for a Real-space Cutoff    1.41 Angstroem

   l    n(q)    QCUT    max X(q) W(low)/X(q) W(high)/X(q)  e(spline) 
   0     10    11.813    79.467    0.48E-04    0.30E-04    0.67E-06
   0     10    11.813    66.151    0.47E-04    0.30E-04    0.67E-06
   1     10    11.813    20.169    0.11E-03    0.17E-03    0.11E-05
   1     10    11.813    14.454    0.11E-03    0.17E-03    0.11E-05
 Optimization of the real space projectors (new method)

 maximal supplied QI-value         = 25.13
 optimisation between [QCUT,QGAM] = [ 11.81, 23.88] = [ 39.08,159.64] Ry 
 Optimized for a Real-space Cutoff    1.18 Angstroem

   l    n(q)    QCUT    max X(q) W(low)/X(q) W(high)/X(q)  e(spline) 
   0      8    11.813   115.676    0.10E-03    0.16E-03    0.35E-06
   0      8    11.813    87.132    0.10E-03    0.16E-03    0.35E-06
   1      8    11.813     4.429    0.16E-03    0.13E-04    0.22E-06
   1      8    11.813     2.733    0.13E-03    0.10E-04    0.18E-06
 Optimization of the real space projectors (new method)

 maximal supplied QI-value         = 24.76
 optimisation between [QCUT,QGAM] = [ 11.88, 24.01] = [ 39.54,161.47] Ry 
 Optimized for a Real-space Cutoff    1.18 Angstroem

   l    n(q)    QCUT    max X(q) W(low)/X(q) W(high)/X(q)  e(spline) 
   0      8    11.883    14.049    0.56E-04    0.86E-04    0.22E-06
   0      8    11.883     8.945    0.81E-04    0.11E-03    0.30E-06
   1      8    11.883     7.086    0.16E-03    0.15E-04    0.31E-06
   1      8    11.883     6.747    0.15E-03    0.14E-04    0.28E-06
 Optimization of the real space projectors (new method)

 maximal supplied QI-value         = 24.76
 optimisation between [QCUT,QGAM] = [ 11.88, 24.01] = [ 39.54,161.47] Ry 
 Optimized for a Real-space Cutoff    1.18 Angstroem

   l    n(q)    QCUT    max X(q) W(low)/X(q) W(high)/X(q)  e(spline) 
   0      8    11.883    20.381    0.86E-04    0.11E-03    0.31E-06
   0      8    11.883    15.268    0.94E-04    0.12E-03    0.33E-06
   1      8    11.883     5.964    0.19E-03    0.18E-04    0.33E-06
   1      8    11.883     5.382    0.17E-03    0.20E-04    0.29E-06
  PAW_PBE B 06Sep2000                   :
 energy of atom  1       EATOM=  -71.1703
 kinetic energy error for atom=    0.0009 (will be added to EATOM!!)
  PAW_PBE N 08Apr2002                   :
 energy of atom  2       EATOM= -264.5486
 kinetic energy error for atom=    0.0116 (will be added to EATOM!!)
  PAW_PBE C 08Apr2002                   :
 energy of atom  3       EATOM= -147.1560
 kinetic energy error for atom=    0.0066 (will be added to EATOM!!)
  PAW_PBE F 08Apr2002                   :
 energy of atom  4       EATOM= -659.6475
 kinetic energy error for atom=    0.0296 (will be added to EATOM!!)
  PAW_PBE O 08Apr2002                   :
 energy of atom  5       EATOM= -432.3788
 kinetic energy error for atom=    0.0194 (will be added to EATOM!!)
 
 
 POSCAR: B N C F O                               
  positions in direct lattice
  velocities in cartesian coordinates

 METAGGA = SCAN     LMAXTAU =  6    LMIXTAU =  F

 exchange correlation table for  LEXCH =        8
   RHO(1)=    0.500       N(1)  =     2000
   RHO(2)=  100.500       N(2)  =     4000
 


--------------------------------------------------------------------------------------------------------


 ion  position               nearest neighbor table
   1  0.167  0.083  0.502-  17 1.45  20 1.45  21 1.45
   2  0.167  0.333  0.502-  17 1.45  18 1.45  22 1.45
   3  0.167  0.583  0.502-  18 1.45  19 1.45  23 1.45
   4  0.167  0.833  0.502-  20 1.45  19 1.45  24 1.45
   5  0.417  0.083  0.502-  21 1.45  25 1.45  24 1.45
   6  0.417  0.333  0.502-  21 1.45  22 1.45  26 1.45
   7  0.417  0.583  0.502-  22 1.45  27 1.45  23 1.45
   8  0.417  0.834  0.502-  28 1.45  24 1.45  23 1.45
   9  0.667  0.083  0.502-  29 1.45  28 1.45  25 1.45
  10  0.667  0.333  0.502-  30 1.45  25 1.45  26 1.45
  11  0.667  0.583  0.502-  31 1.45  26 1.45  27 1.45
  12  0.667  0.834  0.502-  32 1.45  28 1.45  27 1.45
  13  0.917  0.083  0.502-  17 1.45  29 1.45  32 1.45
  14  0.917  0.333  0.502-  29 1.45  30 1.45  18 1.45
  15  0.917  0.583  0.502-  30 1.45  19 1.45  31 1.45
  16  0.917  0.833  0.502-  20 1.45  32 1.45  31 1.45
  17  0.083  0.167  0.502-   2 1.45   1 1.45  13 1.45
  18  0.083  0.417  0.502-   3 1.45   2 1.45  14 1.45
  19  0.083  0.667  0.502-   3 1.45   4 1.45  15 1.45
  20  0.083  0.917  0.502-   4 1.45  16 1.45   1 1.45
  21  0.333  0.167  0.502-   6 1.45   5 1.45   1 1.45
  22  0.333  0.417  0.502-   7 1.45   6 1.45   2 1.45
  23  0.333  0.667  0.502-   7 1.45   8 1.45   3 1.45
  24  0.333  0.917  0.502-   8 1.45   5 1.45   4 1.45
  25  0.583  0.167  0.502-  10 1.45   5 1.45   9 1.45
  26  0.583  0.417  0.502-   6 1.45  11 1.45  10 1.45
  27  0.583  0.667  0.502-   7 1.45  11 1.45  12 1.45
  28  0.583  0.917  0.502-   8 1.45  12 1.45   9 1.45
  29  0.833  0.167  0.502-   9 1.45  14 1.45  13 1.45
  30  0.833  0.417  0.502-  10 1.45  15 1.45  14 1.45
  31  0.833  0.667  0.502-  11 1.45  15 1.45  16 1.45
  32  0.833  0.917  0.502-  12 1.45  16 1.45  13 1.45
  33  0.564  0.447  0.653-  36 1.34  38 1.34  37 1.35  34 1.51
  34  0.547  0.398  0.612-  39 1.33  40 1.33  33 1.51
  35  0.472  0.787  0.606-  41 1.16  42 1.16
  36  0.699  0.577  0.659-  33 1.34
  37  0.560  0.339  0.677-  33 1.35
  38  0.450  0.473  0.663-  33 1.34
  39  0.662  0.382  0.599-  34 1.33
  40  0.411  0.278  0.604-  34 1.33
  41  0.603  0.868  0.602-  35 1.16
  42  0.340  0.707  0.611-  35 1.16
 

IMPORTANT INFORMATION: All symmetrisations will be switched off!
NOSYMM: (Re-)initialisation of all symmetry stuff for point group C_1.

 
 
 KPOINTS: K-Point Grid                            

Automatic generation of k-mesh.
Space group operators:
 irot       det(A)        alpha          n_x          n_y          n_z        tau_x        tau_y        tau_z
    1     1.000000     0.000000     1.000000     0.000000     0.000000     0.000000     0.000000     0.000000
 
 Subroutine IBZKPT returns following result:
 ===========================================
 
 Found     24 irreducible k-points:
 
 Following reciprocal coordinates:
            Coordinates               Weight
  0.125000  0.125000  0.000000     16.000000
  0.250000 -0.125000  0.000000     16.000000
  0.125000 -0.250000  0.000000     16.000000
  0.375000  0.125000  0.000000     16.000000
  0.500000 -0.375000  0.000000     16.000000
  0.125000  0.500000  0.000000     16.000000
 -0.125000 -0.375000  0.000000     16.000000
  0.375000  0.500000  0.000000     16.000000
  0.500000 -0.125000  0.000000     16.000000
 -0.375000  0.125000  0.000000     16.000000
 -0.250000  0.375000  0.000000     16.000000
  0.125000  0.250000  0.000000     16.000000
 -0.125000  0.375000  0.000000     16.000000
 -0.375000  0.250000  0.000000     16.000000
 -0.250000 -0.125000  0.000000     16.000000
 -0.125000  0.125000  0.000000     16.000000
  0.000000  0.125000  0.000000     16.000000
  0.125000  0.000000  0.000000     16.000000
  0.375000  0.375000  0.000000     16.000000
 -0.250000 -0.375000  0.000000     16.000000
  0.375000  0.250000  0.000000     16.000000
 -0.375000  0.375000  0.000000     16.000000
  0.000000  0.375000  0.000000     16.000000
  0.375000  0.000000  0.000000     16.000000
 
 Following cartesian coordinates:
            Coordinates               Weight
  0.024879  0.000000  0.000000     16.000000
  0.012439 -0.021546  0.000000     16.000000
 -0.012439 -0.021546  0.000000     16.000000
  0.049758 -0.014364  0.000000     16.000000
  0.012439 -0.050273  0.000000     16.000000
  0.062197  0.021546  0.000000     16.000000
 -0.049758 -0.014364  0.000000     16.000000
  0.087076  0.007182  0.000000     16.000000
  0.037318 -0.035909  0.000000     16.000000
 -0.024879  0.028727  0.000000     16.000000
  0.012439  0.035909  0.000000     16.000000
  0.037318  0.007182  0.000000     16.000000
  0.024879  0.028727  0.000000     16.000000
 -0.012439  0.035909  0.000000     16.000000
 -0.037318  0.007182  0.000000     16.000000
  0.000000  0.014364  0.000000     16.000000
  0.012439  0.007182  0.000000     16.000000
  0.012439 -0.007182  0.000000     16.000000
  0.074636  0.000000  0.000000     16.000000
 -0.062197 -0.007182  0.000000     16.000000
  0.062197 -0.007182  0.000000     16.000000
  0.000000  0.043091  0.000000     16.000000
  0.037318  0.021546  0.000000     16.000000
  0.037318 -0.021546  0.000000     16.000000
 


--------------------------------------------------------------------------------------------------------




 Dimension of arrays:
   k-points           NKPTS =     24   k-points in BZ     NKDIM =     24   number of bands    NBANDS=    144
   number of dos      NEDOS =   1200   number of ions     NIONS =     42
   non local maximal  LDIM  =      4   non local SUM 2l+1 LMDIM =      8
   total plane-waves  NPLWV = ******
   max r-space proj   IRMAX =   6598   max aug-charges    IRDMAX=   8974
   dimension x,y,z NGX =    80 NGY =   80 NGZ =  270
   dimension x,y,z NGXF=   160 NGYF=  160 NGZF=  540
   support grid    NGXF=   160 NGYF=  160 NGZF=  540
   ions per type =              16  16   3   5   2
   NGX,Y,Z   is equivalent  to a cutoff of  13.24, 13.24, 12.78 a.u.
   NGXF,Y,Z  is equivalent  to a cutoff of  26.47, 26.47, 25.57 a.u.

 SYSTEM =  SiC                                     
 POSCAR =  B N C F O                               

 Startparameter for this run:
   NWRITE =      2    write-flag & timer
   PREC   = accura    normal or accurate (medium, high low for compatibility)
   ISTART =      1    job   : 0-new  1-cont  2-samecut
   ICHARG =      0    charge: 1-file 2-atom 10-const
   ISPIN  =      2    spin polarized calculation?
   LNONCOLLINEAR =      F non collinear calculations
   LSORBIT =      F    spin-orbit coupling
   INIWAV =      1    electr: 0-lowe 1-rand  2-diag
   LASPH  =      T    aspherical Exc in radial PAW
   METAGGA=      F    non-selfconsistent MetaGGA calc.

 Electronic Relaxation 1
   ENCUT  =  550.0 eV  40.42 Ry    6.36 a.u.  19.22 19.22 67.15*2*pi/ulx,y,z
   ENINI  =  550.0     initial cutoff
   ENAUG  =  644.9 eV  augmentation charge cutoff
   NELM   =    100;   NELMIN=  2; NELMDL=  0     # of ELM steps 
   EDIFF  = 0.1E-04   stopping-criterion for ELM
   LREAL  =      T    real-space projection
   NLSPLINE    = F    spline interpolate recip. space projectors
   LCOMPAT=      F    compatible to vasp.4.4
   GGA_COMPAT  = T    GGA compatible to vasp.4.4-vasp.4.6
   LMAXPAW     = -100 max onsite density
   LMAXMIX     =    2 max onsite mixed and CHGCAR
   VOSKOWN=      0    Vosko Wilk Nusair interpolation
   ROPT   =   -0.00025  -0.00025  -0.00025  -0.00025
   ROPT   =   -0.00025
 Ionic relaxation
   EDIFFG = -.2E-01   stopping-criterion for IOM
   NSW    =    500    number of steps for IOM
   NBLOCK =      1;   KBLOCK =    500    inner block; outer block 
   IBRION =      2    ionic relax: 0-MD 1-quasi-New 2-CG
   NFREE  =      1    steps in history (QN), initial steepest desc. (CG)
   ISIF   =      2    stress and relaxation
   IWAVPR =     11    prediction:  0-non 1-charg 2-wave 3-comb
   ISYM   =      0    0-nonsym 1-usesym 2-fastsym
   LCORR  =      T    Harris-Foulkes like correction to forces

   POTIM  = 0.5000    time-step for ionic-motion
   TEIN   =    0.0    initial temperature
   TEBEG  =    0.0;   TEEND  =   0.0 temperature during run
   SMASS  =  -3.00    Nose mass-parameter (am)
   estimated Nose-frequenzy (Omega)   =  0.10E-29 period in steps =****** mass=  -0.231E-26a.u.
   SCALEE = 1.0000    scale energy and forces
   NPACO  =    256;   APACO  = 16.0  distance and # of slots for P.C.
   PSTRESS=    0.0 pullay stress

  Mass of Ions in am
   POMASS =  10.81 14.00 12.01 19.00 16.00
  Ionic Valenz
   ZVAL   =   3.00  5.00  4.00  7.00  6.00
  Atomic Wigner-Seitz radii
   RWIGS  =  -1.00 -1.00 -1.00 -1.00 -1.00
  virtual crystal weights 
   VCA    =   1.00  1.00  1.00  1.00  1.00
   NELECT =     186.4000    total number of electrons
   NUPDOWN=      -1.0000    fix difference up-down

 DOS related values:
   EMIN   =  10.00;   EMAX   =-10.00  energy-range for DOS
   EFERMI =   0.00
   ISMEAR =     0;   SIGMA  =   0.05  broadening in eV -4-tet -1-fermi 0-gaus

 Electronic relaxation 2 (details)
   IALGO  =     68    algorithm
   LDIAG  =      T    sub-space diagonalisation (order eigenvalues)
   LSUBROT=      F    optimize rotation matrix (better conditioning)
   TURBO    =      0    0=normal 1=particle mesh
   IRESTART =      0    0=no restart 2=restart with 2 vectors
   NREBOOT  =      0    no. of reboots
   NMIN     =      0    reboot dimension
   EREF     =   0.00    reference energy to select bands
   IMIX   =      4    mixing-type and parameters
     AMIX     =   0.40;   BMIX     =  1.00
     AMIX_MAG =   1.60;   BMIX_MAG =  1.00
     AMIN     =   0.10
     WC   =   100.;   INIMIX=   1;  MIXPRE=   1;  MAXMIX= -45

 Intra band minimization:
   WEIMIN = 0.0010     energy-eigenvalue tresh-hold
   EBREAK =  0.17E-07  absolut break condition
   DEPER  =   0.30     relativ break condition  

   TIME   =   0.40     timestep for ELM

  volume/ion in A,a.u.               =      73.11       493.39
  Fermi-wavevector in a.u.,A,eV,Ry     =   0.643392  1.215834  5.632173  0.413953
  Thomas-Fermi vector in A             =   1.710376
 
 Write flags
   LWAVE        =      T    write WAVECAR
   LDOWNSAMPLE  =      F    k-point downsampling of WAVECAR
   LCHARG       =      F    write CHGCAR
   LVTOT        =      F    write LOCPOT, total local potential
   LVHAR        =      T    write LOCPOT, Hartree potential only
   LELF         =      F    write electronic localiz. function (ELF)
   LORBIT       =     11    0 simple, 1 ext, 2 COOP (PROOUT), +10 PAW based schemes


 Dipole corrections
   LMONO  =      F    monopole corrections only (constant potential shift)
   LDIPOL =      F    correct potential (dipole corrections)
   IDIPOL =      0    1-x, 2-y, 3-z, 4-all directions 
   EPSILON=  1.0000000 bulk dielectric constant

 Exchange correlation treatment:
   GGA     =    --    GGA type
   LEXCH   =     8    internal setting for exchange type
   VOSKOWN=      0    Vosko Wilk Nusair interpolation
   LHFCALC =     F    Hartree Fock is set to
   LHFONE  =     F    Hartree Fock one center treatment
   AEXX    =    0.0000 exact exchange contribution

 Linear response parameters
   LEPSILON=     F    determine dielectric tensor
   LRPA    =     F    only Hartree local field effects (RPA)
   LNABLA  =     F    use nabla operator in PAW spheres
   LVEL    =     F    velocity operator in full k-point grid
   LINTERFAST=   F  fast interpolation
   KINTER  =     0    interpolate to denser k-point grid
   CSHIFT  =0.1000    complex shift for real part using Kramers Kronig
   OMEGAMAX=  -1.0    maximum frequency
   DEG_THRESHOLD= 0.2000000E-02 threshold for treating states as degnerate
   RTIME   =   -0.100 relaxation time in fs
  (WPLASMAI=    0.000 imaginary part of plasma frequency in eV, 0.658/RTIME)
   DFIELD  = 0.0000000 0.0000000 0.0000000 field for delta impulse in time
 
 Orbital magnetization related:
   ORBITALMAG=     F  switch on orbital magnetization
   LCHIMAG   =     F  perturbation theory with respect to B field
   DQ        =  0.001000  dq finite difference perturbation B field
   LLRAUG    =     F  two centre corrections for induced B field

 Solvation model:
   LSOL    =     T         switch on solvation model
   EB_K    = 78.400000     relative permittivity of the bulk solvent
   SIGMA_K =  0.600000     width of the dielectric cavity
   NC_K    =  0.002500     cutoff charge density
   TAU     =  0.000000     cavity surface tension
   LAMBDA_D_K    =  3.040000     Debye length in Angstroms
   LRHOB     =     F     write boundcharge  density
   LRHOION     =     F     write ioniccharge density



--------------------------------------------------------------------------------------------------------


 conjugate gradient relaxation of ions
   using selective dynamics as specified on POSCAR
 charge density and potential will be updated during run
 spin polarized calculation
 RMM-DIIS sequential band-by-band and
  variant of blocked Davidson during initial phase
 perform sub-space diagonalisation
    before iterative eigenvector-optimisation
 modified Broyden-mixing scheme, WC =      100.0
 initial mixing is a Kerker type mixing with AMIX =  0.4000 and BMIX =      1.0000
 Hartree-type preconditioning will be used
 using additional bands           50
 real space projection scheme for non local part
 use partial core corrections
 calculate Harris-corrections to forces 
   (improved forces if not selfconsistent)
 use gradient corrections 
 use of overlap-Matrix (Vanderbilt PP)
 Gauss-broadening in eV      SIGMA  =   0.05


--------------------------------------------------------------------------------------------------------


  energy-cutoff  :      550.00
  volume of cell :     3070.74
      direct lattice vectors                 reciprocal lattice vectors
     5.024366704 -8.702497373  0.000000000     0.099515029 -0.057454772  0.000000000
     5.024366704  8.702497373  0.000000000     0.099515029  0.057454772  0.000000000
     0.000000000  0.000000000 35.114664386     0.000000000  0.000000000  0.028478131

  length of vectors
    10.048767154 10.048767154 35.114664386     0.114909929  0.114909929  0.028478131


 
 old parameters found on file WAVECAR:
  energy-cutoff  :      550.00
  volume of cell :     3070.74
      direct lattice vectors                 reciprocal lattice vectors
     5.024366704 -8.702497373  0.000000000     0.099515029 -0.057454772  0.000000000
     5.024366704  8.702497373  0.000000000     0.099515029  0.057454772  0.000000000
     0.000000000  0.000000000 35.114664386     0.000000000  0.000000000  0.028478131

  length of vectors

 
 k-points in units of 2pi/SCALE and weight: K-Point Grid                            
   0.02487876  0.00000000  0.00000000       0.042
   0.01243938 -0.02154554  0.00000000       0.042
  -0.01243938 -0.02154554  0.00000000       0.042
   0.04975751 -0.01436369  0.00000000       0.042
   0.01243938 -0.05027293  0.00000000       0.042
   0.06219689  0.02154554  0.00000000       0.042
  -0.04975751 -0.01436369  0.00000000       0.042
   0.08707565  0.00718185  0.00000000       0.042
   0.03731814 -0.03590923  0.00000000       0.042
  -0.02487876  0.02872739  0.00000000       0.042
   0.01243938  0.03590923  0.00000000       0.042
   0.03731814  0.00718185  0.00000000       0.042
   0.02487876  0.02872739  0.00000000       0.042
  -0.01243938  0.03590923  0.00000000       0.042
  -0.03731814  0.00718185  0.00000000       0.042
   0.00000000  0.01436369  0.00000000       0.042
   0.01243938  0.00718185  0.00000000       0.042
   0.01243938 -0.00718185  0.00000000       0.042
   0.07463627  0.00000000  0.00000000       0.042
  -0.06219689 -0.00718185  0.00000000       0.042
   0.06219689 -0.00718185  0.00000000       0.042
   0.00000000  0.04309108  0.00000000       0.042
   0.03731814  0.02154554  0.00000000       0.042
   0.03731814 -0.02154554  0.00000000       0.042
 
 k-points in reciprocal lattice and weights: K-Point Grid                            
   0.12500000  0.12500000  0.00000000       0.042
   0.25000000 -0.12500000  0.00000000       0.042
   0.12500000 -0.25000000  0.00000000       0.042
   0.37500000  0.12500000  0.00000000       0.042
   0.50000000 -0.37500000  0.00000000       0.042
   0.12500000  0.50000000  0.00000000       0.042
  -0.12500000 -0.37500000  0.00000000       0.042
   0.37500000  0.50000000  0.00000000       0.042
   0.50000000 -0.12500000  0.00000000       0.042
  -0.37500000  0.12500000  0.00000000       0.042
  -0.25000000  0.37500000  0.00000000       0.042
   0.12500000  0.25000000  0.00000000       0.042
  -0.12500000  0.37500000  0.00000000       0.042
  -0.37500000  0.25000000  0.00000000       0.042
  -0.25000000 -0.12500000  0.00000000       0.042
  -0.12500000  0.12500000  0.00000000       0.042
   0.00000000  0.12500000  0.00000000       0.042
   0.12500000  0.00000000  0.00000000       0.042
   0.37500000  0.37500000  0.00000000       0.042
  -0.25000000 -0.37500000  0.00000000       0.042
   0.37500000  0.25000000  0.00000000       0.042
  -0.37500000  0.37500000  0.00000000       0.042
   0.00000000  0.37500000  0.00000000       0.042
   0.37500000  0.00000000  0.00000000       0.042
 
 position of ions in fractional coordinates (direct lattice) 
   0.16655320  0.08346530  0.50211956
   0.16654213  0.33344862  0.50215970
   0.16656106  0.58346857  0.50213908
   0.16656179  0.83347596  0.50211104
   0.41657984  0.08348919  0.50209023
   0.41654565  0.33344200  0.50213768
   0.41657139  0.58346114  0.50209421
   0.41658510  0.83352721  0.50193338
   0.66659490  0.08348255  0.50208607
   0.66660865  0.33347264  0.50217969
   0.66660975  0.58348780  0.50219644
   0.66660176  0.83352347  0.50207502
   0.91657931  0.08348105  0.50212890
   0.91657509  0.33347176  0.50214656
   0.91657467  0.58346416  0.50215890
   0.91657513  0.83347603  0.50213984
   0.08323871  0.16680640  0.50215286
   0.08325134  0.41681355  0.50216935
   0.08324576  0.66680806  0.50214259
   0.08323460  0.91680430  0.50213987
   0.33323729  0.16680615  0.50208919
   0.33324196  0.41680610  0.50215599
   0.33328301  0.66684501  0.50206709
   0.33324604  0.91681868  0.50203524
   0.58324914  0.16682299  0.50216122
   0.58322868  0.41680018  0.50223740
   0.58324134  0.66681288  0.50218811
   0.58321460  0.91680350  0.50195391
   0.83324011  0.16680679  0.50211227
   0.83323414  0.41680443  0.50216032
   0.83323070  0.66679339  0.50216118
   0.83323257  0.91680574  0.50211555
   0.56449292  0.44723378  0.65339058
   0.54717971  0.39807511  0.61227153
   0.47194225  0.78745357  0.60636639
   0.69945064  0.57650797  0.65858387
   0.56010887  0.33940049  0.67729556
   0.45017735  0.47271189  0.66326955
   0.66178313  0.38159945  0.59908163
   0.41127207  0.27822500  0.60380379
   0.60338040  0.86776621  0.60192430
   0.34043436  0.70666170  0.61061710
 
 position of ions in cartesian coordinates  (Angst):
   1.25618463 -0.72307220 17.63175989
   2.51213687  1.45250333 17.63316947
   3.76842387  3.62813650 17.63244523
   5.02455640  5.80381885 17.63146059
   2.51253018 -2.89872049 17.63072995
   3.76821295 -0.72320930 17.63239613
   5.02453015  1.45235768 17.63086980
   6.28102270  3.62843763 17.62522207
   3.76866417 -5.07453367 17.63058379
   5.02477516 -2.89911524 17.63387111
   6.28094853 -0.72336858 17.63445935
   7.53717930  1.45263575 17.63019586
   5.02466999 -7.25003538 17.63208767
   6.28069380 -5.07445520 17.63270790
   7.53674513 -2.89889332 17.63314131
   8.79289880 -0.72316975 17.63247209
   1.25631832  0.72724766 17.63292905
   2.51250939  2.90282421 17.63350811
   3.76854544  5.07844943 17.63256840
   5.02456215  7.25413809 17.63247286
   2.51240159 -1.44836657 17.63069324
   3.76851649  0.72721667 17.63303897
   5.02500995  2.90282240 17.62991736
   6.28078354  5.07853940 17.62879885
   3.76863744 -3.62394749 17.63322285
   5.02451171 -1.44834360 17.63589784
   6.28073084  0.72728110 17.63416689
   7.53664103  2.90305650 17.62594292
   5.02460235 -5.79963419 17.63150383
   6.28065219 -3.62397843 17.63319104
   7.53667109 -1.44842025 17.63322121
   8.79283420  0.72729531 17.63161913
   5.08328593 -1.02044738 22.94359080
   4.74930684 -1.29758238 21.49970942
   6.32766644  2.74573638 21.29235232
   6.41088396 -1.06990826 23.12595164
   4.51946488 -1.92071411 23.78300628
   4.63693400  0.19610679 23.29048762
   5.24233667 -2.43829769 21.03655022
   3.46428614 -1.15784182 21.20236749
   7.39158002  2.30081678 21.13636983
   5.26099460  3.18709242 21.44161456
 


--------------------------------------------------------------------------------------------------------


 k-point  1 :   0.1250 0.1250 0.0000  plane waves:   89921
 k-point  2 :   0.2500-0.1250 0.0000  plane waves:   89921
 k-point  3 :   0.1250-0.2500 0.0000  plane waves:   89921
 k-point  4 :   0.3750 0.1250 0.0000  plane waves:   89970
 k-point  5 :   0.5000-0.3750 0.0000  plane waves:   89970
 k-point  6 :   0.1250 0.5000 0.0000  plane waves:   89970
 k-point  7 :  -0.1250-0.3750 0.0000  plane waves:   89970
 k-point  8 :   0.3750 0.5000 0.0000  plane waves:   89970
 k-point  9 :   0.5000-0.1250 0.0000  plane waves:   89970
 k-point 10 :  -0.3750 0.1250 0.0000  plane waves:   89943
 k-point 11 :  -0.2500 0.3750 0.0000  plane waves:   89943
 k-point 12 :   0.1250 0.2500 0.0000  plane waves:   89943
 k-point 13 :  -0.1250 0.3750 0.0000  plane waves:   89943
 k-point 14 :  -0.3750 0.2500 0.0000  plane waves:   89943
 k-point 15 :  -0.2500-0.1250 0.0000  plane waves:   89943
 k-point 16 :  -0.1250 0.1250 0.0000  plane waves:   89893
 k-point 17 :   0.0000 0.1250 0.0000  plane waves:   89893
 k-point 18 :   0.1250 0.0000 0.0000  plane waves:   89893
 k-point 19 :   0.3750 0.3750 0.0000  plane waves:   89957
 k-point 20 :  -0.2500-0.3750 0.0000  plane waves:   89957
 k-point 21 :   0.3750 0.2500 0.0000  plane waves:   89957
 k-point 22 :  -0.3750 0.3750 0.0000  plane waves:   89980
 k-point 23 :   0.0000 0.3750 0.0000  plane waves:   89980
 k-point 24 :   0.3750 0.0000 0.0000  plane waves:   89980

 maximum and minimum number of plane-waves per node :     89980    89893

 maximum number of plane-waves:     89980
 maximum index in each direction: 
   IXMAX=   19   IYMAX=   19   IZMAX=   67
   IXMIN=  -19   IYMIN=  -19   IZMIN=  -67


 serial   3D FFT for wavefunctions
 parallel 3D FFT for charge:
    minimum data exchange during FFTs selected (reduces bandwidth)


 total amount of memory used by VASP MPI-rank0   814198. kBytes
=======================================================================

   base      :      30000. kBytes
   nonlr-proj:      18684. kBytes
   fftplans  :      27143. kBytes
   grid      :     321845. kBytes
   one-center:        258. kBytes
   wavefun   :     416268. kBytes
 
     INWAV:  cpu time   45.6781: real time   47.7344
 Broyden mixing: mesh for mixing (old mesh)
   NGX = 39   NGY = 39   NGZ =135
  (NGX  =160   NGY  =160   NGZ  =540)
  gives a total of 205335 points

 charge density for first step will be calculated from the start-wavefunctions


--------------------------------------------------------------------------------------------------------


 Maximum index for non-local projection operator         6369
 Maximum index for augmentation-charges          479 (set IRDMAX)


--------------------------------------------------------------------------------------------------------


 initial charge from wavefunction
 First call to EWALD:  gamma=   0.122
 Maximum number of real-space cells 4x 4x 1
 Maximum number of reciprocal cells 2x 2x 6

    FEWALD:  cpu time    0.0461: real time    0.0403


--------------------------------------- Iteration      1(   1)  ---------------------------------------


    POTLOK:  cpu time   23.2625: real time   23.2678
    SETDIJ:  cpu time   17.9514: real time   17.7854
     EDDAV:  cpu time  422.2046: real time  354.3517
       DOS:  cpu time    0.1224: real time    0.1158
    CHARGE:  cpu time   77.8090: real time   76.4176
    MIXING:  cpu time    0.2457: real time    0.1334
    --------------------------------------------
      LOOP:  cpu time  541.5957: real time  472.0718

 eigenvalue-minimisations  : 12264
 total energy-change (2. order) :-0.3837166E+03  (-0.9428367E-06)
 number of electron     186.3999986 magnetization       0.9999978
 augmentation part       11.4716107 magnetization       0.1189391

 Broyden mixing:
  rms(total) = 0.93453E-01    rms(broyden)= 0.92696E-01
  rms(prec ) = 0.12367E+00
  weight for this iteration     100.00

 Free energy of the ion-electron system (eV)
  ---------------------------------------------------
  alpha Z        PSCENC =        57.55240194
  Ewald energy   TEWEN  =     64930.29934826
  -Hartree energ DENC   =    -73528.66062785
  -exchange      EXHF   =         0.00000000
  -V(xc)+E(xc)   XCENC  =       896.43375345
  PAW double counting   =     21167.67383457   -21264.03248575
  entropy T*S    EENTRO =        -0.00627461
  eigenvalues    EBANDS =     -2804.27014811
  atomic energy  EATOM  =      9975.55785330
  Solvation  Ediel_sol  =       185.73577981
  ---------------------------------------------------
  free energy    TOTEN  =      -383.71656499 eV

  energy without entropy =     -383.71029039  energy(sigma->0) =     -383.71342769


--------------------------------------------------------------------------------------------------------




--------------------------------------- Iteration      1(   2)  ---------------------------------------


    POTLOK:  cpu time   20.1818: real time   20.2438
    SETDIJ:  cpu time   15.6612: real time   15.4961
    EDDIAG:  cpu time  113.2572: real time   98.4119
  RMM-DIIS:  cpu time  615.0804: real time  540.2077
    ORTHCH:  cpu time    0.8222: real time    0.4196
       DOS:  cpu time    0.4073: real time    0.2069
    CHARGE:  cpu time   77.2288: real time   75.7717
    MIXING:  cpu time    0.2193: real time    0.1110
    --------------------------------------------
      LOOP:  cpu time  842.8583: real time  750.8686

 eigenvalue-minimisations  : 13824
 total energy-change (2. order) : 0.9862084E-01  (-0.9407276E-02)
 number of electron     186.3999986 magnetization       0.9999921
 augmentation part       11.5010298 magnetization       0.1190405

 Broyden mixing:
  rms(total) = 0.43409E-01    rms(broyden)= 0.43402E-01
  rms(prec ) = 0.82383E-01
  weight for this iteration     100.00

 eigenvalues of (default mixing * dielectric matrix)
  average eigenvalue GAMMA=   1.1694
  1.1694

 Free energy of the ion-electron system (eV)
  ---------------------------------------------------
  alpha Z        PSCENC =        57.55240194
  Ewald energy   TEWEN  =     64930.29934826
  -Hartree energ DENC   =    -73473.86503001
  -exchange      EXHF   =         0.00000000
  -V(xc)+E(xc)   XCENC  =       895.33635869
  PAW double counting   =     21130.53469074   -21226.79925091
  entropy T*S    EENTRO =        -0.00629291
  eigenvalues    EBANDS =     -2830.12546607
  atomic energy  EATOM  =      9975.55785330
  Solvation  Ediel_sol  =       157.89744282
  ---------------------------------------------------
  free energy    TOTEN  =      -383.61794415 eV

  energy without entropy =     -383.61165124  energy(sigma->0) =     -383.61479770


--------------------------------------------------------------------------------------------------------




--------------------------------------- Iteration      1(   3)  ---------------------------------------


    POTLOK:  cpu time   19.7985: real time   19.8279
    SETDIJ:  cpu time   15.9159: real time   15.7515
    EDDIAG:  cpu time  113.2270: real time   98.3157
  RMM-DIIS:  cpu time  566.6995: real time  491.3465
    ORTHCH:  cpu time    0.8659: real time    0.4417
       DOS:  cpu time    0.3663: real time    0.1836
    CHARGE:  cpu time   77.4079: real time   75.9429
    MIXING:  cpu time    0.1759: real time    0.0882
    --------------------------------------------
      LOOP:  cpu time  794.4569: real time  701.8980

 eigenvalue-minimisations  : 13824
 total energy-change (2. order) : 0.3011536E-01  (-0.1828695E-02)
 number of electron     186.3999986 magnetization       0.9999491
 augmentation part       11.5087322 magnetization       0.1191228

 Broyden mixing:
  rms(total) = 0.30511E-01    rms(broyden)= 0.30509E-01
  rms(prec ) = 0.67257E-01
  weight for this iteration     100.00

 eigenvalues of (default mixing * dielectric matrix)
  average eigenvalue GAMMA=   1.8344
  1.3429  2.3258

 Free energy of the ion-electron system (eV)
  ---------------------------------------------------
  alpha Z        PSCENC =        57.55240194
  Ewald energy   TEWEN  =     64930.29934826
  -Hartree energ DENC   =    -73416.67531922
  -exchange      EXHF   =         0.00000000
  -V(xc)+E(xc)   XCENC  =       895.15798124
  PAW double counting   =     21100.73047676   -21196.95531882
  entropy T*S    EENTRO =        -0.00629837
  eigenvalues    EBANDS =     -2841.52286572
  atomic energy  EATOM  =      9975.55785330
  Solvation  Ediel_sol  =       112.27391184
  ---------------------------------------------------
  free energy    TOTEN  =      -383.58782879 eV

  energy without entropy =     -383.58153042  energy(sigma->0) =     -383.58467961


--------------------------------------------------------------------------------------------------------




--------------------------------------- Iteration      1(   4)  ---------------------------------------


    POTLOK:  cpu time   21.5415: real time   21.5679
    SETDIJ:  cpu time   14.4161: real time   14.2492
    EDDIAG:  cpu time  113.0955: real time   98.1599
  RMM-DIIS:  cpu time  557.5313: real time  482.0063
    ORTHCH:  cpu time    0.8507: real time    0.4348
       DOS:  cpu time    0.3857: real time    0.1934
    CHARGE:  cpu time   77.7220: real time   76.2594
    MIXING:  cpu time    0.2024: real time    0.1015
    --------------------------------------------
      LOOP:  cpu time  785.7452: real time  692.9724

 eigenvalue-minimisations  : 13824
 total energy-change (2. order) : 0.3311691E-01  (-0.4254698E-02)
 number of electron     186.3999986 magnetization       0.9998711
 augmentation part       11.5102537 magnetization       0.1195889

 Broyden mixing:
  rms(total) = 0.20871E-01    rms(broyden)= 0.20862E-01
  rms(prec ) = 0.39917E-01
  weight for this iteration     100.00

 eigenvalues of (default mixing * dielectric matrix)
  average eigenvalue GAMMA=   1.5714
  2.2317  1.0372  1.4455

 Free energy of the ion-electron system (eV)
  ---------------------------------------------------
  alpha Z        PSCENC =        57.55240194
  Ewald energy   TEWEN  =     64930.29934826
  -Hartree energ DENC   =    -73266.07831644
  -exchange      EXHF   =         0.00000000
  -V(xc)+E(xc)   XCENC  =       894.57697575
  PAW double counting   =     21048.87896443   -21145.06670179
  entropy T*S    EENTRO =        -0.00630981
  eigenvalues    EBANDS =     -2863.51579790
  atomic energy  EATOM  =      9975.55785330
  Solvation  Ediel_sol  =       -15.75312962
  ---------------------------------------------------
  free energy    TOTEN  =      -383.55471188 eV

  energy without entropy =     -383.54840207  energy(sigma->0) =     -383.55155697


--------------------------------------------------------------------------------------------------------




--------------------------------------- Iteration      1(   5)  ---------------------------------------


    POTLOK:  cpu time   20.4543: real time   20.4796
    SETDIJ:  cpu time   14.5703: real time   14.4027
    EDDIAG:  cpu time  112.5919: real time   97.6537
  RMM-DIIS:  cpu time  615.8021: real time  540.3103
    ORTHCH:  cpu time    0.8601: real time    0.4386
       DOS:  cpu time    0.3720: real time    0.1866
    CHARGE:  cpu time   77.4455: real time   75.9980
    MIXING:  cpu time    0.1846: real time    0.0926
    --------------------------------------------
      LOOP:  cpu time  842.2807: real time  749.5622

 eigenvalue-minimisations  : 13824
 total energy-change (2. order) :-0.3674762E-02  (-0.8245981E-03)
 number of electron     186.3999986 magnetization       0.9996211
 augmentation part       11.5146543 magnetization       0.1197606

 Broyden mixing:
  rms(total) = 0.14369E-01    rms(broyden)= 0.14361E-01
  rms(prec ) = 0.28168E-01
  weight for this iteration     100.00

 eigenvalues of (default mixing * dielectric matrix)
  average eigenvalue GAMMA=   2.1696
  3.2987  3.2987  0.9160  1.1649

 Free energy of the ion-electron system (eV)
  ---------------------------------------------------
  alpha Z        PSCENC =        57.55240194
  Ewald energy   TEWEN  =     64930.29934826
  -Hartree energ DENC   =    -73208.91760873
  -exchange      EXHF   =         0.00000000
  -V(xc)+E(xc)   XCENC  =       894.41251385
  PAW double counting   =     21060.98310781   -21157.19132441
  entropy T*S    EENTRO =        -0.00635046
  eigenvalues    EBANDS =     -2867.95937943
  atomic energy  EATOM  =      9975.55785330
  Solvation  Ediel_sol  =       -68.28894876
  ---------------------------------------------------
  free energy    TOTEN  =      -383.55838664 eV

  energy without entropy =     -383.55203618  energy(sigma->0) =     -383.55521141


--------------------------------------------------------------------------------------------------------




--------------------------------------- Iteration      1(   6)  ---------------------------------------


    POTLOK:  cpu time   21.0244: real time   21.0404
    SETDIJ:  cpu time   14.3100: real time   14.1416
    EDDIAG:  cpu time  112.5390: real time   97.5862
  RMM-DIIS:  cpu time  615.0470: real time  539.5406
    ORTHCH:  cpu time    0.8570: real time    0.4372
       DOS:  cpu time    0.4144: real time    0.2141
    CHARGE:  cpu time   77.1058: real time   75.6421
    MIXING:  cpu time    0.2014: real time    0.1010
    --------------------------------------------
      LOOP:  cpu time  841.4990: real time  748.7034

 eigenvalue-minimisations  : 13824
 total energy-change (2. order) :-0.5242578E-02  (-0.1917352E-02)
 number of electron     186.3999986 magnetization       0.9994994
 augmentation part       11.5186144 magnetization       0.1206966

 Broyden mixing:
  rms(total) = 0.76488E-02    rms(broyden)= 0.76358E-02
  rms(prec ) = 0.94209E-02
  weight for this iteration     100.00

 eigenvalues of (default mixing * dielectric matrix)
  average eigenvalue GAMMA=   2.2844
  5.6292  2.7699  1.1299  1.1299  0.7628

 Free energy of the ion-electron system (eV)
  ---------------------------------------------------
  alpha Z        PSCENC =        57.55240194
  Ewald energy   TEWEN  =     64930.29934826
  -Hartree energ DENC   =    -73093.08061264
  -exchange      EXHF   =         0.00000000
  -V(xc)+E(xc)   XCENC  =       894.25147587
  PAW double counting   =     21091.79035675   -21188.05787869
  entropy T*S    EENTRO =        -0.00648031
  eigenvalues    EBANDS =     -2872.75468568
  atomic energy  EATOM  =      9975.55785330
  Solvation  Ediel_sol  =      -179.11540801
  ---------------------------------------------------
  free energy    TOTEN  =      -383.56362922 eV

  energy without entropy =     -383.55714891  energy(sigma->0) =     -383.56038906


--------------------------------------------------------------------------------------------------------




--------------------------------------- Iteration      1(   7)  ---------------------------------------


    POTLOK:  cpu time   19.4011: real time   19.4171
    SETDIJ:  cpu time   13.7118: real time   13.5428
    EDDIAG:  cpu time  113.7627: real time   98.8198
  RMM-DIIS:  cpu time  616.7525: real time  541.3155
    ORTHCH:  cpu time    0.8560: real time    0.4380
       DOS:  cpu time    0.3913: real time    0.1961
    CHARGE:  cpu time   78.1174: real time   76.6559
    MIXING:  cpu time    0.2009: real time    0.1007
    --------------------------------------------
      LOOP:  cpu time  843.1936: real time  750.4860

 eigenvalue-minimisations  : 13824
 total energy-change (2. order) :-0.2187756E-02  (-0.1370541E-03)
 number of electron     186.3999986 magnetization       0.9992793
 augmentation part       11.5175382 magnetization       0.1199931

 Broyden mixing:
  rms(total) = 0.53535E-02    rms(broyden)= 0.53515E-02
  rms(prec ) = 0.67504E-02
  weight for this iteration     100.00

 eigenvalues of (default mixing * dielectric matrix)
  average eigenvalue GAMMA=   2.2908
  6.4685  2.7405  1.6913  1.2611  0.8647  0.7184

 Free energy of the ion-electron system (eV)
  ---------------------------------------------------
  alpha Z        PSCENC =        57.55240194
  Ewald energy   TEWEN  =     64930.29934826
  -Hartree energ DENC   =    -73084.55943497
  -exchange      EXHF   =         0.00000000
  -V(xc)+E(xc)   XCENC  =       894.27277556
  PAW double counting   =     21090.36715407   -21186.63072191
  entropy T*S    EENTRO =        -0.00641013
  eigenvalues    EBANDS =     -2871.96494835
  atomic energy  EATOM  =      9975.55785330
  Solvation  Ediel_sol  =      -188.45383474
  ---------------------------------------------------
  free energy    TOTEN  =      -383.56581697 eV

  energy without entropy =     -383.55940684  energy(sigma->0) =     -383.56261191


--------------------------------------------------------------------------------------------------------




--------------------------------------- Iteration      1(   8)  ---------------------------------------


    POTLOK:  cpu time   20.5586: real time   20.5777
    SETDIJ:  cpu time   14.2544: real time   14.0870
    EDDIAG:  cpu time  113.8110: real time   98.8631
  RMM-DIIS:  cpu time  617.6662: real time  542.1678
    ORTHCH:  cpu time    0.8509: real time    0.4338
       DOS:  cpu time    0.3818: real time    0.1914
    CHARGE:  cpu time   77.3129: real time   75.8467
    MIXING:  cpu time    0.1987: real time    0.0996
    --------------------------------------------
      LOOP:  cpu time  845.0346: real time  752.2672

 eigenvalue-minimisations  : 13824
 total energy-change (2. order) :-0.3693921E-02  (-0.1099497E-03)
 number of electron     186.3999986 magnetization       0.9991948
 augmentation part       11.5165520 magnetization       0.1192092

 Broyden mixing:
  rms(total) = 0.41094E-02    rms(broyden)= 0.41090E-02
  rms(prec ) = 0.46521E-02
  weight for this iteration     100.00

 eigenvalues of (default mixing * dielectric matrix)
  average eigenvalue GAMMA=   2.3947
  7.6430  3.1495  2.4754  1.0542  1.0542  0.7856  0.6011

 Free energy of the ion-electron system (eV)
  ---------------------------------------------------
  alpha Z        PSCENC =        57.55240194
  Ewald energy   TEWEN  =     64930.29934826
  -Hartree energ DENC   =    -73078.13848764
  -exchange      EXHF   =         0.00000000
  -V(xc)+E(xc)   XCENC  =       894.32391640
  PAW double counting   =     21096.21622511   -21192.48051550
  entropy T*S    EENTRO =        -0.00632996
  eigenvalues    EBANDS =     -2868.89270430
  atomic energy  EATOM  =      9975.55785330
  Solvation  Ediel_sol  =      -198.00121849
  ---------------------------------------------------
  free energy    TOTEN  =      -383.56951089 eV

  energy without entropy =     -383.56318093  energy(sigma->0) =     -383.56634591


--------------------------------------------------------------------------------------------------------




--------------------------------------- Iteration      1(   9)  ---------------------------------------


    POTLOK:  cpu time   19.5532: real time   19.5679
    SETDIJ:  cpu time   13.3807: real time   13.2102
    EDDIAG:  cpu time  112.9641: real time   98.0179
  RMM-DIIS:  cpu time  615.9364: real time  540.4322
    ORTHCH:  cpu time    0.8507: real time    0.4346
       DOS:  cpu time    0.3736: real time    0.1873
    CHARGE:  cpu time   76.9153: real time   75.4478
    MIXING:  cpu time    0.2009: real time    0.1007
    --------------------------------------------
      LOOP:  cpu time  840.1749: real time  747.3985

 eigenvalue-minimisations  : 13824
 total energy-change (2. order) :-0.1149175E-02  (-0.2901129E-04)
 number of electron     186.3999986 magnetization       0.9991545
 augmentation part       11.5169286 magnetization       0.1190902

 Broyden mixing:
  rms(total) = 0.19521E-02    rms(broyden)= 0.19519E-02
  rms(prec ) = 0.23647E-02
  weight for this iteration     100.00

 eigenvalues of (default mixing * dielectric matrix)
  average eigenvalue GAMMA=   2.3764
  8.2602  3.6032  2.4923  1.2308  1.2308  0.8238  0.7810  0.5895

 Free energy of the ion-electron system (eV)
  ---------------------------------------------------
  alpha Z        PSCENC =        57.55240194
  Ewald energy   TEWEN  =     64930.29934826
  -Hartree energ DENC   =    -73075.61144955
  -exchange      EXHF   =         0.00000000
  -V(xc)+E(xc)   XCENC  =       894.33171772
  PAW double counting   =     21098.40046565   -21194.66223268
  entropy T*S    EENTRO =        -0.00632248
  eigenvalues    EBANDS =     -2867.88573011
  atomic energy  EATOM  =      9975.55785330
  Solvation  Ediel_sol  =      -201.54671212
  ---------------------------------------------------
  free energy    TOTEN  =      -383.57066007 eV

  energy without entropy =     -383.56433758  energy(sigma->0) =     -383.56749883


--------------------------------------------------------------------------------------------------------




--------------------------------------- Iteration      1(  10)  ---------------------------------------


    POTLOK:  cpu time   18.8771: real time   18.8922
    SETDIJ:  cpu time   12.9998: real time   12.8283
    EDDIAG:  cpu time  112.2403: real time   97.3069
  RMM-DIIS:  cpu time  591.8328: real time  519.7215
    ORTHCH:  cpu time    0.8485: real time    0.4341
       DOS:  cpu time    0.3791: real time    0.1900
    CHARGE:  cpu time   78.1284: real time   76.6670
    MIXING:  cpu time    0.1949: real time    0.0977
    --------------------------------------------
      LOOP:  cpu time  815.5009: real time  726.1377

 eigenvalue-minimisations  : 13584
 total energy-change (2. order) :-0.9351889E-03  (-0.1616483E-04)
 number of electron     186.3999986 magnetization       0.9991123
 augmentation part       11.5176365 magnetization       0.1190464

 Broyden mixing:
  rms(total) = 0.17175E-02    rms(broyden)= 0.17173E-02
  rms(prec ) = 0.19576E-02
  weight for this iteration     100.00

 eigenvalues of (default mixing * dielectric matrix)
  average eigenvalue GAMMA=   2.3924
  8.5418  3.9315  2.7692  1.9750  1.0598  1.0598  0.8607  0.7409  0.5934

 Free energy of the ion-electron system (eV)
  ---------------------------------------------------
  alpha Z        PSCENC =        57.55240194
  Ewald energy   TEWEN  =     64930.29934826
  -Hartree energ DENC   =    -73074.40898681
  -exchange      EXHF   =         0.00000000
  -V(xc)+E(xc)   XCENC  =       894.32979404
  PAW double counting   =     21097.59446555   -21193.85338501
  entropy T*S    EENTRO =        -0.00632314
  eigenvalues    EBANDS =     -2867.77419072
  atomic energy  EATOM  =      9975.55785330
  Solvation  Ediel_sol  =      -202.86257267
  ---------------------------------------------------
  free energy    TOTEN  =      -383.57159526 eV

  energy without entropy =     -383.56527211  energy(sigma->0) =     -383.56843369


--------------------------------------------------------------------------------------------------------




--------------------------------------- Iteration      1(  11)  ---------------------------------------


    POTLOK:  cpu time   18.2959: real time   18.3062
    SETDIJ:  cpu time   12.5368: real time   12.3646
    EDDIAG:  cpu time  113.3471: real time   98.4118
  RMM-DIIS:  cpu time  374.6176: real time  308.0990
    ORTHCH:  cpu time    0.8490: real time    0.4327
       DOS:  cpu time    0.4167: real time    0.2161
    CHARGE:  cpu time   78.2003: real time   76.7361
    MIXING:  cpu time    0.2119: real time    0.1062
    --------------------------------------------
      LOOP:  cpu time  598.4753: real time  514.6727

 eigenvalue-minimisations  : 11612
 total energy-change (2. order) :-0.9868542E-03  (-0.1159359E-04)
 number of electron     186.3999986 magnetization       0.9990843
 augmentation part       11.5176197 magnetization       0.1190189

 Broyden mixing:
  rms(total) = 0.79608E-03    rms(broyden)= 0.79591E-03
  rms(prec ) = 0.95291E-03
  weight for this iteration     100.00

 eigenvalues of (default mixing * dielectric matrix)
  average eigenvalue GAMMA=   2.4208
  9.0237  4.5075  3.0274  2.2738  1.1758  1.1758  0.8643  0.8643  0.6938  0.6019

 Free energy of the ion-electron system (eV)
  ---------------------------------------------------
  alpha Z        PSCENC =        57.55240194
  Ewald energy   TEWEN  =     64930.29934826
  -Hartree energ DENC   =    -73073.55822889
  -exchange      EXHF   =         0.00000000
  -V(xc)+E(xc)   XCENC  =       894.33458189
  PAW double counting   =     21095.12877855   -21191.38559885
  entropy T*S    EENTRO =        -0.00632343
  eigenvalues    EBANDS =     -2867.74356209
  atomic energy  EATOM  =      9975.55785330
  Solvation  Ediel_sol  =      -203.75183279
  ---------------------------------------------------
  free energy    TOTEN  =      -383.57258211 eV

  energy without entropy =     -383.56625868  energy(sigma->0) =     -383.56942040


--------------------------------------------------------------------------------------------------------




--------------------------------------- Iteration      1(  12)  ---------------------------------------


    POTLOK:  cpu time   17.8201: real time   17.8389
    SETDIJ:  cpu time   12.4474: real time   12.2755
    EDDIAG:  cpu time  111.6156: real time   96.4940
  RMM-DIIS:  cpu time  362.3364: real time  299.3063
    ORTHCH:  cpu time    0.8356: real time    0.4674
       DOS:  cpu time    0.5590: real time    0.3634
    CHARGE:  cpu time   77.4883: real time   76.2031
    MIXING:  cpu time    0.1796: real time    0.1517
    --------------------------------------------
      LOOP:  cpu time  583.2821: real time  503.1497

 eigenvalue-minimisations  : 11017
 total energy-change (2. order) :-0.4358928E-03  (-0.5057497E-05)
 number of electron     186.3999986 magnetization       0.9990624
 augmentation part       11.5172465 magnetization       0.1189870

 Broyden mixing:
  rms(total) = 0.53650E-03    rms(broyden)= 0.53633E-03
  rms(prec ) = 0.63305E-03
  weight for this iteration     100.00

 eigenvalues of (default mixing * dielectric matrix)
  average eigenvalue GAMMA=   2.3889
  9.3434  4.8623  3.0511  2.3972  1.4952  1.1084  0.9639  0.9639  0.8036  0.6827
  0.6063

 Free energy of the ion-electron system (eV)
  ---------------------------------------------------
  alpha Z        PSCENC =        57.55240194
  Ewald energy   TEWEN  =     64930.29934826
  -Hartree energ DENC   =    -73073.35366830
  -exchange      EXHF   =         0.00000000
  -V(xc)+E(xc)   XCENC  =       894.34016650
  PAW double counting   =     21094.70775647   -21190.96545062
  entropy T*S    EENTRO =        -0.00632220
  eigenvalues    EBANDS =     -2867.61796370
  atomic energy  EATOM  =      9975.55785330
  Solvation  Ediel_sol  =      -204.08713964
  ---------------------------------------------------
  free energy    TOTEN  =      -383.57301801 eV

  energy without entropy =     -383.56669580  energy(sigma->0) =     -383.56985690


--------------------------------------------------------------------------------------------------------




--------------------------------------- Iteration      1(  13)  ---------------------------------------


    POTLOK:  cpu time   16.9708: real time   17.2704
    SETDIJ:  cpu time   12.1356: real time   11.9632
    EDDIAG:  cpu time  110.8977: real time   96.3874
  RMM-DIIS:  cpu time  349.5053: real time  286.5287
    ORTHCH:  cpu time    0.8382: real time    0.4277
       DOS:  cpu time    0.3983: real time    0.1996
    CHARGE:  cpu time   78.0328: real time   76.5604
    MIXING:  cpu time    0.2156: real time    0.1081
    --------------------------------------------
      LOOP:  cpu time  568.9942: real time  489.3962

 eigenvalue-minimisations  : 10186
 total energy-change (2. order) :-0.2724864E-03  (-0.1693497E-05)
 number of electron     186.3999986 magnetization       0.9990436
 augmentation part       11.5172234 magnetization       0.1189612

 Broyden mixing:
  rms(total) = 0.35756E-03    rms(broyden)= 0.35752E-03
  rms(prec ) = 0.41961E-03
  weight for this iteration     100.00

 eigenvalues of (default mixing * dielectric matrix)
  average eigenvalue GAMMA=   2.3935
  9.5461  5.2366  3.1295  2.6923  1.8901  1.1913  1.1913  0.9208  0.9208  0.7344
  0.6092  0.6601

 Free energy of the ion-electron system (eV)
  ---------------------------------------------------
  alpha Z        PSCENC =        57.55240194
  Ewald energy   TEWEN  =     64930.29934826
  -Hartree energ DENC   =    -73073.28733768
  -exchange      EXHF   =         0.00000000
  -V(xc)+E(xc)   XCENC  =       894.33866419
  PAW double counting   =     21094.79116226   -21191.04948691
  entropy T*S    EENTRO =        -0.00632258
  eigenvalues    EBANDS =     -2867.62386959
  atomic energy  EATOM  =      9975.55785330
  Solvation  Ediel_sol  =      -204.14570368
  ---------------------------------------------------
  free energy    TOTEN  =      -383.57329049 eV

  energy without entropy =     -383.56696791  energy(sigma->0) =     -383.57012920


--------------------------------------------------------------------------------------------------------




--------------------------------------- Iteration      1(  14)  ---------------------------------------


    POTLOK:  cpu time   16.8348: real time   16.8513
    SETDIJ:  cpu time   12.3232: real time   12.1504
    EDDIAG:  cpu time  113.7065: real time   98.7676
  RMM-DIIS:  cpu time  370.6683: real time  310.4384
    ORTHCH:  cpu time    0.8334: real time    0.4257
       DOS:  cpu time    0.4112: real time    0.2107
    CHARGE:  cpu time   77.0949: real time   75.6291
    MIXING:  cpu time    0.2175: real time    0.1090
    --------------------------------------------
      LOOP:  cpu time  592.0899: real time  514.5822

 eigenvalue-minimisations  :  9484
 total energy-change (2. order) :-0.1540497E-03  (-0.1264642E-05)
 number of electron     186.3999986 magnetization       0.9990314
 augmentation part       11.5173535 magnetization       0.1189549

 Broyden mixing:
  rms(total) = 0.21960E-03    rms(broyden)= 0.21958E-03
  rms(prec ) = 0.25940E-03
  weight for this iteration     100.00

 eigenvalues of (default mixing * dielectric matrix)
  average eigenvalue GAMMA=   2.3401
  9.6231  5.4438  3.2671  2.8452  1.9693  1.3331  1.1969  0.9526  0.9526  0.8531
  0.7291  0.6120  0.6431

 Free energy of the ion-electron system (eV)
  ---------------------------------------------------
  alpha Z        PSCENC =        57.55240194
  Ewald energy   TEWEN  =     64930.29934826
  -Hartree energ DENC   =    -73073.18940266
  -exchange      EXHF   =         0.00000000
  -V(xc)+E(xc)   XCENC  =       894.33653423
  PAW double counting   =     21094.91934432   -21191.17765034
  entropy T*S    EENTRO =        -0.00632336
  eigenvalues    EBANDS =     -2867.69379420
  atomic energy  EATOM  =      9975.55785330
  Solvation  Ediel_sol  =      -204.17175601
  ---------------------------------------------------
  free energy    TOTEN  =      -383.57344454 eV

  energy without entropy =     -383.56712118  energy(sigma->0) =     -383.57028286


--------------------------------------------------------------------------------------------------------




--------------------------------------- Iteration      1(  15)  ---------------------------------------


    POTLOK:  cpu time   16.1338: real time   16.1472
    SETDIJ:  cpu time   11.3537: real time   11.1787
    EDDIAG:  cpu time  113.4937: real time   98.5810
  RMM-DIIS:  cpu time  413.9966: real time  353.9040
    ORTHCH:  cpu time    0.8265: real time    0.4228
       DOS:  cpu time    0.4075: real time    0.2070
    CHARGE:  cpu time   77.1676: real time   75.7128
    MIXING:  cpu time    0.2073: real time    0.1039
    --------------------------------------------
      LOOP:  cpu time  633.5868: real time  556.2573

 eigenvalue-minimisations  :  9339
 total energy-change (2. order) :-0.6745274E-04  (-0.6129487E-06)
 number of electron     186.3999986 magnetization       0.9990148
 augmentation part       11.5173535 magnetization       0.1189376

 Broyden mixing:
  rms(total) = 0.15962E-03    rms(broyden)= 0.15961E-03
  rms(prec ) = 0.18800E-03
  weight for this iteration     100.00

 eigenvalues of (default mixing * dielectric matrix)
  average eigenvalue GAMMA=   2.3696
  9.6813  5.9725  3.7724  2.7275  2.3388  1.6505  1.1977  1.1977  0.9337  0.9337
  0.8164  0.7096  0.6173  0.6260

 Free energy of the ion-electron system (eV)
  ---------------------------------------------------
  alpha Z        PSCENC =        57.55240194
  Ewald energy   TEWEN  =     64930.29934826
  -Hartree energ DENC   =    -73073.16741021
  -exchange      EXHF   =         0.00000000
  -V(xc)+E(xc)   XCENC  =       894.33751748
  PAW double counting   =     21094.97873805   -21191.23707710
  entropy T*S    EENTRO =        -0.00632337
  eigenvalues    EBANDS =     -2867.70233698
  atomic energy  EATOM  =      9975.55785330
  Solvation  Ediel_sol  =      -204.18622336
  ---------------------------------------------------
  free energy    TOTEN  =      -383.57351199 eV

  energy without entropy =     -383.56718862  energy(sigma->0) =     -383.57035031


--------------------------------------------------------------------------------------------------------




--------------------------------------- Iteration      1(  16)  ---------------------------------------


    POTLOK:  cpu time   15.9107: real time   15.9201
    SETDIJ:  cpu time   11.3643: real time   11.1892
    EDDIAG:  cpu time  113.1134: real time   98.1987
  RMM-DIIS:  cpu time  414.5140: real time  354.3780
    ORTHCH:  cpu time    0.8238: real time    0.4214
       DOS:  cpu time    0.4083: real time    0.2077
    CHARGE:  cpu time   78.6903: real time   77.2357
[...]
   13        0.000   0.000   0.000   0.000
   14        0.000   0.000   0.000   0.000
   15        0.000   0.000   0.000   0.000
   16        0.000   0.000   0.000   0.000
   17       -0.000  -0.000   0.000  -0.000
   18        0.000   0.000   0.000   0.000
   19       -0.000  -0.000   0.000  -0.000
   20       -0.000  -0.000   0.000  -0.000
   21       -0.000  -0.000   0.000  -0.000
   22       -0.000  -0.000   0.000  -0.000
   23       -0.000  -0.000   0.000  -0.000
   24       -0.000  -0.000   0.000  -0.000
   25       -0.000  -0.000   0.000  -0.000
   26       -0.000  -0.000   0.000  -0.000
   27        0.000   0.000   0.000   0.000
   28       -0.000  -0.000   0.000  -0.000
   29       -0.000  -0.000   0.000  -0.000
   30       -0.000  -0.000   0.000  -0.000
   31       -0.000  -0.000   0.000  -0.000
   32        0.000   0.000   0.000   0.000
   33        0.004   0.010   0.000   0.015
   34        0.071   0.377   0.000   0.447
   35       -0.000   0.000   0.000   0.000
   36       -0.000  -0.000   0.000  -0.001
   37        0.001   0.030   0.000   0.031
   38       -0.000  -0.000   0.000  -0.001
   39        0.003   0.077   0.000   0.080
   40        0.003   0.077   0.000   0.080
   41        0.000   0.000   0.000   0.000
   42        0.000  -0.000   0.000  -0.000
--------------------------------------------------
tot          0.081   0.569   0.000   0.651
 
    CHARGE:  cpu time    7.3453: real time    6.9192
    FORLOC:  cpu time    0.3369: real time    0.1845
    FORNL :  cpu time   32.2730: real time   25.2540
    STRESS:  cpu time 1415.8978: real time 1380.0613
    FORCOR:  cpu time    1.7104: real time    1.6715
    FORHAR:  cpu time    0.2169: real time    0.2174
    MIXING:  cpu time    0.6594: real time    0.6609
    OFIELD:  cpu time    0.0001: real time    0.0001

  FORCE on cell =-STRESS in cart. coord.  units (eV):
  Direction    XX          YY          ZZ          XY          YZ          ZX
  --------------------------------------------------------------------------------------
  Alpha Z    57.55240    57.55240    57.55240
  Ewald   68855.26064 68952.36935-72874.24762   -26.61169   151.14082    42.75727
  Hartree 69246.52855 69649.78070-65819.44989   182.39889    72.02352    66.93940
  E(xc)    -832.45879  -832.29155  -837.41899     0.15184     0.07156     0.14906
  Local  ************************136220.29492  -197.68128  -214.02817  -120.17156
  n-local  -490.74926  -486.69751  -482.18090     2.01927     0.04014     0.95657
  augment   118.73150   122.09394   130.11756     2.78452    -0.40801     0.90269
  Kinetic  3254.96014  3311.64426  3604.67376    38.37146    -9.23873     8.57785
  Fock        0.00000     0.00000     0.00000     0.00000     0.00000     0.00000
  -------------------------------------------------------------------------------------
  Total     -13.88077   -11.66243    -0.65875     1.43301    -0.39888     0.11128
  in kB      -7.24236    -6.08493    -0.34371     0.74768    -0.20812     0.05806
  external pressure =       -4.56 kB  Pullay stress =        0.00 kB


 VOLUME and BASIS-vectors are now :
 -----------------------------------------------------------------------------
  energy-cutoff  :      550.00
  volume of cell :     3070.74
      direct lattice vectors                 reciprocal lattice vectors
     5.024366704 -8.702497373  0.000000000     0.099515029 -0.057454772  0.000000000
     5.024366704  8.702497373  0.000000000     0.099515029  0.057454772  0.000000000
     0.000000000  0.000000000 35.114664386     0.000000000  0.000000000  0.028478131

  length of vectors
    10.048767154 10.048767154 35.114664386     0.114909929  0.114909929  0.028478131


 FORCES acting on ions
    electron-ion (+dipol)            ewald-force                    non-local-force                 convergence-correction
 -----------------------------------------------------------------------------------------------
   0.119E+02 -.388E+01 0.127E+03   -.119E+02 0.393E+01 -.127E+03   0.103E-01 -.700E-02 0.178E-02   0.557E-03 -.229E-03 -.374E-03
   0.112E+02 -.628E+01 0.128E+03   -.113E+02 0.632E+01 -.128E+03   0.153E-01 -.775E-02 0.382E-02   0.765E-03 -.339E-03 0.300E-03
   0.737E+01 -.503E+01 0.130E+03   -.746E+01 0.508E+01 -.130E+03   0.169E-01 -.114E-01 0.257E-02   0.111E-03 0.403E-04 -.266E-03
   0.479E+01 -.509E+01 0.125E+03   -.485E+01 0.512E+01 -.125E+03   0.662E-02 -.905E-02 0.114E-02   0.340E-03 -.578E-03 0.405E-03
   0.112E+02 0.171E+01 0.141E+03   -.112E+02 -.166E+01 -.141E+03   0.362E-02 -.188E-02 0.260E-02   0.105E-02 -.180E-03 -.890E-04
   0.107E+02 -.596E+01 0.156E+03   -.108E+02 0.592E+01 -.156E+03   0.168E-01 -.516E-02 -.384E-02   0.406E-03 -.358E-03 -.113E-02
   0.565E+01 -.630E+01 0.148E+03   -.568E+01 0.631E+01 -.148E+03   0.809E-02 0.179E-02 0.109E-02   0.524E-03 -.759E-03 -.131E-03
   0.318E+01 -.735E+01 0.146E+03   -.317E+01 0.735E+01 -.146E+03   -.459E-02 -.174E-01 -.167E-01   0.389E-05 -.414E-04 -.854E-03
   -.680E+01 0.603E+01 0.137E+03   0.690E+01 -.609E+01 -.137E+03   -.144E-01 0.384E-02 -.288E-03   0.370E-03 0.720E-03 -.797E-03
   -.493E+01 0.122E+02 0.153E+03   0.496E+01 -.122E+02 -.153E+03   -.675E-02 0.188E-01 -.947E-04   -.682E-03 0.147E-03 -.898E-03
   -.131E+02 0.507E-01 0.149E+03   0.132E+02 -.109E+00 -.149E+03   -.199E-01 0.400E-02 0.633E-02   -.406E-03 0.107E-03 -.103E-02
   -.118E+02 0.309E+01 0.143E+03   0.119E+02 -.309E+01 -.143E+03   -.215E-01 0.524E-02 -.507E-02   -.591E-03 -.159E-03 -.676E-03
   -.505E+01 0.262E+01 0.122E+03   0.501E+01 -.259E+01 -.122E+03   -.424E-02 -.186E-02 0.226E-02   -.719E-03 0.480E-03 -.468E-03
   -.377E+01 0.776E+01 0.125E+03   0.375E+01 -.776E+01 -.125E+03   0.712E-04 0.336E-02 0.173E-02   -.562E-03 0.443E-03 -.619E-03
   -.110E+02 0.486E+01 0.131E+03   0.110E+02 -.490E+01 -.131E+03   -.503E-02 0.237E-02 0.226E-02   -.852E-03 0.273E-03 -.746E-03
   -.952E+01 0.170E+01 0.125E+03   0.954E+01 -.166E+01 -.124E+03   -.872E-02 -.637E-03 0.997E-03   -.661E-03 0.192E-03 -.405E-03
   0.123E+02 -.554E+01 0.205E+03   -.124E+02 0.558E+01 -.205E+03   0.879E-02 -.235E-02 -.285E-02   0.710E-03 -.839E-03 0.912E-03
   0.955E+01 -.200E+01 0.208E+03   -.962E+01 0.205E+01 -.207E+03   0.847E-02 -.577E-02 -.958E-02   0.113E-02 0.982E-03 0.685E-03
   0.394E+00 -.437E+01 0.209E+03   -.463E+00 0.435E+01 -.209E+03   -.474E-02 -.117E-01 -.201E-02   0.345E-03 -.138E-02 0.659E-03
   0.435E+01 -.347E+01 0.203E+03   -.438E+01 0.353E+01 -.203E+03   -.168E-02 -.486E-02 -.235E-02   0.599E-03 0.309E-03 0.944E-03
   0.279E+02 -.392E+01 0.239E+03   -.279E+02 0.396E+01 -.238E+03   0.451E-01 -.301E-02 0.853E-02   0.441E-02 -.724E-04 -.421E-02
   0.193E+02 -.162E+02 0.239E+03   -.195E+02 0.162E+02 -.239E+03   0.367E-01 -.261E-01 -.198E-01   0.234E-02 -.312E-02 0.196E-02
   0.141E+02 -.126E+02 0.237E+03   -.142E+02 0.127E+02 -.237E+03   0.420E-01 -.268E-01 0.112E-01   0.200E-02 -.177E-03 -.350E-02
   0.131E+02 -.996E+01 0.225E+03   -.132E+02 0.100E+02 -.224E+03   0.176E-01 -.430E-01 0.115E-01   0.161E-02 -.140E-02 0.267E-02
   0.318E+01 0.160E+02 0.240E+03   -.305E+01 -.160E+02 -.240E+03   0.137E-01 0.140E-01 -.303E-01   0.135E-02 0.132E-02 0.246E-02
   -.645E+01 0.190E+01 0.265E+03   0.643E+01 -.207E+01 -.265E+03   -.117E-01 0.552E-02 -.563E-01   -.220E-02 -.413E-03 -.669E-02
   -.120E+02 -.137E+01 0.246E+03   0.122E+02 0.138E+01 -.246E+03   -.185E-01 0.449E-02 -.265E-01   0.175E-03 0.130E-02 0.275E-02
   -.119E+02 -.113E+01 0.242E+03   0.121E+02 0.988E+00 -.242E+03   -.371E-01 -.368E-02 0.531E-01   -.652E-03 -.115E-02 -.451E-02
   -.117E+02 0.118E+02 0.210E+03   0.117E+02 -.118E+02 -.210E+03   -.163E-01 0.717E-02 0.676E-02   -.170E-02 0.227E-02 -.290E-02
   -.168E+02 0.196E+02 0.228E+03   0.168E+02 -.196E+02 -.228E+03   -.281E-01 0.197E-01 -.169E-02   -.246E-02 0.235E-02 -.275E-02
   -.257E+02 0.506E+01 0.224E+03   0.258E+02 -.511E+01 -.224E+03   -.390E-01 0.112E-01 0.132E-01   -.235E-02 0.442E-03 -.320E-02
   -.196E+02 0.639E+01 0.213E+03   0.197E+02 -.630E+01 -.213E+03   -.321E-01 0.127E-01 -.128E-01   -.293E-02 0.194E-02 -.622E-03
   -.331E+01 0.501E+01 -.397E+03   0.926E+00 -.750E+01 0.391E+03   0.239E+01 0.228E+01 0.816E+01   0.489E-03 0.126E-03 -.210E-02
   -.590E+02 -.893E+02 -.256E+03   0.674E+02 0.100E+03 0.260E+03   -.851E+01 -.116E+02 -.171E+01   0.277E-04 -.114E-03 -.369E-04
   -.138E+02 -.444E+02 -.359E+03   0.137E+02 0.444E+02 0.360E+03   -.244E-01 -.371E-01 -.120E+00   0.481E-02 -.307E-02 -.175E-02
   -.512E+03 0.254E+02 -.837E+03   0.571E+03 -.279E+02 0.850E+03   -.576E+02 0.197E+01 -.842E+01   -.194E-02 0.168E-03 -.264E-02
   0.193E+03 0.325E+03 -.110E+04   -.217E+03 -.363E+03 0.114E+04   0.232E+02 0.371E+02 -.352E+02   0.761E-02 -.468E-03 -.690E-02
   0.167E+03 -.425E+03 -.919E+03   -.187E+03 0.478E+03 0.939E+03   0.191E+02 -.527E+02 -.155E+02   0.266E-02 -.661E-02 0.224E-02
   -.174E+03 0.352E+03 -.382E+03   0.197E+03 -.404E+03 0.363E+03   -.223E+02 0.501E+02 0.216E+02   -.313E-03 -.184E-02 -.120E-02
   0.425E+03 -.630E+02 -.440E+03   -.483E+03 0.702E+02 0.429E+03   0.569E+02 -.689E+01 0.142E+02   -.623E-02 0.126E-02 0.346E-02
   -.281E+03 0.637E+02 -.495E+03   0.345E+03 -.903E+02 0.488E+03   -.607E+02 0.253E+02 0.901E+01   -.646E-02 0.326E-02 0.416E-02
   0.244E+03 -.172E+03 -.578E+03   -.308E+03 0.199E+03 0.589E+03   0.609E+02 -.252E+02 -.848E+01   -.105E-01 -.178E-02 -.692E-02
 -----------------------------------------------------------------------------------------------
   -.132E+02 -.204E+02 0.165E+02   0.568E-13 0.284E-12 -.455E-12   0.132E+02 0.202E+02 -.165E+02   -.780E-02 -.693E-02 -.348E-01
 
 
 POSITION                                       TOTAL-FORCE (eV/Angst)
 -----------------------------------------------------------------------------------
      1.25609     -0.72307     17.63207        -0.003365      0.002551      0.000490
      2.51209      1.45259     17.63305        -0.002761     -0.000380     -0.001513
      3.76824      3.62823     17.63225        -0.002764      0.002570      0.001703
      5.02445      5.80391     17.63114        -0.001276     -0.000962     -0.001809
      2.51243     -2.89872     17.63070        -0.002439     -0.001610      0.001461
      3.76809     -0.72308     17.63110        -0.003816      0.003055      0.009586
      5.02446      1.45234     17.63058        -0.001526     -0.001612      0.002264
      6.28090      3.62862     17.62430        -0.003268      0.003457      0.006660
      3.76882     -5.07459     17.63048         0.004930      0.000686      0.003693
      5.02476     -2.89932     17.63295         0.001618     -0.004927      0.007736
      6.28116     -0.72334     17.63432         0.005020     -0.000419      0.005853
      7.53735      1.45237     17.62906         0.001455     -0.004028      0.004621
      5.02469     -7.25005     17.63216         0.001153     -0.001661      0.000542
      6.28071     -5.07460     17.63322        -0.000493     -0.001204      0.000889
      7.53689     -2.89895     17.63345         0.000574     -0.000451      0.002420
      8.79306     -0.72320     17.63278         0.000163     -0.000646     -0.000187
      1.25631      0.72726     17.63266         0.001813     -0.001529     -0.000080
      2.51247      2.90284     17.63331         0.002251      0.000611      0.000030
      3.76858      5.07844     17.63250         0.000450     -0.001832     -0.001207
      5.02457      7.25414     17.63216         0.001948      0.001038      0.000376
      2.51239     -1.44835     17.63181         0.007245     -0.000243     -0.000671
      3.76847      0.72725     17.63319         0.004558     -0.003880     -0.005427
      5.02489      2.90288     17.63100         0.006350     -0.001288     -0.002018
      6.28068      5.07870     17.62866         0.003869     -0.004345     -0.004450
      3.76856     -3.62401     17.63320         0.001006      0.002487     -0.004871
      5.02449     -1.44837     17.63788        -0.001880     -0.000615     -0.002579
      6.28079      0.72731     17.63413        -0.000753      0.002905     -0.006394
      7.53668      2.90294     17.62727        -0.002504     -0.001185     -0.003703
      5.02465     -5.79968     17.63192        -0.004368      0.002071      0.001683
      6.28072     -3.62408     17.63381        -0.003718      0.005252      0.000382
      7.53685     -1.44844     17.63374        -0.005882      0.000271      0.001771
      8.79295      0.72720     17.63187        -0.003963      0.004565     -0.002055
      5.08319     -1.02023     22.94329        -0.000731      0.000557     -0.000227
      4.74922     -1.29834     21.49959         0.001457      0.005156     -0.004021
      6.32781      2.74600     21.29478         0.006971     -0.000289     -0.005023
      6.41081     -1.07005     23.12551        -0.005939      0.000918     -0.002956
      4.51910     -1.92006     23.78220        -0.000507      0.005232     -0.003378
      4.63673      0.19654     23.28950         0.002940     -0.005545     -0.008082
      5.24277     -2.43900     21.03597         0.002195     -0.008203     -0.003135
      3.46430     -1.15804     21.20147        -0.001417     -0.002407     -0.004590
      7.39137      2.30087     21.13537        -0.005513      0.002000      0.004589
      5.26129      3.18763     21.44184         0.000918      0.003878      0.011629
 -----------------------------------------------------------------------------------
    total drift:                               -0.032570     -0.149574     -0.074906


--------------------------------------------------------------------------------------------------------



  FREE ENERGIE OF THE ION-ELECTRON SYSTEM (eV)
  ---------------------------------------------------
  free  energy   TOTEN  =      -383.57383409 eV

  energy  without entropy=     -383.56750712  energy(sigma->0) =     -383.57067061
 
 d Force = 0.1474216E-04[ 0.110E-05, 0.284E-04]  d Energy = 0.4563499E-06 0.143E-04
 d Force =-0.4379117E+00[-0.438E+00,-0.438E+00]  d Ewald  =-0.4379117E+00-0.483E-08


--------------------------------------------------------------------------------------------------------


    POTLOK:  cpu time   25.8113: real time   25.6683


--------------------------------------------------------------------------------------------------------


 Conjugate gradient step on ions:
 trial-energy change:   -0.000000  1 .order   -0.000015   -0.000028   -0.000001
  (g-gl).g = 0.171E-03      g.g   = 0.167E-03  gl.gl    = 0.149E-03
 g(Force)  = 0.167E-03   g(Stress)= 0.000E+00 ortho     =-0.597E-05
 gamma     =   1.14999
 trial     =   0.17764
 opt step  =   0.18479  (harmonic =   0.18479) maximal distance =0.00027560
 next E    =  -383.573848   (d E  =  -0.00001)


--------------------------------------------------------------------------------------------------------


  
 reached required accuracy - stopping structural energy minimisation
 writing wavefunctions
     LOOP+:  cpu time 2719.4150: real time 2536.1891
    4ORBIT:  cpu time    0.0000: real time    0.0000
 


 total charge     
 
# of ion       s       p       d       tot
------------------------------------------
    1        0.743   1.391   0.000   2.135
    2        0.743   1.391   0.000   2.135
    3        0.743   1.391   0.000   2.135
    4        0.743   1.391   0.000   2.135
    5        0.743   1.391   0.000   2.135
    6        0.744   1.392   0.000   2.136
    7        0.744   1.392   0.000   2.135
    8        0.744   1.393   0.000   2.136
    9        0.743   1.391   0.000   2.135
   10        0.744   1.392   0.000   2.136
   11        0.743   1.391   0.000   2.135
   12        0.743   1.392   0.000   2.135
   13        0.743   1.391   0.000   2.135
   14        0.743   1.391   0.000   2.135
   15        0.743   1.391   0.000   2.135
   16        0.743   1.391   0.000   2.135
   17        1.240   2.816   0.000   4.056
   18        1.240   2.816   0.000   4.056
   19        1.240   2.816   0.000   4.056
   20        1.240   2.816   0.000   4.056
   21        1.240   2.816   0.000   4.055
   22        1.240   2.816   0.000   4.055
   23        1.240   2.815   0.000   4.055
   24        1.240   2.816   0.000   4.055
   25        1.240   2.815   0.000   4.055
   26        1.240   2.815   0.000   4.055
   27        1.240   2.815   0.000   4.055
   28        1.240   2.815   0.000   4.055
   29        1.240   2.816   0.000   4.056
   30        1.240   2.816   0.000   4.055
   31        1.240   2.816   0.000   4.055
   32        1.240   2.816   0.000   4.056
   33        0.814   1.560   0.000   2.374
   34        0.836   1.566   0.000   2.401
   35        0.945   1.794   0.000   2.738
   36        1.758   4.413   0.000   6.171
   37        1.758   4.405   0.000   6.163
   38        1.758   4.413   0.000   6.171
   39        1.757   4.399   0.000   6.156
   40        1.757   4.399   0.000   6.156
   41        1.608   3.594   0.000   5.203
   42        1.608   3.595   0.000   5.203
--------------------------------------------------
tot         46.329 101.453   0.000 147.782
 


 magnetization (x)
 
# of ion       s       p       d       tot
------------------------------------------
    1        0.000   0.000   0.000   0.000
    2        0.000   0.000   0.000   0.000
    3        0.000   0.000   0.000   0.000
    4        0.000   0.000   0.000   0.000
    5        0.000   0.000   0.000   0.000
    6        0.000   0.000   0.000   0.000
    7        0.000   0.000   0.000   0.000
    8        0.000   0.000   0.000   0.000
    9        0.000   0.000   0.000   0.000
   10        0.000   0.000   0.000   0.000
   11        0.000   0.000   0.000   0.000
   12       -0.000   0.000   0.000   0.000
   13        0.000   0.000   0.000   0.000
   14        0.000   0.000   0.000   0.000
   15        0.000   0.000   0.000   0.000
   16        0.000   0.000   0.000   0.000
   17       -0.000  -0.000   0.000  -0.000
   18        0.000   0.000   0.000   0.000
   19       -0.000  -0.000   0.000  -0.000
   20       -0.000  -0.000   0.000  -0.000
   21       -0.000  -0.000   0.000  -0.000
   22       -0.000  -0.000   0.000  -0.000
   23       -0.000  -0.000   0.000  -0.000
   24       -0.000  -0.000   0.000  -0.000
   25       -0.000  -0.000   0.000  -0.000
   26       -0.000  -0.000   0.000  -0.000
   27        0.000   0.000   0.000   0.000
   28       -0.000  -0.000   0.000  -0.000
   29       -0.000  -0.000   0.000  -0.000
   30       -0.000  -0.000   0.000  -0.000
   31       -0.000  -0.000   0.000  -0.000
   32        0.000   0.000   0.000   0.000
   33        0.004   0.010   0.000   0.015
   34        0.071   0.377   0.000   0.447
   35       -0.000   0.000   0.000   0.000
   36       -0.000  -0.000   0.000  -0.001
   37        0.001   0.030   0.000   0.031
   38       -0.000  -0.000   0.000  -0.001
   39        0.003   0.077   0.000   0.080
   40        0.003   0.077   0.000   0.080
   41        0.000   0.000   0.000   0.000
   42        0.000  -0.000   0.000  -0.000
--------------------------------------------------
tot          0.081   0.569   0.000   0.651
 

 total amount of memory used by VASP MPI-rank0   814198. kBytes
=======================================================================

   base      :      30000. kBytes
   nonlr-proj:      18684. kBytes
   fftplans  :      27143. kBytes
   grid      :     321845. kBytes
   one-center:        258. kBytes
   wavefun   :     416268. kBytes
 
  
  
 General timing and accounting informations for this job:
 ========================================================
  
                  Total CPU time used (sec):    48321.867
                            User time (sec):    47742.428
                          System time (sec):      579.438
                         Elapsed time (sec):    43774.753
  
                   Maximum memory used (kb):     1820032.
                   Average memory used (kb):           0.
  
                          Minor page faults:      7527423
                          Major page faults:           78
                 Voluntary context switches:       279557
