 vasp.5.4.4.18Apr17-6-g9f103f2a35 (build May 01 2020 14:57:12) complex          
  
 executed on             LinuxIFC date 2021.08.03  10:21:26
 running on   96 total cores
 distrk:  each k-point on   24 cores,    4 groups
 distr:  one band on NCORES_PER_BAND=   6 cores,    4 groups


--------------------------------------------------------------------------------------------------------


 INCAR:
 POTCAR:    PAW_PBE B 06Sep2000                   
 POTCAR:    PAW_PBE C 08Apr2002                   
 POTCAR:    PAW_PBE F 08Apr2002                   
 POTCAR:    PAW_PBE H 15Jun2001                   
 POTCAR:    PAW_PBE N 08Apr2002                   
 POTCAR:    PAW_PBE O 08Apr2002                   

 ----------------------------------------------------------------------------- 
|                                                                             |
|           W    W    AA    RRRRR   N    N  II  N    N   GGGG   !!!           |
|           W    W   A  A   R    R  NN   N  II  NN   N  G    G  !!!           |
|           W    W  A    A  R    R  N N  N  II  N N  N  G       !!!           |
|           W WW W  AAAAAA  RRRRR   N  N N  II  N  N N  G  GGG   !            |
|           WW  WW  A    A  R   R   N   NN  II  N   NN  G    G                |
|           W    W  A    A  R    R  N    N  II  N    N   GGGG   !!!           |
|                                                                             |
|      You have enabled k-point parallelism (KPAR>1).                         |
|      This developmental code was originally  written by Paul Kent at ORNL,  |
|      and carefully double checked in Vienna.                                |
|      GW as well as linear response parallelism added by Martijn Marsman     |
|      and Georg Kresse.                                                      |
|      Carefully verify results versus KPAR=1.                                |
|      Report problems to Paul Kent and Vienna.                               |
|                                                                             |
 ----------------------------------------------------------------------------- 


 ----------------------------------------------------------------------------- 
|                                                                             |
|  ADVICE TO THIS USER RUNNING 'VASP/VAMP'   (HEAR YOUR MASTER'S VOICE ...):  |
|                                                                             |
|      You have switched on vdW-DFT.                                          |
|      This routine was written and supplied by Jiri Klimes.                  |
|      We recommed that you carefully read and cite the following             |
|      publication                                                            |
|      J. Klimes, D.R. Bowler, A. Michelides                                  |
|        J. Phys.: Cond Matt. 22 022201 (2010)                                |
|      J. Klimes, D.R. Bowler, A. Michelides                                  |
|        Phys. Rev. B. 83, 195131 (2011)                                      |
|      and references therein.                                                |
|                                                                             |
 ----------------------------------------------------------------------------- 

 POTCAR:    PAW_PBE B 06Sep2000                   
   VRHFIN =B: s2p1                                                              
   LEXCH  = PE                                                                  
   EATOM  =    71.1703 eV,    5.2309 Ry                                         
                                                                                
   TITEL  = PAW_PBE B 06Sep2000                                                 
   LULTRA =        F    use ultrasoft PP ?                                      
   IUNSCR =        1    unscreen: 0-lin 1-nonlin 2-no                           
   RPACOR =    1.200    partial core radius                                     
   POMASS =   10.811; ZVAL   =    3.000    mass and valenz                      
   RCORE  =    1.700    outmost cutoff radius                                   
   RWIGS  =    1.710; RWIGS  =    0.905    wigner-seitz radius (au A)           
   ENMAX  =  318.614; ENMIN  =  238.960 eV                                      
   ICORE  =        2    local potential                                         
   LCOR   =        T    correct aug charges                                     
   LPAW   =        T    paw PP                                                  
   EAUG   =  535.514                                                            
   DEXC   =    0.000                                                            
   RMAX   =    1.732    core radius for proj-oper                               
   RAUG   =    1.300    factor for augmentation sphere                          
   RDEP   =    1.757    radius for radial grids                                 
   RDEPT  =    1.436    core radius for aug-charge                              
                                                                                
   Atomic configuration                                                         
    4 entries                                                                   
     n  l   j            E        occ.                                          
     1  0  0.50      -180.5896   2.0000                                         
     2  0  0.50        -9.4431   2.0000                                         
     2  1  0.50        -3.6068   1.0000                                         
     3  2  1.50        -4.0817   0.0000                                         
   Description                                                                  
     l       E           TYP  RCUT    TYP  RCUT                                 
     0     -9.4430752     23  1.500                                             
     0      0.8675899     23  1.500                                             
     1     -3.6067955     23  1.700                                             
     1      6.1086146     23  1.700                                             
     2     -4.0817478      7  1.700                                             
  local pseudopotential read in
  partial core-charges read in
  partial kinetic energy density read in
  atomic valenz-charges read in
  non local Contribution for L=           0  read in
    real space projection operators read in
  non local Contribution for L=           0  read in
    real space projection operators read in
  non local Contribution for L=           1  read in
    real space projection operators read in
  non local Contribution for L=           1  read in
    real space projection operators read in
    PAW grid and wavefunctions read in
 
   number of l-projection  operators is LMAX  =           4
   number of lm-projection operators is LMMAX =           8
 
 POTCAR:    PAW_PBE C 08Apr2002                   
   VRHFIN =C: s2p2                                                              
   LEXCH  = PE                                                                  
   EATOM  =   147.1560 eV,   10.8157 Ry                                         
                                                                                
   TITEL  = PAW_PBE C 08Apr2002                                                 
   LULTRA =        F    use ultrasoft PP ?                                      
   IUNSCR =        1    unscreen: 0-lin 1-nonlin 2-no                           
   RPACOR =    1.200    partial core radius                                     
   POMASS =   12.011; ZVAL   =    4.000    mass and valenz                      
   RCORE  =    1.500    outmost cutoff radius                                   
   RWIGS  =    1.630; RWIGS  =    0.863    wigner-seitz radius (au A)           
   ENMAX  =  400.000; ENMIN  =  300.000 eV                                      
   ICORE  =        2    local potential                                         
   LCOR   =        T    correct aug charges                                     
   LPAW   =        T    paw PP                                                  
   EAUG   =  644.873                                                            
   DEXC   =    0.000                                                            
   RMAX   =    1.529    core radius for proj-oper                               
   RAUG   =    1.300    factor for augmentation sphere                          
   RDEP   =    1.501    radius for radial grids                                 
   RDEPT  =    1.300    core radius for aug-charge                              
                                                                                
   Atomic configuration                                                         
    4 entries                                                                   
     n  l   j            E        occ.                                          
     1  0  0.50      -273.3789   2.0000                                         
     2  0  0.50       -13.7508   2.0000                                         
     2  1  0.50        -5.2854   2.0000                                         
     3  2  1.50        -5.4423   0.0000                                         
   Description                                                                  
     l       E           TYP  RCUT    TYP  RCUT                                 
     0    -13.7508458     23  1.200                                             
     0     -8.2022199     23  1.200                                             
     1     -5.2854383     23  1.500                                             
     1     34.0145650     23  1.500                                             
     2     -5.4423304      7  1.500                                             
  local pseudopotential read in
  partial core-charges read in
  partial kinetic energy density read in
  atomic valenz-charges read in
  non local Contribution for L=           0  read in
    real space projection operators read in
  non local Contribution for L=           0  read in
    real space projection operators read in
  non local Contribution for L=           1  read in
    real space projection operators read in
  non local Contribution for L=           1  read in
    real space projection operators read in
    PAW grid and wavefunctions read in
 
   number of l-projection  operators is LMAX  =           4
   number of lm-projection operators is LMMAX =           8
 
 POTCAR:    PAW_PBE F 08Apr2002                   
   VRHFIN =F: s2p5                                                              
   LEXCH  = PE                                                                  
   EATOM  =   659.6475 eV,   48.4827 Ry                                         
                                                                                
   TITEL  = PAW_PBE F 08Apr2002                                                 
   LULTRA =        F    use ultrasoft PP ?                                      
   IUNSCR =        1    unscreen: 0-lin 1-nonlin 2-no                           
   RPACOR =    1.200    partial core radius                                     
   POMASS =   18.998; ZVAL   =    7.000    mass and valenz                      
   RCORE  =    1.520    outmost cutoff radius                                   
   RWIGS  =    1.500; RWIGS  =    0.794    wigner-seitz radius (au A)           
   ENMAX  =  400.000; ENMIN  =  300.000 eV                                      
   ICORE  =        2    local potential                                         
   LCOR   =        T    correct aug charges                                     
   LPAW   =        T    paw PP                                                  
   EAUG   =  613.614                                                            
   RMAX   =    1.555    core radius for proj-oper                               
   RAUG   =    1.300    factor for augmentation sphere                          
   RDEP   =    1.539    radius for radial grids                                 
   RDEPT  =    1.299    core radius for aug-charge                              
                                                                                
   Atomic configuration                                                         
    4 entries                                                                   
     n  l   j            E        occ.                                          
     1  0  0.50      -663.3661   2.0000                                         
     2  0  0.50       -29.8995   2.0000                                         
     2  1  0.50       -11.1114   5.0000                                         
     3  2  1.50       -10.8847   0.0000                                         
   Description                                                                  
     l       E           TYP  RCUT    TYP  RCUT                                 
     0    -29.8995018     23  1.200                                             
     0     -9.5240782     23  1.200                                             
     1    -11.1113914     23  1.520                                             
     1      1.3605826     23  1.520                                             
     2    -10.8846608      7  1.500                                             
  local pseudopotential read in
  partial core-charges read in
  partial kinetic energy density read in
  atomic valenz-charges read in
  non local Contribution for L=           0  read in
    real space projection operators read in
  non local Contribution for L=           0  read in
    real space projection operators read in
  non local Contribution for L=           1  read in
    real space projection operators read in
  non local Contribution for L=           1  read in
    real space projection operators read in
    PAW grid and wavefunctions read in
 
   number of l-projection  operators is LMAX  =           4
   number of lm-projection operators is LMMAX =           8
 
 POTCAR:    PAW_PBE H 15Jun2001                   
   VRHFIN =H: ultrasoft test                                                    
   LEXCH  = PE                                                                  
   EATOM  =    12.4884 eV,    0.9179 Ry                                         
                                                                                
   TITEL  = PAW_PBE H 15Jun2001                                                 
   LULTRA =        F    use ultrasoft PP ?                                      
   IUNSCR =        0    unscreen: 0-lin 1-nonlin 2-no                           
   RPACOR =    0.000    partial core radius                                     
   POMASS =    1.000; ZVAL   =    1.000    mass and valenz                      
   RCORE  =    1.100    outmost cutoff radius                                   
   RWIGS  =    0.700; RWIGS  =    0.370    wigner-seitz radius (au A)           
   ENMAX  =  250.000; ENMIN  =  200.000 eV                                      
   RCLOC  =    0.701    cutoff for local pot                                    
   LCOR   =        T    correct aug charges                                     
   LPAW   =        T    paw PP                                                  
   EAUG   =  400.000                                                            
   RMAX   =    1.123    core radius for proj-oper                               
   RAUG   =    1.200    factor for augmentation sphere                          
   RDEP   =    1.112    radius for radial grids                                 
   RDEPT  =    0.926    core radius for aug-charge                              
                                                                                
   Atomic configuration                                                         
    2 entries                                                                   
     n  l   j            E        occ.                                          
     1  0  0.50        -6.4927   1.0000                                         
     2  1  0.50        -3.4015   0.0000                                         
   Description                                                                  
     l       E           TYP  RCUT    TYP  RCUT                                 
     0     -6.4927494     23  1.100                                             
     0      6.8029130     23  1.100                                             
     1     -4.0817478     23  1.100                                             
  local pseudopotential read in
  atomic valenz-charges read in
  non local Contribution for L=           0  read in
    real space projection operators read in
  non local Contribution for L=           0  read in
    real space projection operators read in
  non local Contribution for L=           1  read in
    real space projection operators read in
    PAW grid and wavefunctions read in
 
   number of l-projection  operators is LMAX  =           3
   number of lm-projection operators is LMMAX =           5
 
 POTCAR:    PAW_PBE N 08Apr2002                   
   VRHFIN =N: s2p3                                                              
   LEXCH  = PE                                                                  
   EATOM  =   264.5486 eV,   19.4438 Ry                                         
                                                                                
   TITEL  = PAW_PBE N 08Apr2002                                                 
   LULTRA =        F    use ultrasoft PP ?                                      
   IUNSCR =        1    unscreen: 0-lin 1-nonlin 2-no                           
   RPACOR =    1.200    partial core radius                                     
   POMASS =   14.001; ZVAL   =    5.000    mass and valenz                      
   RCORE  =    1.500    outmost cutoff radius                                   
   RWIGS  =    1.400; RWIGS  =    0.741    wigner-seitz radius (au A)           
   ENMAX  =  400.000; ENMIN  =  300.000 eV                                      
   ICORE  =        2    local potential                                         
   LCOR   =        T    correct aug charges                                     
   LPAW   =        T    paw PP                                                  
   EAUG   =  627.112                                                            
   DEXC   =    0.000                                                            
   RMAX   =    1.529    core radius for proj-oper                               
   RAUG   =    1.300    factor for augmentation sphere                          
   RDEP   =    1.514    radius for radial grids                                 
   RDEPT  =    1.338    core radius for aug-charge                              
                                                                                
   Atomic configuration                                                         
    4 entries                                                                   
     n  l   j            E        occ.                                          
     1  0  0.50      -384.7179   2.0000                                         
     2  0  0.50       -18.5828   2.0000                                         
     2  1  0.50        -7.0898   3.0000                                         
     3  2  1.50        -6.8029   0.0000                                         
   Description                                                                  
     l       E           TYP  RCUT    TYP  RCUT                                 
     0    -18.5828119     23  1.200                                             
     0    -13.5018863     23  1.200                                             
     1     -7.0897853     23  1.500                                             
     1      9.5240782     23  1.500                                             
     2     -6.8029130      7  1.500                                             
  local pseudopotential read in
  partial core-charges read in
  partial kinetic energy density read in
  atomic valenz-charges read in
  non local Contribution for L=           0  read in
    real space projection operators read in
  non local Contribution for L=           0  read in
    real space projection operators read in
  non local Contribution for L=           1  read in
    real space projection operators read in
  non local Contribution for L=           1  read in
    real space projection operators read in
    PAW grid and wavefunctions read in
 
   number of l-projection  operators is LMAX  =           4
   number of lm-projection operators is LMMAX =           8
 
 POTCAR:    PAW_PBE O 08Apr2002                   
   VRHFIN =O: s2p4                                                              
   LEXCH  = PE                                                                  
   EATOM  =   432.3788 eV,   31.7789 Ry                                         
                                                                                
   TITEL  = PAW_PBE O 08Apr2002                                                 
   LULTRA =        F    use ultrasoft PP ?                                      
   IUNSCR =        1    unscreen: 0-lin 1-nonlin 2-no                           
   RPACOR =    1.200    partial core radius                                     
   POMASS =   16.000; ZVAL   =    6.000    mass and valenz                      
   RCORE  =    1.520    outmost cutoff radius                                   
   RWIGS  =    1.550; RWIGS  =    0.820    wigner-seitz radius (au A)           
   ENMAX  =  400.000; ENMIN  =  300.000 eV                                      
   ICORE  =        2    local potential                                         
   LCOR   =        T    correct aug charges                                     
   LPAW   =        T    paw PP                                                  
   EAUG   =  605.392                                                            
   DEXC   =    0.000                                                            
   RMAX   =    1.553    core radius for proj-oper                               
   RAUG   =    1.300    factor for augmentation sphere                          
   RDEP   =    1.550    radius for radial grids                                 
   RDEPT  =    1.329    core radius for aug-charge                              
                                                                                
   Atomic configuration                                                         
    4 entries                                                                   
     n  l   j            E        occ.                                          
     1  0  0.50      -514.6923   2.0000                                         
     2  0  0.50       -23.9615   2.0000                                         
     2  1  0.50        -9.0305   4.0000                                         
     3  2  1.50        -9.5241   0.0000                                         
   Description                                                                  
     l       E           TYP  RCUT    TYP  RCUT                                 
     0    -23.9615318     23  1.200                                             
     0     -9.5240782     23  1.200                                             
     1     -9.0304911     23  1.520                                             
     1      8.1634956     23  1.520                                             
     2     -9.5240782      7  1.500                                             
  local pseudopotential read in
  partial core-charges read in
  partial kinetic energy density read in
  kinetic energy density of atom read in
  atomic valenz-charges read in
  non local Contribution for L=           0  read in
    real space projection operators read in
  non local Contribution for L=           0  read in
    real space projection operators read in
  non local Contribution for L=           1  read in
    real space projection operators read in
  non local Contribution for L=           1  read in
    real space projection operators read in
    PAW grid and wavefunctions read in
 
   number of l-projection  operators is LMAX  =           4
   number of lm-projection operators is LMMAX =           8
 
 Optimization of the real space projectors (new method)

 maximal supplied QI-value         = 22.11
 optimisation between [QCUT,QGAM] = [ 11.94, 23.88] = [ 39.92,159.67] Ry 
 Optimized for a Real-space Cutoff    1.18 Angstroem

   l    n(q)    QCUT    max X(q) W(low)/X(q) W(high)/X(q)  e(spline) 
   0      8    11.939    53.033    0.11E-03    0.34E-03    0.60E-07
   0      8    11.939    34.740    0.11E-03    0.34E-03    0.59E-07
   1      8    11.939    30.949    0.22E-03    0.20E-03    0.17E-06
   1      8    11.939    19.518    0.20E-03    0.18E-03    0.16E-06
 Optimization of the real space projectors (new method)

 maximal supplied QI-value         = 25.13
 optimisation between [QCUT,QGAM] = [ 11.81, 23.88] = [ 39.08,159.64] Ry 
 Optimized for a Real-space Cutoff    1.18 Angstroem

   l    n(q)    QCUT    max X(q) W(low)/X(q) W(high)/X(q)  e(spline) 
   0      8    11.813   115.676    0.10E-03    0.16E-03    0.35E-06
   0      8    11.813    87.132    0.10E-03    0.16E-03    0.35E-06
   1      8    11.813     4.429    0.16E-03    0.13E-04    0.22E-06
   1      8    11.813     2.733    0.13E-03    0.10E-04    0.18E-06
 Optimization of the real space projectors (new method)

 maximal supplied QI-value         = 24.76
 optimisation between [QCUT,QGAM] = [ 11.88, 24.01] = [ 39.54,161.47] Ry 
 Optimized for a Real-space Cutoff    1.18 Angstroem

   l    n(q)    QCUT    max X(q) W(low)/X(q) W(high)/X(q)  e(spline) 
   0      8    11.883    14.049    0.56E-04    0.86E-04    0.22E-06
   0      8    11.883     8.945    0.81E-04    0.11E-03    0.30E-06
   1      8    11.883     7.086    0.16E-03    0.15E-04    0.31E-06
   1      8    11.883     6.747    0.15E-03    0.14E-04    0.28E-06
 Optimization of the real space projectors (new method)

 maximal supplied QI-value         = 34.20
 optimisation between [QCUT,QGAM] = [ 11.97, 23.94] = [ 40.13,160.53] Ry 
 Optimized for a Real-space Cutoff    1.18 Angstroem

   l    n(q)    QCUT    max X(q) W(low)/X(q) W(high)/X(q)  e(spline) 
   0      8    11.971    19.460    0.15E-03    0.31E-03    0.25E-06
   0      8    11.971    12.209    0.13E-03    0.29E-03    0.25E-06
   1      8    11.971     4.655    0.22E-03    0.24E-03    0.21E-06
 Optimization of the real space projectors (new method)

 maximal supplied QI-value         = 25.13
 optimisation between [QCUT,QGAM] = [ 11.81, 23.88] = [ 39.08,159.64] Ry 
 Optimized for a Real-space Cutoff    1.41 Angstroem

   l    n(q)    QCUT    max X(q) W(low)/X(q) W(high)/X(q)  e(spline) 
   0     10    11.813    79.467    0.48E-04    0.30E-04    0.67E-06
   0     10    11.813    66.151    0.47E-04    0.30E-04    0.67E-06
   1     10    11.813    20.169    0.11E-03    0.17E-03    0.11E-05
   1     10    11.813    14.454    0.11E-03    0.17E-03    0.11E-05
 Optimization of the real space projectors (new method)

 maximal supplied QI-value         = 24.76
 optimisation between [QCUT,QGAM] = [ 11.88, 24.01] = [ 39.54,161.47] Ry 
 Optimized for a Real-space Cutoff    1.18 Angstroem

   l    n(q)    QCUT    max X(q) W(low)/X(q) W(high)/X(q)  e(spline) 
   0      8    11.883    20.381    0.86E-04    0.11E-03    0.31E-06
   0      8    11.883    15.268    0.94E-04    0.12E-03    0.33E-06
   1      8    11.883     5.964    0.19E-03    0.18E-04    0.33E-06
   1      8    11.883     5.382    0.17E-03    0.20E-04    0.29E-06
  PAW_PBE B 06Sep2000                   :
 energy of atom  1       EATOM=  -71.1703
 kinetic energy error for atom=    0.0009 (will be added to EATOM!!)
  PAW_PBE C 08Apr2002                   :
 energy of atom  2       EATOM= -147.1560
 kinetic energy error for atom=    0.0066 (will be added to EATOM!!)
  PAW_PBE F 08Apr2002                   :
 energy of atom  3       EATOM= -659.6475
 kinetic energy error for atom=    0.0296 (will be added to EATOM!!)
  PAW_PBE H 15Jun2001                   :
 energy of atom  4       EATOM=  -12.4884
 kinetic energy error for atom=    0.0008 (will be added to EATOM!!)
  PAW_PBE N 08Apr2002                   :
 energy of atom  5       EATOM= -264.5486
 kinetic energy error for atom=    0.0116 (will be added to EATOM!!)
  PAW_PBE O 08Apr2002                   :
 energy of atom  6       EATOM= -432.3788
 kinetic energy error for atom=    0.0194 (will be added to EATOM!!)
 
 
 POSCAR: B C F H N O                             
  positions in direct lattice
  velocities in cartesian coordinates

 METAGGA = SCAN     LMAXTAU =  6    LMIXTAU =  F

 exchange correlation table for  LEXCH =        8
   RHO(1)=    0.500       N(1)  =     2000
   RHO(2)=  100.500       N(2)  =     4000
 


--------------------------------------------------------------------------------------------------------


 ion  position               nearest neighbor table
   1  0.308  0.486  0.389-  53 1.38  35 1.41  45 1.45
   2  0.311  0.496  0.444-  45 1.45  46 1.45  36 1.45
   3  0.310  0.499  0.500-  47 1.45  46 1.45  37 1.45
   4  0.311  0.500  0.555-  48 1.45  38 1.45  47 1.45
   5  0.308  0.496  0.611-  55 1.38  39 1.41  48 1.45
   6  0.808  0.512  0.389-  54 1.38  40 1.41  49 1.45
   7  0.811  0.502  0.444-  49 1.45  50 1.45  41 1.45
   8  0.810  0.500  0.500-  51 1.45  50 1.45  42 1.45
   9  0.811  0.502  0.555-  52 1.45  43 1.45  51 1.45
  10  0.809  0.511  0.611-  56 1.37  44 1.42  52 1.46
  11  0.060  0.498  0.417-  35 1.42  36 1.45  49 1.45
  12  0.061  0.499  0.472-  36 1.44  37 1.44  50 1.45
  13  0.060  0.500  0.527-  38 1.44  37 1.44  51 1.45
  14  0.060  0.500  0.583-  39 1.42  52 1.45  38 1.45
  15  0.560  0.500  0.417-  40 1.42  41 1.45  45 1.45
  16  0.561  0.499  0.472-  41 1.44  42 1.44  46 1.45
  17  0.560  0.500  0.527-  43 1.44  42 1.44  47 1.45
  18  0.561  0.505  0.583-  44 1.42  48 1.45  43 1.45
  19  0.643  0.569  0.755-  22 1.34  24 1.35  23 1.35  20 1.53
  20  0.561  0.566  0.725-  26 1.37  25 1.37  19 1.53  21 1.55
  21  0.655  0.518  0.700-  57 1.24  58 1.25  20 1.55
  22  0.659  0.487  0.767-  19 1.34
  23  0.563  0.619  0.775-  19 1.35
  24  0.784  0.605  0.752-  19 1.35
  25  0.423  0.524  0.730-  20 1.37
  26  0.529  0.652  0.718-  20 1.37
  27  0.086  0.492  0.371-  35 1.01
  28  0.084  0.498  0.628-  39 1.01
  29  0.585  0.507  0.371-  40 1.01
  30  0.587  0.513  0.629-  44 1.01
  31  0.314  0.472  0.345-  53 0.96
  32  0.814  0.528  0.345-  54 0.96
  33  0.313  0.489  0.655-  55 0.96
  34  0.815  0.531  0.655-  56 1.00
  35  0.146  0.491  0.390-  27 1.01   1 1.41  11 1.42
  36  0.144  0.497  0.444-  12 1.44  11 1.45   2 1.45
  37  0.144  0.499  0.500-  12 1.44  13 1.44   3 1.45
  38  0.144  0.499  0.555-  13 1.44  14 1.45   4 1.45
  39  0.146  0.496  0.609-  28 1.01   5 1.41  14 1.42
  40  0.646  0.508  0.390-  29 1.01   6 1.41  15 1.42
  41  0.644  0.500  0.444-  16 1.44  15 1.45   7 1.45
  42  0.644  0.499  0.500-  16 1.44  17 1.44   8 1.45
  43  0.644  0.503  0.555-  17 1.44  18 1.45   9 1.45
  44  0.647  0.512  0.609-  30 1.01  18 1.42  10 1.42
  45  0.394  0.493  0.416-  15 1.45   2 1.45   1 1.45
  46  0.394  0.498  0.472-   3 1.45   2 1.45  16 1.45
  47  0.394  0.500  0.527-   3 1.45  17 1.45   4 1.45
  48  0.394  0.500  0.583-   4 1.45  18 1.45   5 1.45
  49  0.894  0.505  0.416-  11 1.45   7 1.45   6 1.45
  50  0.894  0.500  0.472-   8 1.45   7 1.45  12 1.45
  51  0.894  0.500  0.527-   8 1.45  13 1.45   9 1.45
  52  0.894  0.504  0.583-   9 1.45  14 1.45  10 1.46
  53  0.382  0.476  0.362-  31 0.96   1 1.38
  54  0.882  0.524  0.362-  32 0.96   6 1.38
  55  0.382  0.492  0.638-  33 0.96   5 1.38
  56  0.883  0.517  0.638-  34 1.00  10 1.37
  57  0.655  0.436  0.702-  21 1.24
  58  0.719  0.570  0.682-  21 1.25
 
  LATTYP: Found a simple orthorhombic cell.
 ALAT       =     8.7025000000
 B/A-ratio  =     1.7236426314
 C/A-ratio  =     5.1709278943
  
  Lattice vectors:
  
 A1 = (   0.0000000000,  -8.7025000000,   0.0000000000)
 A2 = (  15.0000000000,   0.0000000000,   0.0000000000)
 A3 = (   0.0000000000,   0.0000000000,  45.0000000000)


Analysis of symmetry for initial positions (statically):
=====================================================================
 Subroutine PRICEL returns:
 Original cell was already a primitive cell.
 

 Routine SETGRP: Setting up the symmetry group for a 
 simple orthorhombic supercell.


 Subroutine GETGRP returns: Found  1 space group operations
 (whereof  1 operations were pure point group operations)
 out of a pool of  8 trial point group operations.


The static configuration has the point symmetry C_1 .


Analysis of symmetry for dynamics (positions and initial velocities):
=====================================================================
 Subroutine PRICEL returns:
 Original cell was already a primitive cell.
 

 Routine SETGRP: Setting up the symmetry group for a 
 simple orthorhombic supercell.


 Subroutine GETGRP returns: Found  1 space group operations
 (whereof  1 operations were pure point group operations)
 out of a pool of  8 trial point group operations.


The dynamic configuration has the point symmetry C_1 .


Analysis of constrained symmetry for selective dynamics:
=====================================================================
 Subroutine PRICEL returns:
 Original cell was already a primitive cell.
 

 Routine SETGRP: Setting up the symmetry group for a 
 simple orthorhombic supercell.


 Subroutine GETGRP returns: Found  1 space group operations
 (whereof  1 operations were pure point group operations)
 out of a pool of  8 trial point group operations.


The constrained configuration has the point symmetry C_1 .


Analysis of structural, dynamic, and magnetic symmetry:
=====================================================================
 Subroutine PRICEL returns:
 Original cell was already a primitive cell.
 

 Routine SETGRP: Setting up the symmetry group for a 
 simple orthorhombic supercell.


 Subroutine GETGRP returns: Found  1 space group operations
 (whereof  1 operations were pure point group operations)
 out of a pool of  8 trial point group operations.


The magnetic configuration has the point symmetry C_1 .


 Subroutine INISYM returns: Found  1 space group operations
 (whereof  1 operations are pure point group operations),
 and found     1 'primitive' translations

 
 
 KPOINTS: K-Point Grid                            

Automatic generation of k-mesh.
Space group operators:
 irot       det(A)        alpha          n_x          n_y          n_z        tau_x        tau_y        tau_z
    1     1.000000     0.000001     1.000000     0.000000     0.000000     0.000000     0.000000     0.000000
 
 Subroutine IBZKPT returns following result:
 ===========================================
 
 Found      8 irreducible k-points:
 
 Following reciprocal coordinates:
            Coordinates               Weight
  0.125000  0.125000  0.000000      2.000000
  0.375000  0.125000  0.000000      2.000000
 -0.375000  0.125000  0.000000      2.000000
 -0.125000  0.125000  0.000000      2.000000
  0.125000  0.375000  0.000000      2.000000
  0.375000  0.375000  0.000000      2.000000
 -0.375000  0.375000  0.000000      2.000000
 -0.125000  0.375000  0.000000      2.000000
 
 Following cartesian coordinates:
            Coordinates               Weight
  0.008333 -0.014364  0.000000      2.000000
  0.008333 -0.043091  0.000000      2.000000
  0.008333  0.043091  0.000000      2.000000
  0.008333  0.014364  0.000000      2.000000
  0.025000 -0.014364  0.000000      2.000000
  0.025000 -0.043091  0.000000      2.000000
  0.025000  0.043091  0.000000      2.000000
  0.025000  0.014364  0.000000      2.000000
 


--------------------------------------------------------------------------------------------------------




 Dimension of arrays:
   k-points           NKPTS =      8   k-points in BZ     NKDIM =      8   number of bands    NBANDS=    180
   number of dos      NEDOS =   1200   number of ions     NIONS =     58
   non local maximal  LDIM  =      4   non local SUM 2l+1 LMDIM =      8
   total plane-waves  NPLWV = ******
   max r-space proj   IRMAX =   5874   max aug-charges    IRDMAX=   8004
   dimension x,y,z NGX =    70 NGY =  120 NGZ =  350
   dimension x,y,z NGXF=   140 NGYF=  240 NGZF=  700
   support grid    NGXF=   140 NGYF=  240 NGZF=  700
   ions per type =              18   3   5   8  18   6
   NGX,Y,Z   is equivalent  to a cutoff of  13.37, 13.30, 12.93 a.u.
   NGXF,Y,Z  is equivalent  to a cutoff of  26.74, 26.60, 25.86 a.u.

 SYSTEM =  SiC                                     
 POSCAR =  B C F H N O                             

 Startparameter for this run:
   NWRITE =      2    write-flag & timer
   PREC   = accura    normal or accurate (medium, high low for compatibility)
   ISTART =      1    job   : 0-new  1-cont  2-samecut
   ICHARG =      0    charge: 1-file 2-atom 10-const
   ISPIN  =      2    spin polarized calculation?
   LNONCOLLINEAR =      F non collinear calculations
   LSORBIT =      F    spin-orbit coupling
   INIWAV =      1    electr: 0-lowe 1-rand  2-diag
   LASPH  =      T    aspherical Exc in radial PAW
   METAGGA=      F    non-selfconsistent MetaGGA calc.

 Electronic Relaxation 1
   ENCUT  =  550.0 eV  40.42 Ry    6.36 a.u.  16.64 28.68 86.05*2*pi/ulx,y,z
   ENINI  =  550.0     initial cutoff
   ENAUG  =  644.9 eV  augmentation charge cutoff
   NELM   =    100;   NELMIN=  2; NELMDL=  0     # of ELM steps 
   EDIFF  = 0.1E-04   stopping-criterion for ELM
   LREAL  =      T    real-space projection
   NLSPLINE    = F    spline interpolate recip. space projectors
   LCOMPAT=      F    compatible to vasp.4.4
   GGA_COMPAT  = T    GGA compatible to vasp.4.4-vasp.4.6
   LMAXPAW     = -100 max onsite density
   LMAXMIX     =    2 max onsite mixed and CHGCAR
   VOSKOWN=      0    Vosko Wilk Nusair interpolation
   ROPT   =   -0.00025  -0.00025  -0.00025  -0.00025
   ROPT   =   -0.00025  -0.00025
 Ionic relaxation
   EDIFFG = -.2E-01   stopping-criterion for IOM
   NSW    =    500    number of steps for IOM
   NBLOCK =      1;   KBLOCK =    500    inner block; outer block 
   IBRION =      2    ionic relax: 0-MD 1-quasi-New 2-CG
   NFREE  =      1    steps in history (QN), initial steepest desc. (CG)
   ISIF   =      2    stress and relaxation
   IWAVPR =     11    prediction:  0-non 1-charg 2-wave 3-comb
   ISYM   =      2    0-nonsym 1-usesym 2-fastsym
   LCORR  =      T    Harris-Foulkes like correction to forces

   POTIM  = 0.5000    time-step for ionic-motion
   TEIN   =    0.0    initial temperature
   TEBEG  =    0.0;   TEEND  =   0.0 temperature during run
   SMASS  =  -3.00    Nose mass-parameter (am)
   estimated Nose-frequenzy (Omega)   =  0.10E-29 period in steps =****** mass=  -0.173E-26a.u.
   SCALEE = 1.0000    scale energy and forces
   NPACO  =    256;   APACO  = 16.0  distance and # of slots for P.C.
   PSTRESS=    0.0 pullay stress

  Mass of Ions in am
   POMASS =  10.81 12.01 19.00  1.00 14.00 16.00
  Ionic Valenz
   ZVAL   =   3.00  4.00  7.00  1.00  5.00  6.00
  Atomic Wigner-Seitz radii
   RWIGS  =  -1.00 -1.00 -1.00 -1.00 -1.00 -1.00
  virtual crystal weights 
   VCA    =   1.00  1.00  1.00  1.00  1.00  1.00
   NELECT =     236.0000    total number of electrons
   NUPDOWN=      -1.0000    fix difference up-down

 DOS related values:
   EMIN   =  10.00;   EMAX   =-10.00  energy-range for DOS
   EFERMI =   0.00
   ISMEAR =     0;   SIGMA  =   0.05  broadening in eV -4-tet -1-fermi 0-gaus

 Electronic relaxation 2 (details)
   IALGO  =     68    algorithm
   LDIAG  =      T    sub-space diagonalisation (order eigenvalues)
   LSUBROT=      F    optimize rotation matrix (better conditioning)
   TURBO    =      0    0=normal 1=particle mesh
   IRESTART =      0    0=no restart 2=restart with 2 vectors
   NREBOOT  =      0    no. of reboots
   NMIN     =      0    reboot dimension
   EREF     =   0.00    reference energy to select bands
   IMIX   =      4    mixing-type and parameters
     AMIX     =   0.40;   BMIX     =  1.00
     AMIX_MAG =   1.60;   BMIX_MAG =  1.00
     AMIN     =   0.10
     WC   =   100.;   INIMIX=   1;  MIXPRE=   1;  MAXMIX= -45

 Intra band minimization:
   WEIMIN = 0.0010     energy-eigenvalue tresh-hold
   EBREAK =  0.14E-07  absolut break condition
   DEPER  =   0.30     relativ break condition  

   TIME   =   0.40     timestep for ELM

  volume/ion in A,a.u.               =     101.28       683.47
  Fermi-wavevector in a.u.,A,eV,Ry     =   0.560699  1.059567  4.277441  0.314383
  Thomas-Fermi vector in A             =   1.596683
 
 Write flags
   LWAVE        =      T    write WAVECAR
   LDOWNSAMPLE  =      F    k-point downsampling of WAVECAR
   LCHARG       =      F    write CHGCAR
   LVTOT        =      F    write LOCPOT, total local potential
   LVHAR        =      T    write LOCPOT, Hartree potential only
   LELF         =      F    write electronic localiz. function (ELF)
   LORBIT       =     11    0 simple, 1 ext, 2 COOP (PROOUT), +10 PAW based schemes


 Dipole corrections
   LMONO  =      F    monopole corrections only (constant potential shift)
   LDIPOL =      F    correct potential (dipole corrections)
   IDIPOL =      0    1-x, 2-y, 3-z, 4-all directions 
   EPSILON=  1.0000000 bulk dielectric constant

 Exchange correlation treatment:
   GGA     =    --    GGA type
   LEXCH   =     8    internal setting for exchange type
   VOSKOWN=      0    Vosko Wilk Nusair interpolation
   LHFCALC =     F    Hartree Fock is set to
   LHFONE  =     F    Hartree Fock one center treatment
   AEXX    =    0.0000 exact exchange contribution

 vdW DFT:
   LUSE_VDW   =     T    switch on vdW DFT
   Zab_VDW    =-.8491    correlation parameter
   PARAM1     =0.1234
   PARAM2     =1.0000
   PARAM3     =0.0000
   -- rVV10 --
   BPARAM     =15.7000
   CPARAM     = 0.0093

 Linear response parameters
   LEPSILON=     F    determine dielectric tensor
   LRPA    =     F    only Hartree local field effects (RPA)
   LNABLA  =     F    use nabla operator in PAW spheres
   LVEL    =     F    velocity operator in full k-point grid
   LINTERFAST=   F  fast interpolation
   KINTER  =     0    interpolate to denser k-point grid
   CSHIFT  =0.1000    complex shift for real part using Kramers Kronig
   OMEGAMAX=  -1.0    maximum frequency
   DEG_THRESHOLD= 0.2000000E-02 threshold for treating states as degnerate
   RTIME   =   -0.100 relaxation time in fs
  (WPLASMAI=    0.000 imaginary part of plasma frequency in eV, 0.658/RTIME)
   DFIELD  = 0.0000000 0.0000000 0.0000000 field for delta impulse in time
 
 Orbital magnetization related:
   ORBITALMAG=     F  switch on orbital magnetization
   LCHIMAG   =     F  perturbation theory with respect to B field
   DQ        =  0.001000  dq finite difference perturbation B field
   LLRAUG    =     F  two centre corrections for induced B field

 Solvation model:
   LSOL    =     T         switch on solvation model
   EB_K    = 78.400000     relative permittivity of the bulk solvent
   SIGMA_K =  0.600000     width of the dielectric cavity
   NC_K    =  0.002500     cutoff charge density
   TAU     =  0.000000     cavity surface tension
   LAMBDA_D_K    =  3.040000     Debye length in Angstroms
   LRHOB     =     F     write boundcharge  density
   LRHOION     =     F     write ioniccharge density



--------------------------------------------------------------------------------------------------------


 conjugate gradient relaxation of ions
   using selective dynamics as specified on POSCAR
 charge density and potential will be updated during run
 spin polarized calculation
 RMM-DIIS sequential band-by-band and
  variant of blocked Davidson during initial phase
 perform sub-space diagonalisation
    before iterative eigenvector-optimisation
 modified Broyden-mixing scheme, WC =      100.0
 initial mixing is a Kerker type mixing with AMIX =  0.4000 and BMIX =      1.0000
 Hartree-type preconditioning will be used
 using additional bands           62
 real space projection scheme for non local part
 use partial core corrections
 calculate Harris-corrections to forces 
   (improved forces if not selfconsistent)
 use gradient corrections 
 use of overlap-Matrix (Vanderbilt PP)
 Gauss-broadening in eV      SIGMA  =   0.05


--------------------------------------------------------------------------------------------------------


  energy-cutoff  :      550.00
  volume of cell :     5874.19
      direct lattice vectors                 reciprocal lattice vectors
     0.000000000 -8.702500000  0.000000000     0.000000000 -0.114909509  0.000000000
    15.000000000  0.000000000  0.000000000     0.066666667  0.000000000  0.000000000
     0.000000000  0.000000000 45.000000000     0.000000000  0.000000000  0.022222222

  length of vectors
     8.702500000 15.000000000 45.000000000     0.114909509  0.066666667  0.022222222


 
 old parameters found on file WAVECAR:
  energy-cutoff  :      550.00
  volume of cell :     5874.19
      direct lattice vectors                 reciprocal lattice vectors
     0.000000000 -8.702500000  0.000000000     0.000000000 -0.114909509  0.000000000
    15.000000000  0.000000000  0.000000000     0.066666667  0.000000000  0.000000000
     0.000000000  0.000000000 45.000000000     0.000000000  0.000000000  0.022222222

  length of vectors

 
 k-points in units of 2pi/SCALE and weight: K-Point Grid                            
   0.00833333 -0.01436369  0.00000000       0.125
   0.00833333 -0.04309107  0.00000000       0.125
   0.00833333  0.04309107  0.00000000       0.125
   0.00833333  0.01436369  0.00000000       0.125
   0.02500000 -0.01436369  0.00000000       0.125
   0.02500000 -0.04309107  0.00000000       0.125
   0.02500000  0.04309107  0.00000000       0.125
   0.02500000  0.01436369  0.00000000       0.125
 
 k-points in reciprocal lattice and weights: K-Point Grid                            
   0.12500000  0.12500000  0.00000000       0.125
   0.37500000  0.12500000  0.00000000       0.125
  -0.37500000  0.12500000  0.00000000       0.125
  -0.12500000  0.12500000  0.00000000       0.125
   0.12500000  0.37500000  0.00000000       0.125
   0.37500000  0.37500000  0.00000000       0.125
  -0.37500000  0.37500000  0.00000000       0.125
  -0.12500000  0.37500000  0.00000000       0.125
 
 position of ions in fractional coordinates (direct lattice) 
   0.30832765  0.48630839  0.38874691
   0.31059516  0.49578740  0.44405302
   0.31048760  0.49902646  0.49968816
   0.31063702  0.49950043  0.55536971
   0.30822861  0.49563797  0.61077255
   0.80827163  0.51222460  0.38877244
   0.81057047  0.50174171  0.44405274
   0.81041948  0.49981811  0.49968224
   0.81053953  0.50247168  0.55534450
   0.80930807  0.51135932  0.61085313
   0.06035252  0.49827611  0.41658777
   0.06053345  0.49911891  0.47196688
   0.06047713  0.49974851  0.52736841
   0.06028037  0.50000408  0.58272312
   0.56038125  0.49950935  0.41660541
   0.56052980  0.49876857  0.47198500
   0.56048948  0.50045980  0.52741927
   0.56054169  0.50475257  0.58286065
   0.64314978  0.56901427  0.75522169
   0.56119291  0.56598144  0.72503631
   0.65453175  0.51823732  0.70023826
   0.65921191  0.48706947  0.76677054
   0.56332198  0.61869377  0.77478563
   0.78368996  0.60542103  0.75233178
   0.42334501  0.52427089  0.72965625
   0.52866632  0.65242492  0.71780384
   0.08553225  0.49165480  0.37070635
   0.08368413  0.49752760  0.62846102
   0.58544027  0.50742716  0.37074047
   0.58651261  0.51333699  0.62873958
   0.31421302  0.47244045  0.34499124
   0.81411865  0.52773453  0.34509112
   0.31296168  0.48906775  0.65471144
   0.81542674  0.53077401  0.65501027
   0.14618473  0.49073078  0.38987048
   0.14410222  0.49741186  0.44435289
   0.14402678  0.49923903  0.49965790
   0.14416939  0.49943244  0.55495621
   0.14621261  0.49588709  0.60947596
   0.64612933  0.50781542  0.38990197
   0.64408910  0.49992674  0.44437061
   0.64394511  0.49948879  0.49968665
   0.64400549  0.50270412  0.55501698
   0.64654413  0.51241312  0.60949854
   0.39440619  0.49263981  0.41626824
   0.39401318  0.49791852  0.47190224
   0.39395980  0.49990211  0.52747681
   0.39434665  0.49965059  0.58318905
   0.89436416  0.50496432  0.41626351
   0.89399247  0.49994884  0.47189923
   0.89391451  0.50025617  0.52744856
   0.89426418  0.50421106  0.58306973
   0.38233390  0.47579122  0.36186869
   0.88226054  0.52363070  0.36193243
   0.38171917  0.49152045  0.63791611
   0.88304866  0.51687924  0.63766758
   0.65496456  0.43583781  0.70157710
   0.71941557  0.57026642  0.68236337
 
 position of ions in cartesian coordinates  (Angst):
   7.29462584 -2.68322137 17.49361095
   7.43681094 -2.70295434 19.98238603
   7.48539691 -2.70201835 22.48596709
   7.49250650 -2.70331867 24.99163710
   7.43456957 -2.68235948 27.48476453
   7.68336893 -7.03398387 17.49475960
   7.52612567 -7.05398955 19.98237343
   7.49727171 -7.05267550 22.48570073
   7.53707527 -7.05372029 24.99050260
   7.67038978 -7.04300352 27.48839086
   7.47414171 -0.52521780 18.74644944
   7.48678369 -0.52679238 21.23850943
   7.49622762 -0.52630221 23.73157850
   7.50006125 -0.52458991 26.22254037
   7.49264027 -4.87671782 18.74724338
   7.48152858 -4.87801062 21.23932521
   7.50689694 -4.87765974 23.73386707
   7.57128849 -4.87811408 26.22872908
   8.53521407 -5.59701092 33.98497605
   8.48972156 -4.88378127 32.62663377
   7.77355979 -5.69606259 31.51072170
   7.30604202 -5.73679162 34.50467436
   9.28040661 -4.90230956 34.86535332
   9.08131543 -6.82006184 33.85493024
   7.86406341 -3.68415998 32.83453144
   9.78637373 -4.60071861 32.30117271
   7.37482202 -0.74434442 16.68178572
   7.46291400 -0.72826110 28.28074586
   7.61140747 -5.09479394 16.68332105
   7.70005488 -5.10412603 28.29328105
   7.08660676 -2.73443884 15.52460571
   7.91601789 -7.08486754 15.52910057
   7.33601621 -2.72354906 29.46201472
   7.96161016 -7.09625119 29.47546236
   7.36096163 -1.27217259 17.54417165
   7.46117793 -1.25404960 19.99588024
   7.48858538 -1.25339308 22.48460554
   7.49148665 -1.25463414 24.97302958
   7.43830638 -1.27241521 27.42641833
   7.61723130 -5.62294046 17.54558854
   7.49890104 -5.60518536 19.99667737
   7.49233189 -5.60393236 22.48589922
   7.54056183 -5.60445782 24.97576425
   7.68619681 -5.62655028 27.42743441
   7.38959718 -3.43231991 18.73207071
   7.46877778 -3.42889972 21.23560076
   7.49853162 -3.42843513 23.73645627
   7.49475888 -3.43180172 26.24350739
   7.57446478 -7.78320413 18.73185792
   7.49923255 -7.77996943 21.23546554
   7.50384260 -7.77929103 23.73518506
   7.56316586 -7.78233404 26.23813779
   7.13686825 -3.32726076 16.28409111
   7.85446049 -7.67787236 16.28695949
   7.37280679 -3.32191110 28.70622512
   7.75318863 -7.68473094 28.69504097
   6.53756709 -5.69982905 31.57096962
   8.55399624 -6.26071399 30.70635160
 


--------------------------------------------------------------------------------------------------------


 k-point  1 :   0.1250 0.1250 0.0000  plane waves:  172058
 k-point  2 :   0.3750 0.1250 0.0000  plane waves:  171988
 k-point  3 :  -0.3750 0.1250 0.0000  plane waves:  171988
 k-point  4 :  -0.1250 0.1250 0.0000  plane waves:  172058
 k-point  5 :   0.1250 0.3750 0.0000  plane waves:  172081
 k-point  6 :   0.3750 0.3750 0.0000  plane waves:  171978
 k-point  7 :  -0.3750 0.3750 0.0000  plane waves:  171978
 k-point  8 :  -0.1250 0.3750 0.0000  plane waves:  172081

 maximum and minimum number of plane-waves per node :     28724    28600

 maximum number of plane-waves:    172081
 maximum index in each direction: 
   IXMAX=   17   IYMAX=   28   IZMAX=   86
   IXMIN=  -17   IYMIN=  -29   IZMIN=  -86


 real space projection operators:
  total allocation   :      14032.54 KBytes
  max/ min on nodes  :       2398.22       2241.59


 parallel 3D FFT for wavefunctions:
    minimum data exchange during FFTs selected (reduces bandwidth)
 parallel 3D FFT for charge:
    minimum data exchange during FFTs selected (reduces bandwidth)


 total amount of memory used by VASP MPI-rank0   620805. kBytes
=======================================================================

   base      :      30000. kBytes
   nonlr-proj:       8701. kBytes
   fftplans  :      48484. kBytes
   grid      :     201968. kBytes
   one-center:         61. kBytes
   wavefun   :     331591. kBytes
 
     INWAV:  cpu time   32.2403: real time   33.8967
 Broyden mixing: mesh for mixing (old mesh)
   NGX = 33   NGY = 57   NGZ =173
  (NGX  =140   NGY  =240   NGZ  =700)
  gives a total of 325413 points

 charge density for first step will be calculated from the start-wavefunctions


--------------------------------------------------------------------------------------------------------


 Maximum index for non-local projection operator         1074
 Maximum index for augmentation-charges          399 (set IRDMAX)


--------------------------------------------------------------------------------------------------------


 initial charge from wavefunction
 First call to EWALD:  gamma=   0.098
 Maximum number of real-space cells 5x 3x 1
 Maximum number of reciprocal cells 2x 2x 6

    FEWALD:  cpu time    0.0094: real time    0.0064


--------------------------------------- Iteration      1(   1)  ---------------------------------------


    POTLOK:  cpu time   59.5935: real time   59.6418
    SETDIJ:  cpu time    0.7226: real time    0.5344
     EDDAV:  cpu time  150.8123: real time   81.9540
       DOS:  cpu time    0.0685: real time    0.0711
    CHARGE:  cpu time   17.1781: real time   16.4913
    MIXING:  cpu time    0.1936: real time    0.1026
    --------------------------------------------
      LOOP:  cpu time  228.5687: real time  158.7954

 eigenvalue-minimisations  :  5156
 total energy-change (2. order) :-0.4918314E+03  (-0.2494090E-05)
 number of electron     235.9999989 magnetization       0.0000000
 augmentation part       14.9042846 magnetization       0.0000003

 Broyden mixing:
  rms(total) = 0.75247E-03    rms(broyden)= 0.75193E-03
  rms(prec ) = 0.76463E-03
  weight for this iteration     100.00

 Free energy of the ion-electron system (eV)
  ---------------------------------------------------
  alpha Z        PSCENC =        45.85277946
  Ewald energy   TEWEN  =     63336.32997633
  -Hartree energ DENC   =    -74634.48692315
  -exchange      EXHF   =         0.00000000
  -V(xc)+E(xc)   XCENC  =      1136.87673276
  PAW double counting   =     25765.09925322   -25882.25704814
  entropy T*S    EENTRO =        -0.00000000
  eigenvalues    EBANDS =     -3394.07373728
  atomic energy  EATOM  =     12476.30873144
  Solvation  Ediel_sol  =       658.51885146
  ---------------------------------------------------
  free energy    TOTEN  =      -491.83138389 eV

  energy without entropy =     -491.83138389  energy(sigma->0) =     -491.83138389


--------------------------------------------------------------------------------------------------------




--------------------------------------- Iteration      1(   2)  ---------------------------------------


    POTLOK:  cpu time   44.9025: real time   45.0011
    SETDIJ:  cpu time    0.6614: real time    0.4660
    EDDIAG:  cpu time   24.0699: real time   19.1275
  RMM-DIIS:  cpu time  164.2525: real time   88.1697
    ORTHCH:  cpu time    0.5504: real time    0.2776
       DOS:  cpu time    0.0056: real time    0.0028
    --------------------------------------------
      LOOP:  cpu time  234.4423: real time  153.0446

 eigenvalue-minimisations  :  3960
 total energy-change (2. order) : 0.1748380E-05  (-0.7809107E-06)
 number of electron     235.9999989 magnetization       0.0000000
 augmentation part       14.9042846 magnetization       0.0000003

 Free energy of the ion-electron system (eV)
  ---------------------------------------------------
  alpha Z        PSCENC =        45.85277946
  Ewald energy   TEWEN  =     63336.32997633
  -Hartree energ DENC   =    -74634.48735075
  -exchange      EXHF   =         0.00000000
  -V(xc)+E(xc)   XCENC  =      1136.87659608
  PAW double counting   =     25765.10024295   -25882.25805945
  entropy T*S    EENTRO =        -0.00000000
  eigenvalues    EBANDS =     -3394.07449262
  atomic energy  EATOM  =     12476.30873144
  Solvation  Ediel_sol  =       658.52019441
  ---------------------------------------------------
  free energy    TOTEN  =      -491.83138214 eV

  energy without entropy =     -491.83138214  energy(sigma->0) =     -491.83138214


--------------------------------------------------------------------------------------------------------




 average (electrostatic) potential at core
  the test charge radii are     0.7672  0.6991  0.7167  0.5201  0.7089  0.7215
  (the norm of the test charge is              1.0000)
       1 -38.4737       2 -38.2622       3 -38.2703       4 -38.2274       5 -38.4061
       6 -38.4732       7 -38.2615       8 -38.2639       9 -38.1947      10 -38.2472
      11 -38.1106      12 -38.2391      13 -38.2178      14 -38.0162      15 -38.1116
      16 -38.2394      17 -38.2179      18 -38.0322      19 -67.2883      20 -65.3757
      21 -63.6857      22 -91.8306      23 -91.7931      24 -91.8417      25 -91.2433
      26 -91.2153      27 -45.4547      28 -45.2565      29 -45.4511      30 -45.2906
      31 -46.5648      32 -46.5792      33 -46.5263      34 -45.4045      35 -75.7343
      36 -75.7983      37 -75.8482      38 -75.7647      39 -75.6185      40 -75.7312
      41 -75.7998      42 -75.8466      43 -75.7584      44 -75.5960      45 -75.7988
      46 -75.8520      47 -75.8299      48 -75.7474      49 -75.7968      50 -75.8479
      51 -75.8206      52 -75.6815      53 -84.5258      54 -84.5260      55 -84.4757
      56 -83.9816      57 -83.6175      58 -83.8260
 
 
 
 E-fermi :  -5.6640     XC(G=0):  -1.1041     alpha+bet : -0.8274


 spin component 1

 k-point     1 :       0.1250    0.1250    0.0000
  band No.  band energies     occupation 
      1     -35.5444      1.00000
      2     -33.9360      1.00000
      3     -33.2218      1.00000
      4     -33.1460      1.00000
      5     -32.4016      1.00000
      6     -28.1678      1.00000
      7     -26.9242      1.00000
      8     -26.8616      1.00000
      9     -26.8411      1.00000
     10     -26.3682      1.00000
     11     -25.8969      1.00000
     12     -24.3791      1.00000
     13     -23.8838      1.00000
     14     -23.5054      1.00000
     15     -23.1976      1.00000
     16     -23.1110      1.00000
     17     -22.9659      1.00000
     18     -22.5913      1.00000
     19     -22.5771      1.00000
     20     -22.3830      1.00000
     21     -22.0556      1.00000
     22     -21.9664      1.00000
     23     -21.6192      1.00000
     24     -21.5589      1.00000
     25     -21.5054      1.00000
     26     -21.3596      1.00000
     27     -21.2113      1.00000
     28     -20.9771      1.00000
     29     -20.9481      1.00000
     30     -20.7366      1.00000
     31     -18.0305      1.00000
     32     -16.2623      1.00000
     33     -15.8709      1.00000
     34     -15.8180      1.00000
     35     -15.0908      1.00000
     36     -14.9591      1.00000
     37     -14.9230      1.00000
     38     -14.7795      1.00000
     39     -14.5989      1.00000
     40     -14.5130      1.00000
     41     -14.4774      1.00000
     42     -14.3771      1.00000
     43     -14.2315      1.00000
     44     -14.1481      1.00000
     45     -13.9698      1.00000
     46     -13.5911      1.00000
     47     -13.5157      1.00000
     48     -13.4778      1.00000
     49     -13.1307      1.00000
     50     -12.8802      1.00000
     51     -12.6563      1.00000
     52     -12.5439      1.00000
     53     -12.3532      1.00000
     54     -12.3015      1.00000
     55     -12.2901      1.00000
     56     -12.2089      1.00000
     57     -12.1287      1.00000
     58     -12.0948      1.00000
     59     -12.0317      1.00000
     60     -11.8149      1.00000
     61     -11.6951      1.00000
     62     -11.5175      1.00000
     63     -11.4361      1.00000
     64     -11.3585      1.00000
     65     -11.1931      1.00000
     66     -11.1588      1.00000
     67     -11.0979      1.00000
     68     -11.0755      1.00000
     69     -11.0391      1.00000
     70     -10.8491      1.00000
     71     -10.7147      1.00000
     72     -10.6952      1.00000
     73     -10.5991      1.00000
     74     -10.5539      1.00000
     75     -10.5094      1.00000
     76     -10.4886      1.00000
     77     -10.4337      1.00000
     78     -10.4022      1.00000
     79     -10.3686      1.00000
     80     -10.3438      1.00000
     81     -10.1800      1.00000
     82     -10.1016      1.00000
     83      -9.9696      1.00000
     84      -9.9055      1.00000
     85      -9.8820      1.00000
     86      -9.7156      1.00000
     87      -9.6707      1.00000
     88      -9.5720      1.00000
     89      -9.5459      1.00000
     90      -9.3016      1.00000
     91      -9.2067      1.00000
     92      -9.1172      1.00000
     93      -9.0933      1.00000
     94      -9.0517      1.00000
     95      -8.9450      1.00000
     96      -8.8445      1.00000
     97      -8.5723      1.00000
     98      -8.3998      1.00000
     99      -8.3458      1.00000
    100      -8.3147      1.00000
    101      -8.2236      1.00000
    102      -8.0682      1.00000
    103      -7.8825      1.00000
    104      -7.6151      1.00000
    105      -7.5334      1.00000
    106      -7.4592      1.00000
    107      -7.3894      1.00000
    108      -7.2091      1.00000
    109      -7.1695      1.00000
    110      -6.7719      1.00000
    111      -6.7573      1.00000
    112      -6.7493      1.00000
    113      -6.6154      1.00000
    114      -6.5650      1.00000
    115      -6.5387      1.00000
    116      -6.3089      1.00000
    117      -5.9588      1.00000
    118      -5.9089      1.00000
    119      -1.0107      0.00000
    120      -0.7512      0.00000
    121      -0.4466      0.00000
    122      -0.4090      0.00000
    123      -0.3736      0.00000
    124      -0.3026      0.00000
    125      -0.1893      0.00000
    126      -0.0457      0.00000
    127      -0.0142      0.00000
    128      -0.0048      0.00000
    129       0.0066      0.00000
    130       0.0751      0.00000
    131       0.1457      0.00000
    132       0.1992      0.00000
    133       0.3020      0.00000
    134       0.3224      0.00000
    135       0.3791      0.00000
    136       0.4734      0.00000
    137       0.5382      0.00000
    138       0.5541      0.00000
    139       0.6379      0.00000
    140       0.7091      0.00000
    141       0.7485      0.00000
    142       0.7890      0.00000
    143       0.8157      0.00000
    144       0.8309      0.00000
    145       0.8872      0.00000
    146       0.9146      0.00000
    147       0.9335      0.00000
    148       0.9652      0.00000
    149       1.0104      0.00000
    150       1.0535      0.00000
    151       1.0596      0.00000
    152       1.2188      0.00000
    153       1.2631      0.00000
    154       1.3022      0.00000
    155       1.3599      0.00000
    156       1.3855      0.00000
    157       1.4219      0.00000
    158       1.4495      0.00000
    159       1.4716      0.00000
    160       1.5025      0.00000
    161       1.5157      0.00000
    162       1.5288      0.00000
    163       1.6802      0.00000
    164       1.7008      0.00000
    165       1.7362      0.00000
    166       1.7563      0.00000
    167       1.7993      0.00000
    168       1.8130      0.00000
    169       1.8535      0.00000
    170       1.9046      0.00000
    171       1.9841      0.00000
    172       1.9891      0.00000
    173       2.0111      0.00000
    174       2.0289      0.00000
    175       2.0432      0.00000
    176       2.0591      0.00000
    177       2.1026      0.00000
    178       2.1185      0.00000
    179       2.1545      0.00000
    180       2.1681      0.00000

 k-point     2 :       0.3750    0.1250    0.0000
  band No.  band energies     occupation 
      1     -35.5444      1.00000
      2     -33.9360      1.00000
      3     -33.2218      1.00000
      4     -33.1460      1.00000
      5     -32.4016      1.00000
      6     -28.1677      1.00000
      7     -26.9061      1.00000
      8     -26.8801      1.00000
      9     -26.8394      1.00000
     10     -26.3705      1.00000
     11     -25.8971      1.00000
     12     -24.2287      1.00000
     13     -23.9328      1.00000
     14     -23.7482      1.00000
     15     -23.4826      1.00000
     16     -23.0877      1.00000
     17     -22.8799      1.00000
     18     -22.3465      1.00000
     19     -22.3216      1.00000
     20     -22.2507      1.00000
     21     -21.9310      1.00000
     22     -21.8010      1.00000
     23     -21.7326      1.00000
     24     -21.5777      1.00000
     25     -21.4988      1.00000
     26     -21.4350      1.00000
     27     -21.3474      1.00000
     28     -21.1769      1.00000
     29     -21.1278      1.00000
     30     -20.7366      1.00000
     31     -18.0305      1.00000
     32     -16.2622      1.00000
     33     -15.8710      1.00000
     34     -15.8179      1.00000
     35     -15.0832      1.00000
     36     -14.8103      1.00000
     37     -14.7393      1.00000
     38     -14.6111      1.00000
     39     -14.5068      1.00000
     40     -14.4454      1.00000
     41     -14.2956      1.00000
     42     -14.2380      1.00000
     43     -14.1939      1.00000
     44     -14.1319      1.00000
     45     -14.1023      1.00000
     46     -13.7832      1.00000
     47     -13.3896      1.00000
     48     -13.2616      1.00000
     49     -13.1755      1.00000
     50     -13.1658      1.00000
     51     -12.9590      1.00000
     52     -12.6803      1.00000
     53     -12.5955      1.00000
     54     -12.5230      1.00000
     55     -12.3687      1.00000
     56     -12.2903      1.00000
     57     -12.2085      1.00000
     58     -12.1405      1.00000
     59     -12.1243      1.00000
     60     -11.8290      1.00000
     61     -11.6704      1.00000
     62     -11.5194      1.00000
     63     -11.3608      1.00000
     64     -11.3191      1.00000
     65     -11.2748      1.00000
     66     -11.1847      1.00000
     67     -11.1058      1.00000
     68     -11.0814      1.00000
     69     -11.0208      1.00000
     70     -10.8884      1.00000
     71     -10.8227      1.00000
     72     -10.7291      1.00000
     73     -10.7138      1.00000
     74     -10.6915      1.00000
     75     -10.5043      1.00000
     76     -10.4765      1.00000
     77     -10.4215      1.00000
     78     -10.4074      1.00000
     79     -10.2712      1.00000
     80     -10.2644      1.00000
     81     -10.2260      1.00000
     82     -10.0254      1.00000
     83      -9.9079      1.00000
     84      -9.8391      1.00000
     85      -9.7512      1.00000
     86      -9.7031      1.00000
     87      -9.6105      1.00000
     88      -9.5933      1.00000
     89      -9.4537      1.00000
     90      -9.3371      1.00000
     91      -9.0326      1.00000
     92      -9.0247      1.00000
     93      -8.9691      1.00000
     94      -8.8790      1.00000
     95      -8.8529      1.00000
     96      -8.4943      1.00000
     97      -8.3918      1.00000
     98      -8.3280      1.00000
     99      -8.2661      1.00000
    100      -8.2091      1.00000
    101      -8.0903      1.00000
    102      -8.0298      1.00000
    103      -7.9854      1.00000
    104      -7.7165      1.00000
    105      -7.6828      1.00000
    106      -7.4960      1.00000
    107      -7.3345      1.00000
    108      -7.2691      1.00000
    109      -7.1749      1.00000
    110      -6.9660      1.00000
    111      -6.8207      1.00000
    112      -6.7691      1.00000
    113      -6.6355      1.00000
    114      -6.5776      1.00000
    115      -6.5388      1.00000
    116      -6.4385      1.00000
    117      -6.3077      1.00000
    118      -6.1281      1.00000
    119      -0.9928      0.00000
    120      -0.4929      0.00000
    121      -0.2032      0.00000
    122      -0.1225      0.00000
    123      -0.0388      0.00000
    124      -0.0049      0.00000
    125       0.0079      0.00000
    126       0.0371      0.00000
    127       0.0815      0.00000
    128       0.2270      0.00000
    129       0.2322      0.00000
    130       0.2882      0.00000
    131       0.3122      0.00000
    132       0.3766      0.00000
    133       0.4024      0.00000
    134       0.4163      0.00000
    135       0.4858      0.00000
    136       0.5430      0.00000
    137       0.5836      0.00000
    138       0.6056      0.00000
    139       0.6627      0.00000
    140       0.7208      0.00000
    141       0.7381      0.00000
    142       0.7645      0.00000
    143       0.7859      0.00000
    144       0.7957      0.00000
    145       0.8018      0.00000
    146       0.8655      0.00000
    147       0.8847      0.00000
    148       0.9244      0.00000
    149       0.9799      0.00000
    150       1.0204      0.00000
    151       1.0369      0.00000
    152       1.0503      0.00000
    153       1.0736      0.00000
    154       1.0880      0.00000
    155       1.1240      0.00000
    156       1.1457      0.00000
    157       1.1809      0.00000
    158       1.1880      0.00000
    159       1.2166      0.00000
    160       1.2360      0.00000
    161       1.2824      0.00000
    162       1.2921      0.00000
    163       1.3340      0.00000
    164       1.4027      0.00000
    165       1.4499      0.00000
    166       1.4857      0.00000
    167       1.5313      0.00000
    168       1.5479      0.00000
    169       1.5551      0.00000
    170       1.5662      0.00000
    171       1.6104      0.00000
    172       1.6235      0.00000
    173       1.6327      0.00000
    174       1.6519      0.00000
    175       1.6655      0.00000
    176       1.6964      0.00000
    177       1.7205      0.00000
    178       1.7528      0.00000
    179       1.7803      0.00000
    180       1.9231      0.00000

 k-point     3 :      -0.3750    0.1250    0.0000
  band No.  band energies     occupation 
      1     -35.5444      1.00000
      2     -33.9360      1.00000
      3     -33.2218      1.00000
      4     -33.1460      1.00000
      5     -32.4016      1.00000
      6     -28.1677      1.00000
      7     -26.9061      1.00000
      8     -26.8801      1.00000
      9     -26.8394      1.00000
     10     -26.3705      1.00000
     11     -25.8971      1.00000
     12     -24.2287      1.00000
     13     -23.9328      1.00000
     14     -23.7482      1.00000
     15     -23.4826      1.00000
     16     -23.0877      1.00000
     17     -22.8799      1.00000
     18     -22.3465      1.00000
     19     -22.3216      1.00000
     20     -22.2507      1.00000
     21     -21.9310      1.00000
     22     -21.8010      1.00000
     23     -21.7326      1.00000
     24     -21.5777      1.00000
     25     -21.4988      1.00000
     26     -21.4350      1.00000
     27     -21.3474      1.00000
     28     -21.1769      1.00000
     29     -21.1278      1.00000
     30     -20.7366      1.00000
     31     -18.0305      1.00000
     32     -16.2622      1.00000
     33     -15.8710      1.00000
     34     -15.8179      1.00000
     35     -15.0832      1.00000
     36     -14.8103      1.00000
     37     -14.7393      1.00000
     38     -14.6111      1.00000
     39     -14.5068      1.00000
     40     -14.4454      1.00000
     41     -14.2956      1.00000
     42     -14.2380      1.00000
     43     -14.1939      1.00000
     44     -14.1319      1.00000
     45     -14.1023      1.00000
     46     -13.7832      1.00000
     47     -13.3896      1.00000
     48     -13.2616      1.00000
     49     -13.1755      1.00000
     50     -13.1658      1.00000
     51     -12.9590      1.00000
     52     -12.6803      1.00000
     53     -12.5955      1.00000
     54     -12.5230      1.00000
     55     -12.3687      1.00000
     56     -12.2903      1.00000
     57     -12.2085      1.00000
     58     -12.1405      1.00000
     59     -12.1243      1.00000
     60     -11.8290      1.00000
     61     -11.6704      1.00000
     62     -11.5194      1.00000
     63     -11.3608      1.00000
     64     -11.3191      1.00000
     65     -11.2748      1.00000
     66     -11.1847      1.00000
     67     -11.1058      1.00000
     68     -11.0814      1.00000
     69     -11.0208      1.00000
     70     -10.8884      1.00000
     71     -10.8227      1.00000
     72     -10.7291      1.00000
     73     -10.7138      1.00000
     74     -10.6915      1.00000
     75     -10.5043      1.00000
     76     -10.4765      1.00000
     77     -10.4215      1.00000
     78     -10.4074      1.00000
     79     -10.2712      1.00000
     80     -10.2644      1.00000
     81     -10.2260      1.00000
     82     -10.0254      1.00000
     83      -9.9079      1.00000
     84      -9.8391      1.00000
     85      -9.7512      1.00000
     86      -9.7031      1.00000
     87      -9.6105      1.00000
     88      -9.5933      1.00000
     89      -9.4537      1.00000
     90      -9.3371      1.00000
     91      -9.0326      1.00000
     92      -9.0247      1.00000
     93      -8.9691      1.00000
     94      -8.8790      1.00000
     95      -8.8529      1.00000
     96      -8.4943      1.00000
     97      -8.3918      1.00000
     98      -8.3280      1.00000
     99      -8.2661      1.00000
    100      -8.2091      1.00000
    101      -8.0903      1.00000
    102      -8.0298      1.00000
    103      -7.9854      1.00000
    104      -7.7165      1.00000
    105      -7.6828      1.00000
    106      -7.4960      1.00000
    107      -7.3345      1.00000
    108      -7.2691      1.00000
    109      -7.1749      1.00000
    110      -6.9660      1.00000
    111      -6.8207      1.00000
    112      -6.7691      1.00000
    113      -6.6355      1.00000
    114      -6.5776      1.00000
    115      -6.5388      1.00000
    116      -6.4385      1.00000
    117      -6.3077      1.00000
    118      -6.1281      1.00000
    119      -0.9927      0.00000
    120      -0.4929      0.00000
    121      -0.2030      0.00000
    122      -0.1225      0.00000
    123      -0.0389      0.00000
    124      -0.0048      0.00000
    125       0.0078      0.00000
    126       0.0396      0.00000
    127       0.0817      0.00000
    128       0.2249      0.00000
    129       0.2338      0.00000
    130       0.2696      0.00000
    131       0.3117      0.00000
    132       0.3743      0.00000
    133       0.3950      0.00000
    134       0.4118      0.00000
    135       0.5084      0.00000
    136       0.5493      0.00000
    137       0.5800      0.00000
    138       0.6113      0.00000
    139       0.6934      0.00000
    140       0.7272      0.00000
    141       0.7351      0.00000
    142       0.7644      0.00000
    143       0.7849      0.00000
    144       0.8008      0.00000
    145       0.8125      0.00000
    146       0.8686      0.00000
    147       0.8856      0.00000
    148       0.9120      0.00000
    149       0.9778      0.00000
    150       0.9873      0.00000
    151       1.0415      0.00000
    152       1.0524      0.00000
    153       1.0650      0.00000
    154       1.0883      0.00000
    155       1.1242      0.00000
    156       1.1396      0.00000
    157       1.1610      0.00000
    158       1.1876      0.00000
    159       1.2116      0.00000
    160       1.2332      0.00000
    161       1.2761      0.00000
    162       1.2867      0.00000
    163       1.3431      0.00000
    164       1.4116      0.00000
    165       1.4685      0.00000
    166       1.4905      0.00000
    167       1.5183      0.00000
    168       1.5455      0.00000
    169       1.5527      0.00000
    170       1.5665      0.00000
    171       1.6124      0.00000
    172       1.6279      0.00000
    173       1.6351      0.00000
    174       1.6490      0.00000
    175       1.6679      0.00000
    176       1.7000      0.00000
    177       1.7141      0.00000
    178       1.7545      0.00000
    179       1.7746      0.00000
    180       1.9319      0.00000

 k-point     4 :      -0.1250    0.1250    0.0000
  band No.  band energies     occupation 
      1     -35.5444      1.00000
      2     -33.9360      1.00000
      3     -33.2218      1.00000
      4     -33.1460      1.00000
      5     -32.4016      1.00000
      6     -28.1678      1.00000
      7     -26.9242      1.00000
      8     -26.8616      1.00000
      9     -26.8411      1.00000
     10     -26.3682      1.00000
     11     -25.8969      1.00000
     12     -24.3791      1.00000
     13     -23.8838      1.00000
     14     -23.5054      1.00000
     15     -23.1976      1.00000
     16     -23.1110      1.00000
     17     -22.9659      1.00000
     18     -22.5913      1.00000
     19     -22.5771      1.00000
     20     -22.3830      1.00000
     21     -22.0556      1.00000
     22     -21.9664      1.00000
     23     -21.6192      1.00000
     24     -21.5589      1.00000
     25     -21.5054      1.00000
     26     -21.3596      1.00000
     27     -21.2113      1.00000
     28     -20.9771      1.00000
     29     -20.9481      1.00000
     30     -20.7366      1.00000
     31     -18.0305      1.00000
     32     -16.2623      1.00000
     33     -15.8709      1.00000
     34     -15.8180      1.00000
     35     -15.0908      1.00000
     36     -14.9591      1.00000
     37     -14.9230      1.00000
     38     -14.7795      1.00000
     39     -14.5989      1.00000
     40     -14.5130      1.00000
     41     -14.4774      1.00000
     42     -14.3771      1.00000
     43     -14.2315      1.00000
     44     -14.1481      1.00000
     45     -13.9698      1.00000
     46     -13.5911      1.00000
     47     -13.5157      1.00000
     48     -13.4778      1.00000
     49     -13.1307      1.00000
     50     -12.8802      1.00000
     51     -12.6563      1.00000
     52     -12.5439      1.00000
     53     -12.3532      1.00000
     54     -12.3015      1.00000
     55     -12.2901      1.00000
     56     -12.2089      1.00000
     57     -12.1287      1.00000
     58     -12.0948      1.00000
     59     -12.0317      1.00000
     60     -11.8149      1.00000
     61     -11.6951      1.00000
     62     -11.5175      1.00000
     63     -11.4361      1.00000
     64     -11.3585      1.00000
     65     -11.1931      1.00000
     66     -11.1588      1.00000
     67     -11.0979      1.00000
     68     -11.0755      1.00000
     69     -11.0391      1.00000
     70     -10.8491      1.00000
     71     -10.7147      1.00000
     72     -10.6952      1.00000
     73     -10.5991      1.00000
     74     -10.5539      1.00000
     75     -10.5094      1.00000
     76     -10.4886      1.00000
     77     -10.4337      1.00000
     78     -10.4022      1.00000
     79     -10.3686      1.00000
     80     -10.3438      1.00000
     81     -10.1800      1.00000
     82     -10.1016      1.00000
     83      -9.9696      1.00000
     84      -9.9055      1.00000
     85      -9.8820      1.00000
     86      -9.7156      1.00000
[...]
   0.274E+01 -.493E+00 0.704E+02   -.272E+01 0.427E+00 -.690E+02   -.131E-01 0.510E-01 -.305E-01   0.324E-04 -.298E-03 0.846E-03
   0.227E+01 0.141E+01 -.201E+02   -.223E+01 -.141E+01 0.218E+02   -.170E-01 0.187E-01 -.137E+00   0.664E-03 0.440E-03 -.310E-03
   -.166E+01 0.530E+01 -.101E+03   0.168E+01 -.399E+01 0.102E+03   0.301E-01 -.105E+01 0.940E+00   -.155E-02 0.158E-03 0.562E-03
   0.104E+01 -.521E+01 0.225E+03   -.935E+00 0.504E+01 -.224E+03   -.379E-01 0.158E+00 0.267E+00   0.181E-03 -.695E-03 -.144E-03
   0.766E+00 -.189E+01 0.116E+03   -.732E+00 0.176E+01 -.115E+03   -.192E-01 0.100E+00 0.353E-01   -.143E-03 0.379E-03 0.798E-03
   0.275E+01 -.165E+01 0.248E+02   -.271E+01 0.155E+01 -.234E+02   -.201E-01 0.997E-01 -.799E-01   -.135E-02 -.855E-04 0.703E-03
   0.862E+01 -.222E+01 -.775E+02   -.850E+01 0.229E+01 0.791E+02   -.637E-01 0.971E-01 -.326E+00   -.312E-03 -.117E-02 0.329E-04
   0.122E+01 -.524E+01 0.225E+03   -.132E+01 0.507E+01 -.224E+03   0.270E-01 0.159E+00 0.268E+00   -.365E-03 -.430E-04 -.124E-03
   0.357E+01 -.203E+01 0.116E+03   -.358E+01 0.189E+01 -.115E+03   0.410E-02 0.101E+00 0.327E-01   -.112E-02 0.744E-03 0.105E-02
   0.297E+01 -.236E+01 0.260E+02   -.297E+01 0.219E+01 -.244E+02   0.647E-02 0.106E+00 -.919E-01   0.151E-03 0.487E-03 0.724E-03
   0.413E+00 -.838E+01 -.688E+02   -.433E+00 0.795E+01 0.707E+02   0.350E-01 0.186E+00 -.362E+00   -.661E-03 0.755E-04 0.327E-03
   -.199E+02 0.181E+02 -.347E+03   0.191E+02 -.128E+02 0.335E+03   0.288E+00 -.520E+01 0.933E+01   0.114E-02 0.140E-02 -.588E-03
   -.465E+01 -.454E+01 -.227E+03   -.153E+01 -.643E+01 0.222E+03   0.557E+01 0.103E+02 0.296E+01   -.170E-03 0.210E-03 -.443E-03
   0.423E+02 0.165E+02 -.211E+03   -.427E+02 -.161E+02 0.211E+03   -.457E+00 -.116E+01 -.923E+00   0.188E-02 -.258E-02 0.184E-03
   0.510E+03 0.101E+03 -.857E+03   -.565E+03 -.107E+03 0.875E+03   0.529E+02 0.614E+01 -.224E+02   0.165E-02 0.245E-01 -.295E-02
   -.350E+03 -.225E+03 -.975E+03   0.381E+03 0.254E+03 0.101E+04   -.315E+02 -.291E+02 -.375E+02   0.240E-01 0.170E-01 -.783E-02
   -.287E+03 0.516E+03 -.588E+03   0.309E+03 -.569E+03 0.579E+03   -.232E+02 0.520E+02 0.509E+01   0.113E-01 -.227E-02 0.290E-01
   0.228E+03 -.513E+03 -.525E+03   -.254E+03 0.559E+03 0.530E+03   0.247E+02 -.465E+02 -.681E+01   0.422E-02 0.514E-02 -.413E-02
   -.632E+03 -.182E+03 -.284E+03   0.682E+03 0.192E+03 0.267E+03   -.502E+02 -.110E+02 0.143E+02   -.670E-02 -.131E-01 -.112E-01
   0.780E+01 -.201E+02 0.165E+03   -.751E+01 0.244E+02 -.170E+03   -.152E+00 -.409E+01 0.650E+01   -.292E-03 -.661E-04 -.518E-03
   0.876E+01 -.156E+02 -.113E+03   -.845E+01 0.202E+02 0.119E+03   -.224E+00 -.419E+01 -.636E+01   -.194E-03 -.316E-03 0.458E-03
   -.854E+01 -.200E+02 0.164E+03   0.830E+01 0.244E+02 -.170E+03   0.968E-01 -.409E+01 0.650E+01   0.782E-04 -.533E-04 -.348E-03
   -.448E+01 -.244E+02 -.954E+02   0.453E+01 0.282E+02 0.102E+03   -.659E-01 -.403E+01 -.651E+01   -.777E-03 0.202E-03 0.436E-03
   0.139E+02 -.467E+02 0.189E+03   -.144E+02 0.511E+02 -.194E+03   0.495E+00 -.523E+01 0.717E+01   -.145E-03 -.129E-03 0.257E-04
   -.155E+02 -.468E+02 0.188E+03   0.160E+02 0.511E+02 -.194E+03   -.601E+00 -.524E+01 0.716E+01   0.267E-03 -.357E-03 0.144E-03
   0.174E+02 -.609E+02 -.134E+03   -.177E+02 0.651E+02 0.140E+03   0.357E+00 -.529E+01 -.713E+01   -.487E-03 -.590E-03 0.244E-03
   -.149E+02 -.875E+01 -.946E+02   0.164E+02 0.129E+02 0.101E+03   -.154E+01 -.408E+01 -.578E+01   -.123E-02 -.199E-03 0.111E-03
   0.291E+02 -.242E+02 0.521E+03   -.294E+02 0.230E+02 -.515E+03   0.542E+00 0.156E+01 -.297E+01   -.387E-02 -.247E-02 -.720E-03
   0.562E+01 0.455E+00 0.276E+03   -.574E+01 -.638E+00 -.274E+03   0.157E+00 0.199E+00 0.930E-01   0.698E-03 -.363E-02 0.295E-03
   0.293E+01 0.122E+01 0.116E+03   -.292E+01 -.140E+01 -.114E+03   0.266E-01 0.194E+00 -.400E-01   -.599E-02 0.205E-02 0.368E-02
   0.979E+01 0.910E+00 -.389E+02   -.988E+01 -.102E+01 0.413E+02   0.139E+00 0.207E+00 -.187E+00   -.604E-02 -.787E-03 0.148E-02
   0.407E+02 -.211E+02 -.273E+03   -.415E+02 0.204E+02 0.271E+03   0.976E+00 0.143E+01 0.250E+01   0.420E-03 -.567E-02 -.133E-02
   -.295E+02 -.243E+02 0.521E+03   0.298E+02 0.230E+02 -.514E+03   -.561E+00 0.156E+01 -.297E+01   0.165E-02 -.567E-03 -.183E-02
   0.133E+01 0.360E+00 0.276E+03   -.134E+01 -.549E+00 -.274E+03   -.309E-01 0.204E+00 0.876E-01   -.464E-02 -.215E-02 0.231E-03
   0.534E+01 0.906E+00 0.117E+03   -.539E+01 -.111E+01 -.115E+03   0.494E-01 0.189E+00 -.588E-01   -.278E-02 0.421E-02 0.365E-02
   0.212E+01 -.124E+00 -.326E+02   -.201E+01 -.152E+00 0.354E+02   -.819E-01 0.202E+00 -.236E+00   0.302E-02 0.216E-02 -.269E-03
   -.231E+02 -.256E+02 -.220E+03   0.243E+02 0.236E+02 0.220E+03   -.110E+01 0.182E+01 0.285E+01   -.509E-02 -.142E-02 0.674E-03
   0.202E+02 0.663E+01 0.372E+03   -.208E+02 -.706E+01 -.370E+03   0.525E+00 0.342E+00 0.404E-01   0.730E-03 0.173E-02 -.210E-03
   0.486E+01 0.322E+00 0.194E+03   -.483E+01 -.372E+00 -.192E+03   -.530E-01 0.406E-01 0.902E-01   -.123E-02 0.537E-03 0.833E-03
   0.355E+01 -.664E+00 0.405E+02   -.344E+01 0.578E+00 -.380E+02   -.104E+00 0.448E-01 -.144E+00   0.126E-02 -.994E-03 0.231E-02
   0.148E+02 -.177E+01 -.122E+03   -.150E+02 0.104E+01 0.125E+03   0.152E+00 0.337E+00 -.742E-01   -.307E-02 -.117E-03 0.435E-02
   -.150E+02 0.654E+01 0.373E+03   0.155E+02 -.696E+01 -.370E+03   -.382E+00 0.336E+00 0.483E-01   0.504E-02 0.291E-02 -.301E-03
   0.259E+01 0.529E+00 0.194E+03   -.271E+01 -.563E+00 -.192E+03   0.135E+00 0.466E-01 0.762E-01   0.372E-02 0.166E-02 0.411E-03
   0.657E+01 0.138E+01 0.406E+02   -.674E+01 -.134E+01 -.380E+02   0.190E+00 0.244E-01 -.222E+00   0.151E-03 0.103E-02 0.139E-02
   0.653E+01 0.134E+02 -.121E+03   -.657E+01 -.131E+02 0.124E+03   0.126E+00 -.615E-02 -.476E+00   0.309E-02 0.483E-03 0.222E-02
   0.748E+02 0.629E+02 0.763E+03   -.780E+02 -.104E+03 -.757E+03   0.257E+01 0.389E+02 0.144E+00   -.683E-03 -.170E-02 0.146E-03
   -.776E+02 0.630E+02 0.762E+03   0.807E+02 -.104E+03 -.757E+03   -.248E+01 0.390E+02 0.144E+00   0.433E-02 0.155E-02 -.880E-02
   0.779E+02 -.125E+01 -.420E+03   -.786E+02 -.413E+02 0.420E+03   0.499E+00 0.390E+02 -.581E+00   -.783E-02 0.435E-04 0.936E-02
   -.288E+01 0.144E+03 -.391E+03   -.698E+00 -.177E+03 0.400E+03   0.378E+01 0.342E+02 -.550E+01   -.158E-01 -.188E-02 -.625E-02
   0.550E+03 0.520E+02 -.330E+03   -.605E+03 -.527E+02 0.330E+03   0.517E+02 -.440E-01 -.247E+01   -.194E-01 -.121E-01 -.898E-02
   -.265E+03 0.185E+03 -.139E+03   0.299E+03 -.206E+03 0.110E+03   -.332E+02 0.196E+02 0.281E+02   -.743E-03 0.349E-02 0.232E-01
 -----------------------------------------------------------------------------------------------
   0.241E+00 -.115E+03 0.170E+02   -.171E-12 -.284E-13 -.284E-12   -.205E+00 0.115E+03 -.170E+02   -.250E-01 0.178E-01 0.348E-01
 
 
 POSITION                                       TOTAL-FORCE (eV/Angst)
 -----------------------------------------------------------------------------------
      7.29419     -2.68299     17.49345         0.003542     -0.003824      0.001285
      7.43668     -2.70276     19.98201         0.000442     -0.001587      0.002820
      7.48545     -2.70244     22.48613         0.001917     -0.003163     -0.003775
      7.49289     -2.70301     24.99088         0.000223      0.000136      0.005003
      7.43515     -2.68188     27.48483        -0.000621     -0.000331     -0.005529
      7.68325     -7.03415     17.49486        -0.003574     -0.000634      0.000803
      7.52551     -7.05425     19.98215         0.001632      0.002301      0.000623
      7.49727     -7.05385     22.48585        -0.000681      0.004785     -0.001044
      7.53676     -7.05384     24.99011        -0.001889      0.003294      0.005034
      7.67061     -7.04278     27.48887         0.001889      0.001975     -0.004230
      7.47418     -0.52526     18.74641        -0.001884     -0.001143      0.000010
      7.48710     -0.52715     21.23863        -0.001966      0.004517     -0.004715
      7.49703     -0.52688     23.73214         0.000613      0.004544     -0.002596
      7.50049     -0.52405     26.22225        -0.002430     -0.008062      0.001315
      7.49217     -4.87655     18.74691         0.003798     -0.003480      0.003116
      7.48128     -4.87835     21.23954         0.005704      0.004026     -0.003690
      7.50673     -4.87836     23.73443        -0.000468      0.004477     -0.003402
      7.57125     -4.87776     26.22871         0.000419     -0.006393     -0.002275
      8.53464     -5.59752     33.98486        -0.006808     -0.000416     -0.001896
      8.48995     -4.88312     32.62653        -0.000039     -0.002373     -0.000870
      7.77415     -5.69597     31.51013         0.007066      0.010295      0.000420
      7.30563     -5.73885     34.50468        -0.002062     -0.008881     -0.005179
      9.27896     -4.90288     34.86633        -0.006260     -0.013235     -0.000712
      9.08064     -6.82084     33.85224         0.001105      0.004112     -0.007469
      7.86302     -3.68351     32.83513         0.002027     -0.004494      0.000042
      9.78681     -4.59962     32.30233        -0.003525      0.006345      0.007141
      7.37481     -0.74441     16.68261         0.000604      0.004466     -0.003649
      7.46314     -0.72785     28.28052         0.000631      0.004642      0.002819
      7.61150     -5.09488     16.68413         0.000171      0.000595     -0.001980
      7.69962     -5.10321     28.29278        -0.000383      0.003792      0.001539
      7.08703     -2.73427     15.52431         0.002314      0.000420     -0.000408
      7.91529     -7.08467     15.52848        -0.004547     -0.003160      0.005291
      7.33605     -2.72378     29.46199         0.000433     -0.002333     -0.000150
      7.96283     -7.09508     29.47568         0.004919      0.001281     -0.002232
      7.36151     -1.27196     17.54450         0.000455     -0.000025      0.001023
      7.46098     -1.25406     19.99589         0.000564     -0.008909      0.006054
      7.48920     -1.25373     22.48505         0.004436     -0.004315     -0.003616
      7.49203     -1.25460     24.97313         0.005542     -0.003259      0.000504
      7.43800     -1.27171     27.42636         0.001986     -0.003974     -0.000135
      7.61705     -5.62307     17.54592        -0.002216      0.005167      0.001080
      7.49978     -5.60552     19.99654        -0.004078     -0.003880      0.006748
      7.49279     -5.60491     22.48634        -0.001458      0.001647     -0.003582
      7.54018     -5.60475     24.97595        -0.002515      0.002084     -0.002485
      7.68671     -5.62644     27.42740        -0.000100      0.001720     -0.000539
      7.38953     -3.43202     18.73151        -0.003745     -0.002055      0.003870
      7.46896     -3.42896     21.23546        -0.001623     -0.007323      0.002328
      7.49826     -3.42917     23.73618        -0.000120     -0.000815     -0.000985
      7.49491     -3.43095     26.24328         0.002844     -0.006219      0.007512
      7.57385     -7.78336     18.73167        -0.001837      0.005210      0.001738
      7.49871     -7.78054     21.23523        -0.001293     -0.001609      0.003968
      7.50369     -7.78038     23.73507         0.001695      0.005042     -0.001951
      7.56262     -7.78185     26.23831         0.000927     -0.001962      0.006601
      7.13697     -3.32679     16.28415        -0.001340     -0.000428     -0.004547
      7.85410     -7.67750     16.28730        -0.000740     -0.000294     -0.009359
      7.37324     -3.32218     28.70605         0.003295      0.004501     -0.003564
      7.75433     -7.68431     28.69561         0.005614      0.006040      0.001317
      6.53800     -5.69825     31.57234        -0.002405      0.000748     -0.000719
      8.55341     -6.26072     30.70486        -0.006199      0.010414      0.007280
 -----------------------------------------------------------------------------------
    total drift:                                0.010449      0.415164     -0.022629


--------------------------------------------------------------------------------------------------------



  FREE ENERGIE OF THE ION-ELECTRON SYSTEM (eV)
  ---------------------------------------------------
  free  energy   TOTEN  =      -491.83167239 eV

  energy  without entropy=     -491.83167239  energy(sigma->0) =     -491.83167239
 
 d Force = 0.6898594E-04[ 0.304E-04, 0.108E-03]  d Energy = 0.5340874E-04 0.156E-04
 d Force =-0.6448843E+00[-0.645E+00,-0.645E+00]  d Ewald  =-0.6448843E+00 0.103E-07


--------------------------------------------------------------------------------------------------------


    POTLOK:  cpu time   47.9391: real time   47.8515


--------------------------------------------------------------------------------------------------------


 Conjugate gradient step on ions:
 trial-energy change:   -0.000053  1 .order   -0.000069   -0.000108   -0.000030
  (g-gl).g = 0.223E-03      g.g   = 0.234E-03  gl.gl    = 0.254E-03
 g(Force)  = 0.234E-03   g(Stress)= 0.000E+00 ortho     = 0.208E-04
 gamma     =   0.87871
 trial     =   0.42572
 opt step  =   0.59295  (harmonic =   0.59295) maximal distance =0.00066145
 next E    =  -491.831694   (d E  =  -0.00007)


--------------------------------------------------------------------------------------------------------


  
 reached required accuracy - stopping structural energy minimisation
 writing wavefunctions
     LOOP+:  cpu time 1210.4824: real time  922.7315
    4ORBIT:  cpu time    0.0000: real time    0.0000
 


 total charge     
 
# of ion       s       p       d       tot
------------------------------------------
    1        0.752   1.437   0.000   2.189
    2        0.745   1.400   0.000   2.145
    3        0.747   1.405   0.000   2.152
    4        0.745   1.400   0.000   2.145
    5        0.752   1.438   0.000   2.189
    6        0.752   1.437   0.000   2.189
    7        0.745   1.401   0.000   2.146
    8        0.747   1.405   0.000   2.153
    9        0.746   1.402   0.000   2.148
   10        0.752   1.439   0.000   2.191
   11        0.754   1.430   0.000   2.184
   12        0.750   1.414   0.000   2.163
   13        0.750   1.415   0.000   2.165
   14        0.755   1.433   0.000   2.188
   15        0.754   1.429   0.000   2.183
   16        0.750   1.413   0.000   2.162
   17        0.750   1.413   0.000   2.163
   18        0.753   1.429   0.000   2.183
   19        0.820   1.558   0.000   2.378
   20        0.837   1.590   0.000   2.427
   21        0.875   1.720   0.000   2.595
   22        1.758   4.414   0.000   6.172
   23        1.757   4.412   0.000   6.170
   24        1.757   4.413   0.000   6.170
   25        1.755   4.403   0.000   6.157
   26        1.755   4.405   0.000   6.160
   27        0.631   0.099   0.000   0.730
   28        0.626   0.100   0.000   0.727
   29        0.631   0.099   0.000   0.730
   30        0.630   0.099   0.000   0.729
   31        0.607   0.136   0.000   0.743
   32        0.607   0.136   0.000   0.743
   33        0.608   0.136   0.000   0.744
   34        0.561   0.135   0.000   0.696
   35        1.244   2.861   0.000   4.105
   36        1.240   2.832   0.000   4.072
   37        1.240   2.832   0.000   4.072
   38        1.240   2.833   0.000   4.073
   39        1.245   2.863   0.000   4.108
   40        1.244   2.861   0.000   4.105
   41        1.240   2.832   0.000   4.072
   42        1.240   2.831   0.000   4.071
   43        1.240   2.831   0.000   4.071
   44        1.244   2.858   0.000   4.103
   45        1.237   2.829   0.000   4.066
   46        1.239   2.826   0.000   4.065
   47        1.239   2.826   0.000   4.065
   48        1.237   2.828   0.000   4.064
   49        1.237   2.829   0.000   4.066
   50        1.239   2.827   0.000   4.066
   51        1.239   2.826   0.000   4.065
   52        1.237   2.828   0.000   4.065
   53        1.565   3.707   0.000   5.272
   54        1.565   3.707   0.000   5.272
   55        1.565   3.705   0.000   5.270
   56        1.565   3.704   0.000   5.269
   57        1.588   3.595   0.000   5.183
   58        1.585   3.605   0.000   5.190
--------------------------------------------------
tot         61.468 126.470   0.000 187.938
 


 magnetization (x)
 
# of ion       s       p       d       tot
------------------------------------------
    1        0.000   0.000   0.000   0.000
    2        0.000   0.000   0.000   0.000
    3       -0.000   0.000   0.000  -0.000
    4       -0.000  -0.000   0.000  -0.000
    5        0.000   0.000   0.000   0.000
    6       -0.000  -0.000   0.000  -0.000
    7        0.000   0.000   0.000   0.000
    8       -0.000  -0.000   0.000  -0.000
    9        0.000  -0.000   0.000  -0.000
   10        0.000  -0.000   0.000  -0.000
   11       -0.000  -0.000   0.000  -0.000
   12        0.000   0.000   0.000   0.000
   13       -0.000   0.000   0.000   0.000
   14        0.000   0.000   0.000   0.000
   15       -0.000   0.000   0.000   0.000
   16       -0.000  -0.000   0.000  -0.000
   17       -0.000  -0.000   0.000  -0.000
   18       -0.000  -0.000   0.000  -0.000
   19        0.000  -0.000   0.000  -0.000
   20       -0.000   0.000   0.000   0.000
   21        0.000   0.000   0.000   0.000
   22       -0.000   0.000   0.000   0.000
   23        0.000   0.000   0.000   0.000
   24        0.000  -0.000   0.000  -0.000
   25        0.000   0.000   0.000   0.000
   26        0.000   0.000   0.000   0.000
   27       -0.000  -0.000   0.000  -0.000
   28        0.000  -0.000   0.000   0.000
   29       -0.000  -0.000   0.000  -0.000
   30       -0.000  -0.000   0.000  -0.000
   31        0.000  -0.000   0.000   0.000
   32        0.000   0.000   0.000   0.000
   33        0.000  -0.000   0.000   0.000
   34       -0.000   0.000   0.000  -0.000
   35        0.000  -0.000   0.000  -0.000
   36       -0.000  -0.000   0.000  -0.000
   37       -0.000  -0.000   0.000  -0.000
   38       -0.000  -0.000   0.000  -0.000
   39        0.000  -0.000   0.000  -0.000
   40       -0.000  -0.000   0.000  -0.000
   41       -0.000  -0.000   0.000  -0.000
   42       -0.000   0.000   0.000   0.000
   43        0.000   0.000   0.000   0.000
   44       -0.000  -0.000   0.000  -0.000
   45       -0.000  -0.000   0.000  -0.000
   46       -0.000   0.000   0.000   0.000
   47        0.000   0.000   0.000   0.000
   48       -0.000  -0.000   0.000  -0.000
   49        0.000   0.000   0.000   0.000
   50        0.000  -0.000   0.000  -0.000
   51        0.000   0.000   0.000   0.000
   52       -0.000   0.000   0.000   0.000
   53       -0.000   0.000   0.000   0.000
   54       -0.000  -0.000   0.000  -0.000
   55        0.000   0.000   0.000   0.000
   56        0.000   0.000   0.000   0.000
   57       -0.000  -0.000   0.000  -0.000
   58        0.000  -0.000   0.000  -0.000
--------------------------------------------------
tot          0.000  -0.000   0.000  -0.000
 

 total amount of memory used by VASP MPI-rank0   620805. kBytes
=======================================================================

   base      :      30000. kBytes
   nonlr-proj:       8701. kBytes
   fftplans  :      48484. kBytes
   grid      :     201968. kBytes
   one-center:         61. kBytes
   wavefun   :     331591. kBytes
 
  
  
 General timing and accounting informations for this job:
 ========================================================
  
                  Total CPU time used (sec):    10272.287
                            User time (sec):     9931.086
                          System time (sec):      341.201
                         Elapsed time (sec):     7758.196
  
                   Maximum memory used (kb):     1772736.
                   Average memory used (kb):           0.
  
                          Minor page faults:     16111717
                          Major page faults:           14
                 Voluntary context switches:        54895
