 vasp.5.4.4.18Apr17-6-g9f103f2a35 (build May 01 2020 14:57:12) complex          
  
 executed on             LinuxIFC date 2021.12.06  15:49:52
 running on   96 total cores
 distrk:  each k-point on   96 cores,    1 groups
 distr:  one band on NCORES_PER_BAND=  24 cores,    4 groups


--------------------------------------------------------------------------------------------------------


 INCAR:
 POTCAR:    PAW_PBE B 06Sep2000                   
 POTCAR:    PAW_PBE N 08Apr2002                   
 POTCAR:    PAW_PBE C 08Apr2002                   
 POTCAR:    PAW_PBE F 08Apr2002                   
 POTCAR:    PAW_PBE O 08Apr2002                   

 ----------------------------------------------------------------------------- 
|                                                                             |
|           W    W    AA    RRRRR   N    N  II  N    N   GGGG   !!!           |
|           W    W   A  A   R    R  NN   N  II  NN   N  G    G  !!!           |
|           W    W  A    A  R    R  N N  N  II  N N  N  G       !!!           |
|           W WW W  AAAAAA  RRRRR   N  N N  II  N  N N  G  GGG   !            |
|           WW  WW  A    A  R   R   N   NN  II  N   NN  G    G                |
|           W    W  A    A  R    R  N    N  II  N    N   GGGG   !!!           |
|                                                                             |
|      For optimal performance we recommend to set                            |
|        NCORE= 4 - approx SQRT( number of cores)                             |
|      NCORE specifies how many cores store one orbital (NPAR=cpu/NCORE).     |
|      This setting can  greatly improve the performance of VASP for DFT.     |
|      The default,   NCORE=1            might be grossly inefficient         |
|      on modern multi-core architectures or massively parallel machines.     |
|      Do your own testing !!!!                                               |
|      Unfortunately you need to use the default for GW and RPA calculations. |
|      (for HF NCORE is supported but not extensively tested yet)             |
|                                                                             |
 ----------------------------------------------------------------------------- 


 ----------------------------------------------------------------------------- 
|                                                                             |
|  ADVICE TO THIS USER RUNNING 'VASP/VAMP'   (HEAR YOUR MASTER'S VOICE ...):  |
|                                                                             |
|      You have switched on vdW-DFT.                                          |
|      This routine was written and supplied by Jiri Klimes.                  |
|      We recommed that you carefully read and cite the following             |
|      publication                                                            |
|      J. Klimes, D.R. Bowler, A. Michelides                                  |
|        J. Phys.: Cond Matt. 22 022201 (2010)                                |
|      J. Klimes, D.R. Bowler, A. Michelides                                  |
|        Phys. Rev. B. 83, 195131 (2011)                                      |
|      and references therein.                                                |
|                                                                             |
 ----------------------------------------------------------------------------- 

 POTCAR:    PAW_PBE B 06Sep2000                   
   VRHFIN =B: s2p1                                                              
   LEXCH  = PE                                                                  
   EATOM  =    71.1703 eV,    5.2309 Ry                                         
                                                                                
   TITEL  = PAW_PBE B 06Sep2000                                                 
   LULTRA =        F    use ultrasoft PP ?                                      
   IUNSCR =        1    unscreen: 0-lin 1-nonlin 2-no                           
   RPACOR =    1.200    partial core radius                                     
   POMASS =   10.811; ZVAL   =    3.000    mass and valenz                      
   RCORE  =    1.700    outmost cutoff radius                                   
   RWIGS  =    1.710; RWIGS  =    0.905    wigner-seitz radius (au A)           
   ENMAX  =  318.614; ENMIN  =  238.960 eV                                      
   ICORE  =        2    local potential                                         
   LCOR   =        T    correct aug charges                                     
   LPAW   =        T    paw PP                                                  
   EAUG   =  535.514                                                            
   DEXC   =    0.000                                                            
   RMAX   =    1.732    core radius for proj-oper                               
   RAUG   =    1.300    factor for augmentation sphere                          
   RDEP   =    1.757    radius for radial grids                                 
   RDEPT  =    1.436    core radius for aug-charge                              
                                                                                
   Atomic configuration                                                         
    4 entries                                                                   
     n  l   j            E        occ.                                          
     1  0  0.50      -180.5896   2.0000                                         
     2  0  0.50        -9.4431   2.0000                                         
     2  1  0.50        -3.6068   1.0000                                         
     3  2  1.50        -4.0817   0.0000                                         
   Description                                                                  
     l       E           TYP  RCUT    TYP  RCUT                                 
     0     -9.4430752     23  1.500                                             
     0      0.8675899     23  1.500                                             
     1     -3.6067955     23  1.700                                             
     1      6.1086146     23  1.700                                             
     2     -4.0817478      7  1.700                                             
  local pseudopotential read in
  partial core-charges read in
  partial kinetic energy density read in
  atomic valenz-charges read in
  non local Contribution for L=           0  read in
    real space projection operators read in
  non local Contribution for L=           0  read in
    real space projection operators read in
  non local Contribution for L=           1  read in
    real space projection operators read in
  non local Contribution for L=           1  read in
    real space projection operators read in
    PAW grid and wavefunctions read in
 
   number of l-projection  operators is LMAX  =           4
   number of lm-projection operators is LMMAX =           8
 
 POTCAR:    PAW_PBE N 08Apr2002                   
   VRHFIN =N: s2p3                                                              
   LEXCH  = PE                                                                  
   EATOM  =   264.5486 eV,   19.4438 Ry                                         
                                                                                
   TITEL  = PAW_PBE N 08Apr2002                                                 
   LULTRA =        F    use ultrasoft PP ?                                      
   IUNSCR =        1    unscreen: 0-lin 1-nonlin 2-no                           
   RPACOR =    1.200    partial core radius                                     
   POMASS =   14.001; ZVAL   =    5.000    mass and valenz                      
   RCORE  =    1.500    outmost cutoff radius                                   
   RWIGS  =    1.400; RWIGS  =    0.741    wigner-seitz radius (au A)           
   ENMAX  =  400.000; ENMIN  =  300.000 eV                                      
   ICORE  =        2    local potential                                         
   LCOR   =        T    correct aug charges                                     
   LPAW   =        T    paw PP                                                  
   EAUG   =  627.112                                                            
   DEXC   =    0.000                                                            
   RMAX   =    1.529    core radius for proj-oper                               
   RAUG   =    1.300    factor for augmentation sphere                          
   RDEP   =    1.514    radius for radial grids                                 
   RDEPT  =    1.338    core radius for aug-charge                              
                                                                                
   Atomic configuration                                                         
    4 entries                                                                   
     n  l   j            E        occ.                                          
     1  0  0.50      -384.7179   2.0000                                         
     2  0  0.50       -18.5828   2.0000                                         
     2  1  0.50        -7.0898   3.0000                                         
     3  2  1.50        -6.8029   0.0000                                         
   Description                                                                  
     l       E           TYP  RCUT    TYP  RCUT                                 
     0    -18.5828119     23  1.200                                             
     0    -13.5018863     23  1.200                                             
     1     -7.0897853     23  1.500                                             
     1      9.5240782     23  1.500                                             
     2     -6.8029130      7  1.500                                             
  local pseudopotential read in
  partial core-charges read in
  partial kinetic energy density read in
  atomic valenz-charges read in
  non local Contribution for L=           0  read in
    real space projection operators read in
  non local Contribution for L=           0  read in
    real space projection operators read in
  non local Contribution for L=           1  read in
    real space projection operators read in
  non local Contribution for L=           1  read in
    real space projection operators read in
    PAW grid and wavefunctions read in
 
   number of l-projection  operators is LMAX  =           4
   number of lm-projection operators is LMMAX =           8
 
 POTCAR:    PAW_PBE C 08Apr2002                   
   VRHFIN =C: s2p2                                                              
   LEXCH  = PE                                                                  
   EATOM  =   147.1560 eV,   10.8157 Ry                                         
                                                                                
   TITEL  = PAW_PBE C 08Apr2002                                                 
   LULTRA =        F    use ultrasoft PP ?                                      
   IUNSCR =        1    unscreen: 0-lin 1-nonlin 2-no                           
   RPACOR =    1.200    partial core radius                                     
   POMASS =   12.011; ZVAL   =    4.000    mass and valenz                      
   RCORE  =    1.500    outmost cutoff radius                                   
   RWIGS  =    1.630; RWIGS  =    0.863    wigner-seitz radius (au A)           
   ENMAX  =  400.000; ENMIN  =  300.000 eV                                      
   ICORE  =        2    local potential                                         
   LCOR   =        T    correct aug charges                                     
   LPAW   =        T    paw PP                                                  
   EAUG   =  644.873                                                            
   DEXC   =    0.000                                                            
   RMAX   =    1.529    core radius for proj-oper                               
   RAUG   =    1.300    factor for augmentation sphere                          
   RDEP   =    1.501    radius for radial grids                                 
   RDEPT  =    1.300    core radius for aug-charge                              
                                                                                
   Atomic configuration                                                         
    4 entries                                                                   
     n  l   j            E        occ.                                          
     1  0  0.50      -273.3789   2.0000                                         
     2  0  0.50       -13.7508   2.0000                                         
     2  1  0.50        -5.2854   2.0000                                         
     3  2  1.50        -5.4423   0.0000                                         
   Description                                                                  
     l       E           TYP  RCUT    TYP  RCUT                                 
     0    -13.7508458     23  1.200                                             
     0     -8.2022199     23  1.200                                             
     1     -5.2854383     23  1.500                                             
     1     34.0145650     23  1.500                                             
     2     -5.4423304      7  1.500                                             
  local pseudopotential read in
  partial core-charges read in
  partial kinetic energy density read in
  atomic valenz-charges read in
  non local Contribution for L=           0  read in
    real space projection operators read in
  non local Contribution for L=           0  read in
    real space projection operators read in
  non local Contribution for L=           1  read in
    real space projection operators read in
  non local Contribution for L=           1  read in
    real space projection operators read in
    PAW grid and wavefunctions read in
 
   number of l-projection  operators is LMAX  =           4
   number of lm-projection operators is LMMAX =           8
 
 POTCAR:    PAW_PBE F 08Apr2002                   
   VRHFIN =F: s2p5                                                              
   LEXCH  = PE                                                                  
   EATOM  =   659.6475 eV,   48.4827 Ry                                         
                                                                                
   TITEL  = PAW_PBE F 08Apr2002                                                 
   LULTRA =        F    use ultrasoft PP ?                                      
   IUNSCR =        1    unscreen: 0-lin 1-nonlin 2-no                           
   RPACOR =    1.200    partial core radius                                     
   POMASS =   18.998; ZVAL   =    7.000    mass and valenz                      
   RCORE  =    1.520    outmost cutoff radius                                   
   RWIGS  =    1.500; RWIGS  =    0.794    wigner-seitz radius (au A)           
   ENMAX  =  400.000; ENMIN  =  300.000 eV                                      
   ICORE  =        2    local potential                                         
   LCOR   =        T    correct aug charges                                     
   LPAW   =        T    paw PP                                                  
   EAUG   =  613.614                                                            
   RMAX   =    1.555    core radius for proj-oper                               
   RAUG   =    1.300    factor for augmentation sphere                          
   RDEP   =    1.539    radius for radial grids                                 
   RDEPT  =    1.299    core radius for aug-charge                              
                                                                                
   Atomic configuration                                                         
    4 entries                                                                   
     n  l   j            E        occ.                                          
     1  0  0.50      -663.3661   2.0000                                         
     2  0  0.50       -29.8995   2.0000                                         
     2  1  0.50       -11.1114   5.0000                                         
     3  2  1.50       -10.8847   0.0000                                         
   Description                                                                  
     l       E           TYP  RCUT    TYP  RCUT                                 
     0    -29.8995018     23  1.200                                             
     0     -9.5240782     23  1.200                                             
     1    -11.1113914     23  1.520                                             
     1      1.3605826     23  1.520                                             
     2    -10.8846608      7  1.500                                             
  local pseudopotential read in
  partial core-charges read in
  partial kinetic energy density read in
  atomic valenz-charges read in
  non local Contribution for L=           0  read in
    real space projection operators read in
  non local Contribution for L=           0  read in
    real space projection operators read in
  non local Contribution for L=           1  read in
    real space projection operators read in
  non local Contribution for L=           1  read in
    real space projection operators read in
    PAW grid and wavefunctions read in
 
   number of l-projection  operators is LMAX  =           4
   number of lm-projection operators is LMMAX =           8
 
 POTCAR:    PAW_PBE O 08Apr2002                   
   VRHFIN =O: s2p4                                                              
   LEXCH  = PE                                                                  
   EATOM  =   432.3788 eV,   31.7789 Ry                                         
                                                                                
   TITEL  = PAW_PBE O 08Apr2002                                                 
   LULTRA =        F    use ultrasoft PP ?                                      
   IUNSCR =        1    unscreen: 0-lin 1-nonlin 2-no                           
   RPACOR =    1.200    partial core radius                                     
   POMASS =   16.000; ZVAL   =    6.000    mass and valenz                      
   RCORE  =    1.520    outmost cutoff radius                                   
   RWIGS  =    1.550; RWIGS  =    0.820    wigner-seitz radius (au A)           
   ENMAX  =  400.000; ENMIN  =  300.000 eV                                      
   ICORE  =        2    local potential                                         
   LCOR   =        T    correct aug charges                                     
   LPAW   =        T    paw PP                                                  
   EAUG   =  605.392                                                            
   DEXC   =    0.000                                                            
   RMAX   =    1.553    core radius for proj-oper                               
   RAUG   =    1.300    factor for augmentation sphere                          
   RDEP   =    1.550    radius for radial grids                                 
   RDEPT  =    1.329    core radius for aug-charge                              
                                                                                
   Atomic configuration                                                         
    4 entries                                                                   
     n  l   j            E        occ.                                          
     1  0  0.50      -514.6923   2.0000                                         
     2  0  0.50       -23.9615   2.0000                                         
     2  1  0.50        -9.0305   4.0000                                         
     3  2  1.50        -9.5241   0.0000                                         
   Description                                                                  
     l       E           TYP  RCUT    TYP  RCUT                                 
     0    -23.9615318     23  1.200                                             
     0     -9.5240782     23  1.200                                             
     1     -9.0304911     23  1.520                                             
     1      8.1634956     23  1.520                                             
     2     -9.5240782      7  1.500                                             
  local pseudopotential read in
  partial core-charges read in
  partial kinetic energy density read in
  kinetic energy density of atom read in
  atomic valenz-charges read in
  non local Contribution for L=           0  read in
    real space projection operators read in
  non local Contribution for L=           0  read in
    real space projection operators read in
  non local Contribution for L=           1  read in
    real space projection operators read in
  non local Contribution for L=           1  read in
    real space projection operators read in
    PAW grid and wavefunctions read in
 
   number of l-projection  operators is LMAX  =           4
   number of lm-projection operators is LMMAX =           8
 
 Optimization of the real space projectors (new method)

 maximal supplied QI-value         = 22.11
 optimisation between [QCUT,QGAM] = [ 11.94, 23.88] = [ 39.92,159.67] Ry 
 Optimized for a Real-space Cutoff    1.18 Angstroem

   l    n(q)    QCUT    max X(q) W(low)/X(q) W(high)/X(q)  e(spline) 
   0      8    11.939    53.033    0.11E-03    0.34E-03    0.60E-07
   0      8    11.939    34.740    0.11E-03    0.34E-03    0.59E-07
   1      8    11.939    30.949    0.22E-03    0.20E-03    0.17E-06
   1      8    11.939    19.518    0.20E-03    0.18E-03    0.16E-06
 Optimization of the real space projectors (new method)

 maximal supplied QI-value         = 25.13
 optimisation between [QCUT,QGAM] = [ 11.81, 23.88] = [ 39.08,159.64] Ry 
 Optimized for a Real-space Cutoff    1.41 Angstroem

   l    n(q)    QCUT    max X(q) W(low)/X(q) W(high)/X(q)  e(spline) 
   0     10    11.813    79.467    0.48E-04    0.30E-04    0.67E-06
   0     10    11.813    66.151    0.47E-04    0.30E-04    0.67E-06
   1     10    11.813    20.169    0.11E-03    0.17E-03    0.11E-05
   1     10    11.813    14.454    0.11E-03    0.17E-03    0.11E-05
 Optimization of the real space projectors (new method)

 maximal supplied QI-value         = 25.13
 optimisation between [QCUT,QGAM] = [ 11.81, 23.88] = [ 39.08,159.64] Ry 
 Optimized for a Real-space Cutoff    1.18 Angstroem

   l    n(q)    QCUT    max X(q) W(low)/X(q) W(high)/X(q)  e(spline) 
   0      8    11.813   115.676    0.10E-03    0.16E-03    0.35E-06
   0      8    11.813    87.132    0.10E-03    0.16E-03    0.35E-06
   1      8    11.813     4.429    0.16E-03    0.13E-04    0.22E-06
   1      8    11.813     2.733    0.13E-03    0.10E-04    0.18E-06
 Optimization of the real space projectors (new method)

 maximal supplied QI-value         = 24.76
 optimisation between [QCUT,QGAM] = [ 11.88, 24.01] = [ 39.54,161.47] Ry 
 Optimized for a Real-space Cutoff    1.18 Angstroem

   l    n(q)    QCUT    max X(q) W(low)/X(q) W(high)/X(q)  e(spline) 
   0      8    11.883    14.049    0.56E-04    0.86E-04    0.22E-06
   0      8    11.883     8.945    0.81E-04    0.11E-03    0.30E-06
   1      8    11.883     7.086    0.16E-03    0.15E-04    0.31E-06
   1      8    11.883     6.747    0.15E-03    0.14E-04    0.28E-06
 Optimization of the real space projectors (new method)

 maximal supplied QI-value         = 24.76
 optimisation between [QCUT,QGAM] = [ 11.88, 24.01] = [ 39.54,161.47] Ry 
 Optimized for a Real-space Cutoff    1.18 Angstroem

   l    n(q)    QCUT    max X(q) W(low)/X(q) W(high)/X(q)  e(spline) 
   0      8    11.883    20.381    0.86E-04    0.11E-03    0.31E-06
   0      8    11.883    15.268    0.94E-04    0.12E-03    0.33E-06
   1      8    11.883     5.964    0.19E-03    0.18E-04    0.33E-06
   1      8    11.883     5.382    0.17E-03    0.20E-04    0.29E-06
  PAW_PBE B 06Sep2000                   :
 energy of atom  1       EATOM=  -71.1703
 kinetic energy error for atom=    0.0009 (will be added to EATOM!!)
  PAW_PBE N 08Apr2002                   :
 energy of atom  2       EATOM= -264.5486
 kinetic energy error for atom=    0.0116 (will be added to EATOM!!)
  PAW_PBE C 08Apr2002                   :
 energy of atom  3       EATOM= -147.1560
 kinetic energy error for atom=    0.0066 (will be added to EATOM!!)
  PAW_PBE F 08Apr2002                   :
 energy of atom  4       EATOM= -659.6475
 kinetic energy error for atom=    0.0296 (will be added to EATOM!!)
  PAW_PBE O 08Apr2002                   :
 energy of atom  5       EATOM= -432.3788
 kinetic energy error for atom=    0.0194 (will be added to EATOM!!)
 
 
 POSCAR: B N C F O                               
  positions in direct lattice
  velocities in cartesian coordinates

 METAGGA = SCAN     LMAXTAU =  6    LMIXTAU =  F

 exchange correlation table for  LEXCH =        8
   RHO(1)=    0.500       N(1)  =     2000
   RHO(2)=  100.500       N(2)  =     4000
 


--------------------------------------------------------------------------------------------------------


 ion  position               nearest neighbor table
   1  0.111  0.055  0.500-  43 1.45  42 1.45  37 1.45
   2  0.111  0.222  0.500-  44 1.45  38 1.45  37 1.45
   3  0.111  0.389  0.500-  45 1.45  39 1.45  38 1.45
   4  0.111  0.555  0.500-  39 1.45  40 1.45  46 1.45
   5  0.111  0.722  0.501-  40 1.45  47 1.45  41 1.45
   6  0.111  0.889  0.500-  42 1.45  48 1.45  41 1.45
   7  0.278  0.056  0.500-  49 1.45  43 1.45  48 1.45
   8  0.278  0.222  0.499-  50 1.45  44 1.45  43 1.45
   9  0.278  0.389  0.498-  51 1.45  44 1.45  45 1.45
  10  0.278  0.555  0.499-  52 1.45  45 1.45  46 1.45
  11  0.278  0.722  0.500-  53 1.45  46 1.45  47 1.45
  12  0.278  0.889  0.501-  54 1.45  48 1.45  47 1.45
  13  0.444  0.056  0.500-  49 1.45  55 1.45  54 1.45
  14  0.444  0.222  0.499-  56 1.45  50 1.45  49 1.45
  15  0.444  0.389  0.498-  57 1.45  50 1.45  51 1.45
  16  0.444  0.555  0.497-  58 1.45  51 1.45  52 1.45
  17  0.444  0.722  0.499-  52 1.45  59 1.45  53 1.45
  18  0.444  0.889  0.500-  60 1.45  54 1.45  53 1.45
  19  0.611  0.056  0.500-  55 1.45  61 1.45  60 1.45
  20  0.611  0.222  0.499-  56 1.45  62 1.45  55 1.45
  21  0.611  0.389  0.499-  57 1.45  56 1.45  63 1.45
  22  0.611  0.555  0.498-  57 1.45  64 1.45  58 1.45
  23  0.611  0.722  0.499-  58 1.45  65 1.45  59 1.45
  24  0.611  0.889  0.500-  66 1.45  59 1.45  60 1.45
  25  0.778  0.055  0.500-  66 1.45  61 1.45  67 1.45
  26  0.778  0.222  0.500-  62 1.45  68 1.45  61 1.45
  27  0.778  0.389  0.499-  63 1.45  62 1.45  69 1.45
  28  0.778  0.555  0.499-  63 1.45  64 1.45  70 1.45
  29  0.778  0.722  0.499-  64 1.45  65 1.45  71 1.45
  30  0.778  0.889  0.500-  65 1.45  72 1.45  66 1.45
  31  0.944  0.055  0.500-  72 1.45  67 1.45  37 1.45
  32  0.944  0.222  0.500-  68 1.45  38 1.45  67 1.45
  33  0.944  0.389  0.500-  69 1.45  68 1.45  39 1.45
  34  0.944  0.555  0.500-  70 1.45  69 1.45  40 1.45
  35  0.944  0.722  0.500-  70 1.45  71 1.45  41 1.45
  36  0.944  0.889  0.500-  71 1.45  42 1.45  72 1.45
  37  0.055  0.111  0.500-  31 1.45   1 1.45   2 1.45
  38  0.055  0.278  0.500-  32 1.45   3 1.45   2 1.45
  39  0.055  0.444  0.500-   3 1.45   4 1.45  33 1.45
  40  0.055  0.611  0.501-   5 1.45   4 1.45  34 1.45
  41  0.055  0.778  0.501-   5 1.45   6 1.45  35 1.45
  42  0.055  0.944  0.500-   6 1.45  36 1.45   1 1.45
  43  0.222  0.111  0.500-   1 1.45   7 1.45   8 1.45
  44  0.222  0.278  0.499-   2 1.45   8 1.45   9 1.45
  45  0.222  0.444  0.499-   3 1.45  10 1.45   9 1.45
  46  0.222  0.611  0.500-  11 1.45   4 1.45  10 1.45
  47  0.222  0.778  0.501-   5 1.45  11 1.45  12 1.45
  48  0.222  0.944  0.501-   6 1.45  12 1.45   7 1.45
  49  0.389  0.111  0.500-   7 1.45  13 1.45  14 1.45
  50  0.389  0.278  0.498-   8 1.45  14 1.45  15 1.45
  51  0.389  0.444  0.497-   9 1.45  16 1.45  15 1.45
  52  0.389  0.611  0.499-  10 1.45  17 1.45  16 1.45
  53  0.389  0.778  0.500-  11 1.45  18 1.45  17 1.45
  54  0.389  0.944  0.501-  12 1.45  18 1.45  13 1.45
  55  0.555  0.111  0.500-  19 1.45  13 1.45  20 1.45
  56  0.555  0.278  0.499-  20 1.45  14 1.45  21 1.45
  57  0.555  0.444  0.498-  22 1.45  15 1.45  21 1.45
  58  0.555  0.611  0.497-  23 1.45  16 1.45  22 1.45
  59  0.555  0.778  0.499-  17 1.45  24 1.45  23 1.45
  60  0.555  0.944  0.501-  18 1.45  24 1.45  19 1.45
  61  0.722  0.111  0.500-  25 1.45  19 1.45  26 1.45
  62  0.722  0.278  0.499-  26 1.45  27 1.45  20 1.45
  63  0.722  0.444  0.499-  27 1.45  28 1.45  21 1.45
  64  0.722  0.611  0.499-  29 1.45  28 1.45  22 1.45
  65  0.722  0.778  0.499-  30 1.45  23 1.45  29 1.45
  66  0.722  0.944  0.500-  25 1.45  24 1.45  30 1.45
  67  0.889  0.111  0.501-  25 1.45  31 1.45  32 1.45
  68  0.889  0.278  0.500-  32 1.45  33 1.45  26 1.45
  69  0.889  0.444  0.500-  33 1.45  34 1.45  27 1.45
  70  0.889  0.611  0.500-  35 1.45  34 1.45  28 1.45
  71  0.889  0.778  0.500-  36 1.45  35 1.45  29 1.45
  72  0.889  0.944  0.500-  30 1.45  31 1.45  36 1.45
  73  0.454  0.590  0.622-  77 1.34  78 1.34  79 1.35  74 1.54
  74  0.500  0.530  0.603-  81 1.36  80 1.36  75 1.53  73 1.54
  75  0.534  0.469  0.628-  82 1.37  83 1.37  74 1.53  76 1.57
  76  0.572  0.406  0.604-  84 1.24  85 1.24  75 1.57
  77  0.368  0.527  0.641-  73 1.34
  78  0.522  0.659  0.647-  73 1.34
  79  0.431  0.639  0.596-  73 1.35
  80  0.427  0.464  0.578-  74 1.36
  81  0.582  0.600  0.582-  74 1.36
  82  0.609  0.537  0.651-  75 1.37
  83  0.453  0.406  0.651-  75 1.37
  84  0.504  0.316  0.597-  76 1.24
  85  0.664  0.454  0.596-  76 1.24
 
  LATTYP: Found a hexagonal cell.
 ALAT       =    15.0731507304
 C/A-ratio  =     2.3296167479
  
  Lattice vectors:
  
 A1 = (   7.5365500567, -13.0537460594,   0.0000000000)
 A2 = (   7.5365500567,  13.0537460594,   0.0000000000)
 A3 = (   0.0000000000,   0.0000000000,  35.1146643856)


Analysis of symmetry for initial positions (statically):
=====================================================================
 Subroutine PRICEL returns:
 Original cell was already a primitive cell.
 

 Routine SETGRP: Setting up the symmetry group for a 
 hexagonal supercell.


 Subroutine GETGRP returns: Found  1 space group operations
 (whereof  1 operations were pure point group operations)
 out of a pool of 24 trial point group operations.


The static configuration has the point symmetry C_1 .


Analysis of symmetry for dynamics (positions and initial velocities):
=====================================================================
 Subroutine PRICEL returns:
 Original cell was already a primitive cell.
 

 Routine SETGRP: Setting up the symmetry group for a 
 hexagonal supercell.


 Subroutine GETGRP returns: Found  1 space group operations
 (whereof  1 operations were pure point group operations)
 out of a pool of 24 trial point group operations.


The dynamic configuration has the point symmetry C_1 .


Analysis of constrained symmetry for selective dynamics:
=====================================================================
 Subroutine PRICEL returns:
 Original cell was already a primitive cell.
 

 Routine SETGRP: Setting up the symmetry group for a 
 hexagonal supercell.


 Subroutine GETGRP returns: Found  1 space group operations
 (whereof  1 operations were pure point group operations)
 out of a pool of 24 trial point group operations.


The constrained configuration has the point symmetry C_1 .


Analysis of structural, dynamic, and magnetic symmetry:
=====================================================================
 Subroutine PRICEL returns:
 Original cell was already a primitive cell.
 

 Routine SETGRP: Setting up the symmetry group for a 
 hexagonal supercell.


 Subroutine GETGRP returns: Found  1 space group operations
 (whereof  1 operations were pure point group operations)
 out of a pool of 24 trial point group operations.


The magnetic configuration has the point symmetry C_1 .


 Subroutine INISYM returns: Found  1 space group operations
 (whereof  1 operations are pure point group operations),
 and found     1 'primitive' translations

 
 
 KPOINTS: K-Point Grid                            

Automatic generation of k-mesh.
Space group operators:
 irot       det(A)        alpha          n_x          n_y          n_z        tau_x        tau_y        tau_z
    1     1.000000     0.000000     1.000000     0.000000     0.000000     0.000000     0.000000     0.000000
 
 Subroutine IBZKPT returns following result:
 ===========================================
 
 Found      5 irreducible k-points:
 
 Following reciprocal coordinates:
            Coordinates               Weight
  0.000000  0.000000  0.000000      1.000000
  0.333333  0.000000  0.000000      2.000000
  0.000000  0.333333  0.000000      2.000000
  0.333333  0.333333  0.000000      2.000000
 -0.333333  0.333333  0.000000      2.000000
 
 Following cartesian coordinates:
            Coordinates               Weight
  0.000000  0.000000  0.000000      1.000000
  0.022114 -0.012768  0.000000      2.000000
  0.022114  0.012768  0.000000      2.000000
  0.044229  0.000000  0.000000      2.000000
  0.000000  0.025535  0.000000      2.000000
 


--------------------------------------------------------------------------------------------------------




 Dimension of arrays:
   k-points           NKPTS =      5   k-points in BZ     NKDIM =      5   number of bands    NBANDS=    272
   number of dos      NEDOS =   1200   number of ions     NIONS =     85
   non local maximal  LDIM  =      4   non local SUM 2l+1 LMDIM =      8
   total plane-waves  NPLWV = ******
   max r-space proj   IRMAX =   6598   max aug-charges    IRDMAX=   8974
   dimension x,y,z NGX =   120 NGY =  120 NGZ =  270
   dimension x,y,z NGXF=   240 NGYF=  240 NGZF=  540
   support grid    NGXF=   240 NGYF=  240 NGZF=  540
   ions per type =              36  36   4   7   2
   NGX,Y,Z   is equivalent  to a cutoff of  13.24, 13.24, 12.78 a.u.
   NGXF,Y,Z  is equivalent  to a cutoff of  26.47, 26.47, 25.57 a.u.

 SYSTEM =  SiC                                     
 POSCAR =  B N C F O                               

 Startparameter for this run:
   NWRITE =      2    write-flag & timer
   PREC   = accura    normal or accurate (medium, high low for compatibility)
   ISTART =      1    job   : 0-new  1-cont  2-samecut
   ICHARG =      0    charge: 1-file 2-atom 10-const
   ISPIN  =      2    spin polarized calculation?
   LNONCOLLINEAR =      F non collinear calculations
   LSORBIT =      F    spin-orbit coupling
   INIWAV =      1    electr: 0-lowe 1-rand  2-diag
   LASPH  =      T    aspherical Exc in radial PAW
   METAGGA=      F    non-selfconsistent MetaGGA calc.

 Electronic Relaxation 1
   ENCUT  =  550.0 eV  40.42 Ry    6.36 a.u.  28.82 28.82 67.15*2*pi/ulx,y,z
   ENINI  =  550.0     initial cutoff
   ENAUG  =  644.9 eV  augmentation charge cutoff
   NELM   =    100;   NELMIN=  2; NELMDL=  0     # of ELM steps 
   EDIFF  = 0.1E-04   stopping-criterion for ELM
   LREAL  =      T    real-space projection
   NLSPLINE    = F    spline interpolate recip. space projectors
   LCOMPAT=      F    compatible to vasp.4.4
   GGA_COMPAT  = T    GGA compatible to vasp.4.4-vasp.4.6
   LMAXPAW     = -100 max onsite density
   LMAXMIX     =    2 max onsite mixed and CHGCAR
   VOSKOWN=      0    Vosko Wilk Nusair interpolation
   ROPT   =   -0.00025  -0.00025  -0.00025  -0.00025
   ROPT   =   -0.00025
 Ionic relaxation
   EDIFFG = -.5E-01   stopping-criterion for IOM
   NSW    =    500    number of steps for IOM
   NBLOCK =      1;   KBLOCK =    500    inner block; outer block 
   IBRION =      2    ionic relax: 0-MD 1-quasi-New 2-CG
   NFREE  =      1    steps in history (QN), initial steepest desc. (CG)
   ISIF   =      2    stress and relaxation
   IWAVPR =     11    prediction:  0-non 1-charg 2-wave 3-comb
   ISYM   =      2    0-nonsym 1-usesym 2-fastsym
   LCORR  =      T    Harris-Foulkes like correction to forces

   POTIM  = 0.5000    time-step for ionic-motion
   TEIN   =    0.0    initial temperature
   TEBEG  =    0.0;   TEEND  =   0.0 temperature during run
   SMASS  =  -3.00    Nose mass-parameter (am)
   estimated Nose-frequenzy (Omega)   =  0.10E-29 period in steps =****** mass=  -0.519E-26a.u.
   SCALEE = 1.0000    scale energy and forces
   NPACO  =    256;   APACO  = 16.0  distance and # of slots for P.C.
   PSTRESS=    0.0 pullay stress

  Mass of Ions in am
   POMASS =  10.81 14.00 12.01 19.00 16.00
  Ionic Valenz
   ZVAL   =   3.00  5.00  4.00  7.00  6.00
  Atomic Wigner-Seitz radii
   RWIGS  =  -1.00 -1.00 -1.00 -1.00 -1.00
  virtual crystal weights 
   VCA    =   1.00  1.00  1.00  1.00  1.00
   NELECT =     366.0000    total number of electrons
   NUPDOWN=      -1.0000    fix difference up-down

 DOS related values:
   EMIN   =  10.00;   EMAX   =-10.00  energy-range for DOS
   EFERMI =   0.00
   ISMEAR =     0;   SIGMA  =   0.05  broadening in eV -4-tet -1-fermi 0-gaus

 Electronic relaxation 2 (details)
   IALGO  =     68    algorithm
   LDIAG  =      T    sub-space diagonalisation (order eigenvalues)
   LSUBROT=      F    optimize rotation matrix (better conditioning)
   TURBO    =      0    0=normal 1=particle mesh
   IRESTART =      0    0=no restart 2=restart with 2 vectors
   NREBOOT  =      0    no. of reboots
   NMIN     =      0    reboot dimension
   EREF     =   0.00    reference energy to select bands
   IMIX   =      4    mixing-type and parameters
     AMIX     =   0.40;   BMIX     =  1.00
     AMIX_MAG =   1.60;   BMIX_MAG =  1.00
     AMIN     =   0.10
     WC   =   100.;   INIMIX=   1;  MIXPRE=   1;  MAXMIX= -45

 Intra band minimization:
   WEIMIN = 0.0010     energy-eigenvalue tresh-hold
   EBREAK =  0.92E-08  absolut break condition
   DEPER  =   0.30     relativ break condition  

   TIME   =   0.40     timestep for ELM

  volume/ion in A,a.u.               =      81.28       548.53
  Fermi-wavevector in a.u.,A,eV,Ry     =   0.614837  1.161873  5.143331  0.378024
  Thomas-Fermi vector in A             =   1.671990
 
 Write flags
   LWAVE        =      T    write WAVECAR
   LDOWNSAMPLE  =      F    k-point downsampling of WAVECAR
   LCHARG       =      F    write CHGCAR
   LVTOT        =      F    write LOCPOT, total local potential
   LVHAR        =      T    write LOCPOT, Hartree potential only
   LELF         =      F    write electronic localiz. function (ELF)
   LORBIT       =     11    0 simple, 1 ext, 2 COOP (PROOUT), +10 PAW based schemes


 Dipole corrections
   LMONO  =      F    monopole corrections only (constant potential shift)
   LDIPOL =      F    correct potential (dipole corrections)
   IDIPOL =      0    1-x, 2-y, 3-z, 4-all directions 
   EPSILON=  1.0000000 bulk dielectric constant

 Exchange correlation treatment:
   GGA     =    --    GGA type
   LEXCH   =     8    internal setting for exchange type
   VOSKOWN=      0    Vosko Wilk Nusair interpolation
   LHFCALC =     F    Hartree Fock is set to
   LHFONE  =     F    Hartree Fock one center treatment
   AEXX    =    0.0000 exact exchange contribution

 vdW DFT:
   LUSE_VDW   =     T    switch on vdW DFT
   Zab_VDW    =-.8491    correlation parameter
   PARAM1     =0.1234
   PARAM2     =1.0000
   PARAM3     =0.0000
   -- rVV10 --
   BPARAM     =15.7000
   CPARAM     = 0.0093

 Linear response parameters
   LEPSILON=     F    determine dielectric tensor
   LRPA    =     F    only Hartree local field effects (RPA)
   LNABLA  =     F    use nabla operator in PAW spheres
   LVEL    =     F    velocity operator in full k-point grid
   LINTERFAST=   F  fast interpolation
   KINTER  =     0    interpolate to denser k-point grid
   CSHIFT  =0.1000    complex shift for real part using Kramers Kronig
   OMEGAMAX=  -1.0    maximum frequency
   DEG_THRESHOLD= 0.2000000E-02 threshold for treating states as degnerate
   RTIME   =   -0.100 relaxation time in fs
  (WPLASMAI=    0.000 imaginary part of plasma frequency in eV, 0.658/RTIME)
   DFIELD  = 0.0000000 0.0000000 0.0000000 field for delta impulse in time
 
 Orbital magnetization related:
   ORBITALMAG=     F  switch on orbital magnetization
   LCHIMAG   =     F  perturbation theory with respect to B field
   DQ        =  0.001000  dq finite difference perturbation B field
   LLRAUG    =     F  two centre corrections for induced B field

 Solvation model:
   LSOL    =     T         switch on solvation model
   EB_K    = 78.400000     relative permittivity of the bulk solvent
   SIGMA_K =  0.600000     width of the dielectric cavity
   NC_K    =  0.002500     cutoff charge density
   TAU     =  0.000000     cavity surface tension
   LAMBDA_D_K    =  3.040000     Debye length in Angstroms
   LRHOB     =     F     write boundcharge  density
   LRHOION     =     F     write ioniccharge density



--------------------------------------------------------------------------------------------------------


 conjugate gradient relaxation of ions
   using selective dynamics as specified on POSCAR
 charge density and potential will be updated during run
 spin polarized calculation
 RMM-DIIS sequential band-by-band and
  variant of blocked Davidson during initial phase
 perform sub-space diagonalisation
    before iterative eigenvector-optimisation
 modified Broyden-mixing scheme, WC =      100.0
 initial mixing is a Kerker type mixing with AMIX =  0.4000 and BMIX =      1.0000
 Hartree-type preconditioning will be used
 using additional bands           89
 real space projection scheme for non local part
 use partial core corrections
 calculate Harris-corrections to forces 
   (improved forces if not selfconsistent)
 use gradient corrections 
 use of overlap-Matrix (Vanderbilt PP)
 Gauss-broadening in eV      SIGMA  =   0.05


--------------------------------------------------------------------------------------------------------


  energy-cutoff  :      550.00
  volume of cell :     6909.18
      direct lattice vectors                 reciprocal lattice vectors
     7.536550057-13.053746059  0.000000000     0.066343353 -0.038303181  0.000000000
     7.536550057 13.053746059  0.000000000     0.066343353  0.038303181  0.000000000
     0.000000000  0.000000000 35.114664386     0.000000000  0.000000000  0.028478131

  length of vectors
    15.073150730 15.073150730 35.114664386     0.076606620  0.076606620  0.028478131


 
 old parameters found on file WAVECAR:
  energy-cutoff  :      600.00
  volume of cell :     6909.18
      direct lattice vectors                 reciprocal lattice vectors
     7.536550057-13.053746059  0.000000000     0.066343353 -0.038303181  0.000000000
     7.536550057 13.053746059  0.000000000     0.066343353  0.038303181  0.000000000
     0.000000000  0.000000000 35.114664386     0.000000000  0.000000000  0.028478131

  length of vectors

 
 k-points in units of 2pi/SCALE and weight: K-Point Grid                            
   0.00000000  0.00000000  0.00000000       0.111
   0.02211445 -0.01276773  0.00000000       0.222
   0.02211445  0.01276773  0.00000000       0.222
   0.04422890  0.00000000  0.00000000       0.222
   0.00000000  0.02553545  0.00000000       0.222
 
 k-points in reciprocal lattice and weights: K-Point Grid                            
   0.00000000  0.00000000  0.00000000       0.111
   0.33333333  0.00000000  0.00000000       0.222
   0.00000000  0.33333333  0.00000000       0.222
   0.33333333  0.33333333  0.00000000       0.222
  -0.33333333  0.33333333  0.00000000       0.222
 
 position of ions in fractional coordinates (direct lattice) 
   0.11097401  0.05547458  0.50019063
   0.11094363  0.22215783  0.49976530
   0.11097728  0.38882858  0.49985121
   0.11095746  0.55544839  0.50042041
   0.11097294  0.72212878  0.50065871
   0.11094265  0.88879974  0.50049793
   0.27767750  0.05557095  0.50017996
   0.27768584  0.22221273  0.49901550
   0.27768481  0.38881885  0.49803732
   0.27767134  0.55549121  0.49914446
   0.27763769  0.72215592  0.50027729
   0.27761540  0.88885511  0.50070349
   0.44428647  0.05562438  0.50036360
   0.44436304  0.22234783  0.49917157
   0.44431340  0.38887023  0.49760534
   0.44424676  0.55539021  0.49731722
   0.44422351  0.72205953  0.49934103
   0.44425465  0.88883409  0.50049722
   0.61087401  0.05553092  0.50037562
   0.61087718  0.22229078  0.49940588
   0.61093610  0.38887960  0.49872299
   0.61084523  0.55536434  0.49803361
   0.61084923  0.72199124  0.49870396
   0.61090799  0.88878001  0.50012433
   0.77753308  0.05543187  0.50045643
   0.77756253  0.22216676  0.50000444
   0.77751818  0.38887715  0.49937473
   0.77750463  0.55534255  0.49916926
   0.77750798  0.72198618  0.49939593
   0.77755992  0.88873816  0.50013170
   0.94419615  0.05539558  0.50044998
   0.94425130  0.22211734  0.50034848
   0.94425915  0.38879639  0.50032844
   0.94426159  0.55547563  0.50027760
   0.94425405  0.72208340  0.50017089
   0.94425233  0.88873931  0.50029917
   0.05533553  0.11099081  0.50019385
   0.05536401  0.27770445  0.50003812
   0.05539271  0.44433697  0.50039997
   0.05541632  0.61102693  0.50062813
   0.05540519  0.77767980  0.50051725
   0.05537725  0.94433790  0.50040261
   0.22205893  0.11104548  0.49989558
   0.22199374  0.27767029  0.49885288
   0.22204911  0.44436668  0.49891901
   0.22208356  0.61103961  0.50006027
   0.22208262  0.77771393  0.50066368
   0.22204867  0.94440505  0.50053846
   0.38872686  0.11112545  0.50003211
   0.38865825  0.27772935  0.49838190
   0.38860248  0.44431792  0.49652609
   0.38870629  0.61100604  0.49850646
   0.38871981  0.77769304  0.50010496
   0.38872492  0.94443967  0.50070771
   0.55537220  0.11110578  0.50015112
   0.55538537  0.27773424  0.49865281
   0.55533776  0.44438889  0.49793290
   0.55531519  0.61101425  0.49731731
   0.55534002  0.77766928  0.49940354
   0.55537226  0.94437990  0.50050402
   0.72200827  0.11101243  0.50026216
   0.72205069  0.27771064  0.49943021
   0.72209863  0.44438017  0.49860190
   0.72201598  0.61098214  0.49870436
   0.72200840  0.77766555  0.49949119
   0.72202811  0.94432803  0.50032425
   0.88864802  0.11097806  0.50054068
   0.88870986  0.27767058  0.50024939
   0.88874097  0.44436714  0.50010493
   0.88872943  0.61102607  0.49996871
   0.88871185  0.77765399  0.50001813
   0.88866481  0.94428497  0.50039468
   0.45445788  0.58952170  0.62236476
   0.50003218  0.52981119  0.60266673
   0.53388611  0.46859781  0.62766599
   0.57179165  0.40567155  0.60393804
   0.36835267  0.52664805  0.64129796
   0.52153820  0.65921696  0.64671883
   0.43146462  0.63892763  0.59567074
   0.42732614  0.46421101  0.57794425
   0.58205565  0.59965065  0.58228426
   0.60925018  0.53700345  0.65146557
   0.45254628  0.40592819  0.65051393
   0.50416776  0.31618566  0.59681072
   0.66435358  0.45449645  0.59551090
 
 position of ions in cartesian coordinates  (Angst):
   1.25444810 -0.72447545 17.56402600
   2.51043584  1.45176195 17.54909084
   3.76681189  3.62700030 17.55210736
   5.02240107  5.80227166 17.57209459
   6.27871277  7.97787317 17.58046261
   7.53460853 10.15394891 17.57481684
   2.51154360 -2.89932243 17.56365159
   3.76751061 -0.72413198 17.52276164
   5.02313820  1.45071564 17.48841345
   6.27917122  3.62659003 17.52729009
   7.53499460  5.80262803 17.56706900
   8.79116334  7.97896794 17.58203494
   3.76760312 -5.07349627 17.57009988
   5.02469985 -2.89813018 17.52824227
   6.27933014 -0.72374103 17.47324465
   7.53381409  1.45083841 17.46312742
   8.78975055  3.62680083 17.53419275
  10.04689001  5.80342706 17.57479178
   5.02239415 -7.24930773 17.57052207
   6.27921199 -5.07250817 17.53646990
   7.53516104 -2.89866922 17.51249025
   8.78919681 -0.72423349 17.48828293
  10.04501893  1.45081963 17.51182210
  11.30247361  3.62727078 17.56169784
   6.27768206 -9.42612587 17.57335967
   7.53450980 -7.24999537 17.55748794
   8.79059679 -5.07322143 17.53537614
  10.04506953 -2.90004731 17.52816087
  11.30101286 -0.72476750 17.53612050
  12.55813892  1.45129256 17.56195667
   7.53347313-11.60217693 17.57313320
   8.79039564 -9.42655341 17.56956900
  10.04663975 -7.25086981 17.56886541
  11.30284463 -5.07511326 17.56708014
  12.55843557 -2.90015929 17.56333289
  13.81443327 -0.72465291 17.56783745
   1.25352673  0.72650986 17.56413932
   2.51018718  2.90237563 17.55867078
   3.76623773  5.07717953 17.57137715
   5.02268284  7.25279981 17.57938888
   6.27858671  9.42838930 17.57549509
   7.53440327 11.60426647 17.57146968
   2.51045799 -1.44914139 17.55366550
   3.76574299  0.72678755 17.51705158
   5.02247593  2.90207711 17.51937346
   6.27887449  5.07733350 17.55944842
   7.53501679  7.25307006 17.58063694
   8.79103687  9.42945666 17.57624003
   3.76716192 -3.62373824 17.55845961
   5.02226350 -1.44803763 17.50051321
   6.27734627  0.72729516 17.43534704
   7.53438206  2.90184451 17.50488714
   8.79072883  5.07755789 17.56101795
  10.04746172  7.25415920 17.58218314
   5.02294472 -5.79934105 17.56263861
   6.27884766 -3.62438724 17.51002593
   7.53448998 -1.44829842 17.48474661
   8.79010026  0.72708137 17.46313032
  10.04629129  2.90222974 17.53638763
  11.30295721  5.07800686 17.57503085
   6.27810223 -7.97578451 17.56653778
   7.53475131 -5.80030208 17.53732438
   8.79122587 -3.62526625 17.50823829
  10.04620707 -1.44940764 17.51183623
  11.30236783  0.72653430 17.53946563
  12.55857642  2.90184674 17.56871815
   7.53373200-10.15150618 17.57631788
   8.79048458 -7.97635149 17.56608959
  10.04703600 -5.80074312 17.56101674
  11.30298244 -3.62506915 17.55623351
  12.55864957 -1.44972098 17.55796883
  13.81411782  0.72605140 17.57119112
   7.86800438  1.76308884 21.85412957
   7.76146614  0.38872769 21.16243994
   7.55527031 -0.85225688 22.04028050
   7.36670033 -2.16848962 21.20708171
   6.74521772  2.06634762 22.51896270
   8.89882036  1.79722357 22.70931456
   8.06706475  2.70816946 20.91677814
   6.71911437  0.48148579 20.29431827
   8.90598868  0.22968060 20.44671645
   8.63879790 -0.94309043 22.87599477
   6.46993579 -0.60854069 22.84257849
   6.18263461 -2.45387060 20.95680816
   8.43226928 -2.73942174 20.91116548
 


--------------------------------------------------------------------------------------------------------


 k-point  1 :   0.0000 0.0000 0.0000  plane waves:  202395
 k-point  2 :   0.3333 0.0000 0.0000  plane waves:  202358
 k-point  3 :   0.0000 0.3333 0.0000  plane waves:  202358
 k-point  4 :   0.3333 0.3333 0.0000  plane waves:  202335
 k-point  5 :  -0.3333 0.3333 0.0000  plane waves:  202358

 maximum and minimum number of plane-waves per node :      8479     8400

 maximum number of plane-waves:    202395
 maximum index in each direction: 
   IXMAX=   29   IYMAX=   28   IZMAX=   67
   IXMIN=  -29   IYMIN=  -29   IZMIN=  -67


 real space projection operators:
  total allocation   :      25729.50 KBytes
  max/ min on nodes  :       1086.38       1058.50


 parallel 3D FFT for wavefunctions:
    minimum data exchange during FFTs selected (reduces bandwidth)
 parallel 3D FFT for charge:
    minimum data exchange during FFTs selected (reduces bandwidth)


 total amount of memory used by VASP MPI-rank0   220819. kBytes
=======================================================================

   base      :      30000. kBytes
   nonlr-proj:      10840. kBytes
   fftplans  :      17498. kBytes
   grid      :      70152. kBytes
   one-center:         24. kBytes
   wavefun   :      92305. kBytes
 
     INWAV:  cpu time   27.6557: real time   27.9556
 Broyden mixing: mesh for mixing (old mesh)
   NGX = 57   NGY = 57   NGZ =135
  (NGX  =240   NGY  =240   NGZ  =540)
  gives a total of 438615 points

 charge density for first step will be calculated from the start-wavefunctions


--------------------------------------------------------------------------------------------------------


 Maximum index for non-local projection operator          369
 Maximum index for augmentation-charges          391 (set IRDMAX)


--------------------------------------------------------------------------------------------------------


 initial charge from wavefunction
 First call to EWALD:  gamma=   0.093
 Maximum number of real-space cells 4x 4x 2
 Maximum number of reciprocal cells 2x 2x 5

    FEWALD:  cpu time    0.0032: real time    0.0164


--------------------------------------- Iteration      1(   1)  ---------------------------------------


    POTLOK:  cpu time   34.6312: real time   35.3723
    SETDIJ:  cpu time    0.4084: real time    0.6930
     EDDAV:  cpu time  151.4145: real time  152.4449
       DOS:  cpu time    0.0025: real time    0.0276
    CHARGE:  cpu time   30.1742: real time   30.2211
    MIXING:  cpu time    0.0205: real time    0.0206
    --------------------------------------------
      LOOP:  cpu time  216.6513: real time  218.7796

 eigenvalue-minimisations  :  5568
 total energy-change (2. order) :-0.7986685E+03  (-0.6032449E-03)
 number of electron     365.9999987 magnetization       0.0000000
 augmentation part       18.7393292 magnetization      -0.0000004

 Broyden mixing:
  rms(total) = 0.70378E-02    rms(broyden)= 0.70317E-02
  rms(prec ) = 0.71719E-02
  weight for this iteration     100.00

 Free energy of the ion-electron system (eV)
  ---------------------------------------------------
  alpha Z        PSCENC =       100.65948351
  Ewald energy   TEWEN  =    126150.89100767
  -Hartree energ DENC   =   -142377.79678669
  -exchange      EXHF   =         0.00000000
  -V(xc)+E(xc)   XCENC  =      1700.04440883
  PAW double counting   =     42197.02951780   -42377.15774617
  entropy T*S    EENTRO =        -0.00000000
  eigenvalues    EBANDS =     -5232.71432724
  atomic energy  EATOM  =     18156.06983909
  Solvation  Ediel_sol  =       884.30607452
  ---------------------------------------------------
  free energy    TOTEN  =      -798.66852869 eV

  energy without entropy =     -798.66852869  energy(sigma->0) =     -798.66852869


--------------------------------------------------------------------------------------------------------




--------------------------------------- Iteration      1(   2)  ---------------------------------------


    POTLOK:  cpu time   26.6877: real time   26.7418
    SETDIJ:  cpu time    0.4172: real time    0.4181
    EDDIAG:  cpu time   35.1146: real time   35.2004
  RMM-DIIS:  cpu time  198.5420: real time  198.9308
    ORTHCH:  cpu time    0.8299: real time    0.8317
       DOS:  cpu time    0.0020: real time    0.0020
    CHARGE:  cpu time   30.3642: real time   30.4201
    MIXING:  cpu time    0.0152: real time    0.0164
    --------------------------------------------
      LOOP:  cpu time  291.9729: real time  292.5614

 eigenvalue-minimisations  :  5440
 total energy-change (2. order) : 0.2981109E-04  (-0.2863119E-04)
 number of electron     365.9999987 magnetization       0.0000000
 augmentation part       18.7381732 magnetization      -0.0000002

 Broyden mixing:
  rms(total) = 0.30076E-02    rms(broyden)= 0.30067E-02
  rms(prec ) = 0.30295E-02
  weight for this iteration     100.00

 eigenvalues of (default mixing * dielectric matrix)
  average eigenvalue GAMMA=   1.4028
  1.4028

 Free energy of the ion-electron system (eV)
  ---------------------------------------------------
  alpha Z        PSCENC =       100.65948351
  Ewald energy   TEWEN  =    126150.89100767
  -Hartree energ DENC   =   -142378.16195562
  -exchange      EXHF   =         0.00000000
  -V(xc)+E(xc)   XCENC  =      1700.09084951
  PAW double counting   =     42200.30430629   -42380.43811143
  entropy T*S    EENTRO =        -0.00000000
  eigenvalues    EBANDS =     -5232.34236700
  atomic energy  EATOM  =     18156.06983909
  Solvation  Ediel_sol  =       884.25844911
  ---------------------------------------------------
  free energy    TOTEN  =      -798.66849888 eV

  energy without entropy =     -798.66849888  energy(sigma->0) =     -798.66849888


--------------------------------------------------------------------------------------------------------




--------------------------------------- Iteration      1(   3)  ---------------------------------------


    POTLOK:  cpu time   25.9204: real time   25.9858
    SETDIJ:  cpu time    0.4147: real time    0.4158
    EDDIAG:  cpu time   35.1193: real time   35.1639
  RMM-DIIS:  cpu time  195.6253: real time  195.9977
    ORTHCH:  cpu time    0.8256: real time    0.8274
       DOS:  cpu time    0.0020: real time    0.0020
    CHARGE:  cpu time   31.1760: real time   31.2335
    MIXING:  cpu time    0.0175: real time    0.0175
    --------------------------------------------
      LOOP:  cpu time  289.1009: real time  289.6436

 eigenvalue-minimisations  :  5340
 total energy-change (2. order) :-0.3269701E-04  (-0.8658378E-05)
 number of electron     365.9999987 magnetization       0.0000000
 augmentation part       18.7376611 magnetization      -0.0000002

 Broyden mixing:
  rms(total) = 0.15472E-02    rms(broyden)= 0.15467E-02
  rms(prec ) = 0.15526E-02
  weight for this iteration     100.00

 eigenvalues of (default mixing * dielectric matrix)
  average eigenvalue GAMMA=   1.8793
  1.8149  1.9436

 Free energy of the ion-electron system (eV)
  ---------------------------------------------------
  alpha Z        PSCENC =       100.65948351
  Ewald energy   TEWEN  =    126150.89100767
  -Hartree energ DENC   =   -142378.24561281
  -exchange      EXHF   =         0.00000000
  -V(xc)+E(xc)   XCENC  =      1700.08355920
  PAW double counting   =     42203.40470314   -42383.54458670
  entropy T*S    EENTRO =        -0.00000000
  eigenvalues    EBANDS =     -5232.24274039
  atomic energy  EATOM  =     18156.06983909
  Solvation  Ediel_sol  =       884.25581572
  ---------------------------------------------------
  free energy    TOTEN  =      -798.66853157 eV

  energy without entropy =     -798.66853157  energy(sigma->0) =     -798.66853157


--------------------------------------------------------------------------------------------------------




--------------------------------------- Iteration      1(   4)  ---------------------------------------


    POTLOK:  cpu time   26.9031: real time   26.9674
    SETDIJ:  cpu time    0.4695: real time    0.4706
    EDDIAG:  cpu time   37.2979: real time   37.3528
  RMM-DIIS:  cpu time  163.2041: real time  163.5216
    ORTHCH:  cpu time    0.8400: real time    0.8418
       DOS:  cpu time    0.0020: real time    0.0021
    CHARGE:  cpu time   30.3795: real time   30.4370
    MIXING:  cpu time    0.0165: real time    0.0169
    --------------------------------------------
      LOOP:  cpu time  259.1125: real time  259.6102

 eigenvalue-minimisations  :  3796
 total energy-change (2. order) : 0.1335899E-04  (-0.1803941E-05)
 number of electron     365.9999987 magnetization       0.0000000
 augmentation part       18.7377096 magnetization      -0.0000006

 Broyden mixing:
  rms(total) = 0.57212E-03    rms(broyden)= 0.57208E-03
  rms(prec ) = 0.58441E-03
  weight for this iteration     100.00

 eigenvalues of (default mixing * dielectric matrix)
  average eigenvalue GAMMA=   1.6002
  2.6351  1.3737  0.7918

 Free energy of the ion-electron system (eV)
  ---------------------------------------------------
  alpha Z        PSCENC =       100.65948351
  Ewald energy   TEWEN  =    126150.89100767
  -Hartree energ DENC   =   -142378.11288920
  -exchange      EXHF   =         0.00000000
  -V(xc)+E(xc)   XCENC  =      1700.07244072
  PAW double counting   =     42205.97182017   -42386.11823428
  entropy T*S    EENTRO =        -0.00000000
  eigenvalues    EBANDS =     -5232.38973534
  atomic energy  EATOM  =     18156.06983909
  Solvation  Ediel_sol  =       884.28774945
  ---------------------------------------------------
  free energy    TOTEN  =      -798.66851821 eV

  energy without entropy =     -798.66851821  energy(sigma->0) =     -798.66851821


--------------------------------------------------------------------------------------------------------




--------------------------------------- Iteration      1(   5)  ---------------------------------------


    POTLOK:  cpu time   24.5598: real time   24.6184
    SETDIJ:  cpu time    0.4137: real time    0.4150
    EDDIAG:  cpu time   35.1915: real time   35.2550
  RMM-DIIS:  cpu time  153.2714: real time  153.5815
    ORTHCH:  cpu time    0.8366: real time    0.8385
       DOS:  cpu time    0.0020: real time    0.0020
    --------------------------------------------
      LOOP:  cpu time  214.2747: real time  214.7102

 eigenvalue-minimisations  :  3616
 total energy-change (2. order) :-0.4243338E-05  (-0.5223707E-06)
 number of electron     365.9999987 magnetization       0.0000000
 augmentation part       18.7377096 magnetization      -0.0000006

 Free energy of the ion-electron system (eV)
  ---------------------------------------------------
  alpha Z        PSCENC =       100.65948351
  Ewald energy   TEWEN  =    126150.89100767
  -Hartree energ DENC   =   -142378.11842605
  -exchange      EXHF   =         0.00000000
  -V(xc)+E(xc)   XCENC  =      1700.07399034
  PAW double counting   =     42206.49902211   -42386.64602928
  entropy T*S    EENTRO =        -0.00000000
  eigenvalues    EBANDS =     -5232.38496870
  atomic energy  EATOM  =     18156.06983909
  Solvation  Ediel_sol  =       884.28755885
  ---------------------------------------------------
  free energy    TOTEN  =      -798.66852246 eV

  energy without entropy =     -798.66852246  energy(sigma->0) =     -798.66852246


--------------------------------------------------------------------------------------------------------




 average (electrostatic) potential at core
  the test charge radii are     0.7672  0.7089  0.6991  0.7167  0.7215
  (the norm of the test charge is              1.0000)
       1 -38.5148       2 -38.5135       3 -38.5152       4 -38.5174       5 -38.5164
       6 -38.5159       7 -38.5040       8 -38.4871       9 -38.4876      10 -38.5078
      11 -38.5184      12 -38.5166      13 -38.5023      14 -38.4589      15 -38.4457
      16 -38.4704      17 -38.5100      18 -38.5191      19 -38.5119      20 -38.4713
      21 -38.4280      22 -38.4510      23 -38.4944      24 -38.5187      25 -38.5191
      26 -38.5069      27 -38.4703      28 -38.4618      29 -38.4949      30 -38.5163
      31 -38.5207      32 -38.5192      33 -38.5111      34 -38.5025      35 -38.5059
      36 -38.5164      37 -76.0722      38 -76.0741      39 -76.0747      40 -76.0727
      41 -76.0729      42 -76.0751      43 -76.0612      44 -76.0601      45 -76.0676
      46 -76.0738      47 -76.0782      48 -76.0723      49 -76.0486      50 -76.0091
      51 -76.0015      52 -76.0581      53 -76.0767      54 -76.0726      55 -76.0560
      56 -75.9824      57 -75.9847      58 -76.0155      59 -76.0704      60 -76.0754
      61 -76.0705      62 -76.0444      63 -75.9808      64 -76.0210      65 -76.0649
      66 -76.0773      67 -76.0787      68 -76.0708      69 -76.0539      70 -76.0510
      71 -76.0638      72 -76.0772      73 -67.6020      74 -66.0887      75 -65.1986
      76 -63.2408      77 -92.0518      78 -92.0602      79 -91.9867      80 -91.7292
      81 -91.7136      82 -91.1393      83 -91.1426      84 -83.1970      85 -83.1869
 
 
 
 E-fermi :  -5.8171     XC(G=0):  -1.4149     alpha+bet : -1.1769


 spin component 1

 k-point     1 :       0.0000    0.0000    0.0000
  band No.  band energies     occupation 
      1     -35.8137      1.00000
      2     -34.5427      1.00000
      3     -33.8142      1.00000
      4     -33.4955      1.00000
      5     -33.3537      1.00000
      6     -32.9823      1.00000
      7     -32.2876      1.00000
      8     -27.6357      1.00000
      9     -25.4618      1.00000
     10     -24.7329      1.00000
     11     -24.2045      1.00000
     12     -24.1985      1.00000
     13     -24.1982      1.00000
     14     -24.1805      1.00000
     15     -24.1783      1.00000
     16     -24.1578      1.00000
     17     -23.1766      1.00000
     18     -23.1757      1.00000
     19     -23.1754      1.00000
     20     -23.1716      1.00000
     21     -23.1701      1.00000
     22     -23.1672      1.00000
     23     -22.7364      1.00000
     24     -22.7336      1.00000
     25     -22.7323      1.00000
     26     -22.7319      1.00000
     27     -22.7298      1.00000
     28     -22.7283      1.00000
     29     -21.6898      1.00000
     30     -21.6890      1.00000
     31     -21.6850      1.00000
     32     -21.6840      1.00000
     33     -21.6832      1.00000
     34     -21.6824      1.00000
     35     -21.6689      1.00000
     36     -21.6676      1.00000
     37     -21.6655      1.00000
     38     -21.6642      1.00000
     39     -21.6562      1.00000
     40     -21.6511      1.00000
     41     -21.5816      1.00000
     42     -21.5802      1.00000
     43     -21.5782      1.00000
     44     -21.4517      1.00000
     45     -21.0069      1.00000
     46     -21.0047      1.00000
     47     -19.4887      1.00000
     48     -17.7047      1.00000
     49     -16.2765      1.00000
     50     -16.1642      1.00000
     51     -16.1435      1.00000
     52     -15.2927      1.00000
     53     -15.2900      1.00000
     54     -15.2896      1.00000
     55     -15.2493      1.00000
     56     -15.1928      1.00000
     57     -14.8926      1.00000
     58     -14.4473      1.00000
     59     -14.4468      1.00000
     60     -14.4460      1.00000
     61     -14.4452      1.00000
     62     -14.4388      1.00000
     63     -14.4373      1.00000
     64     -14.4359      1.00000
     65     -14.4314      1.00000
     66     -14.4240      1.00000
     67     -14.4229      1.00000
     68     -14.4215      1.00000
     69     -14.4171      1.00000
     70     -14.2796      1.00000
     71     -14.1713      1.00000
     72     -14.1703      1.00000
     73     -13.5671      1.00000
     74     -13.5666      1.00000
     75     -13.2278      1.00000
     76     -13.2274      1.00000
     77     -13.2266      1.00000
     78     -13.2261      1.00000
     79     -13.2253      1.00000
     80     -13.2240      1.00000
     81     -12.6509      1.00000
     82     -12.5278      1.00000
     83     -12.4327      1.00000
     84     -12.0765      1.00000
     85     -11.9693      1.00000
     86     -11.8828      1.00000
     87     -11.8212      1.00000
     88     -11.8203      1.00000
     89     -11.8196      1.00000
     90     -11.8194      1.00000
     91     -11.8183      1.00000
     92     -11.8175      1.00000
     93     -11.5760      1.00000
     94     -11.5753      1.00000
     95     -11.5737      1.00000
     96     -11.5730      1.00000
     97     -11.5693      1.00000
     98     -11.5669      1.00000
     99     -11.5618      1.00000
    100     -11.5582      1.00000
    101     -11.5525      1.00000
    102     -11.5505      1.00000
    103     -11.5493      1.00000
    104     -11.5474      1.00000
    105     -11.5080      1.00000
    106     -11.4362      1.00000
    107     -11.3950      1.00000
    108     -11.0741      1.00000
    109     -10.9943      1.00000
    110     -10.9705      1.00000
    111     -10.8204      1.00000
    112     -10.7099      1.00000
    113     -10.7044      1.00000
    114     -10.7029      1.00000
    115     -10.6866      1.00000
    116     -10.6785      1.00000
    117     -10.6237      1.00000
    118     -10.5024      1.00000
    119     -10.4100      1.00000
    120     -10.3789      1.00000
    121     -10.3317      1.00000
    122     -10.3315      1.00000
    123     -10.3312      1.00000
    124     -10.1118      1.00000
    125     -10.1104      1.00000
    126     -10.1100      1.00000
    127     -10.1094      1.00000
    128     -10.1083      1.00000
    129     -10.1070      1.00000
    130     -10.1012      1.00000
    131      -9.7593      1.00000
    132      -9.7586      1.00000
    133      -9.7582      1.00000
    134      -9.7569      1.00000
    135      -9.7565      1.00000
    136      -9.7550      1.00000
    137      -9.5185      1.00000
    138      -9.5125      1.00000
    139      -9.5123      1.00000
    140      -9.5035      1.00000
    141      -9.5024      1.00000
    142      -9.5014      1.00000
    143      -9.3328      1.00000
    144      -9.3089      1.00000
    145      -9.3033      1.00000
    146      -9.2942      1.00000
    147      -9.2917      1.00000
    148      -9.2786      1.00000
    149      -9.2365      1.00000
    150      -8.6897      1.00000
    151      -8.6811      1.00000
    152      -8.6795      1.00000
    153      -8.6785      1.00000
    154      -8.6753      1.00000
    155      -8.6654      1.00000
    156      -8.3654      1.00000
    157      -8.3591      1.00000
    158      -8.3583      1.00000
    159      -8.3476      1.00000
    160      -8.3468      1.00000
    161      -8.3443      1.00000
    162      -7.4377      1.00000
    163      -7.4372      1.00000
    164      -7.1529      1.00000
    165      -7.1518      1.00000
    166      -7.1506      1.00000
    167      -7.1481      1.00000
    168      -7.1448      1.00000
    169      -7.1441      1.00000
    170      -7.1360      1.00000
    171      -7.1274      1.00000
    172      -7.1191      1.00000
    173      -7.1183      1.00000
    174      -7.1107      1.00000
    175      -7.1067      1.00000
    176      -6.9735      1.00000
    177      -6.9697      1.00000
    178      -6.9681      1.00000
    179      -6.6629      1.00000
    180      -6.2332      1.00000
    181      -6.1167      1.00000
    182      -6.0659      1.00000
    183      -6.0534      1.00000
    184      -0.9514      0.00000
    185      -0.8822      0.00000
    186      -0.7755      0.00000
    187      -0.7750      0.00000
    188      -0.7151      0.00000
    189      -0.7136      0.00000
    190      -0.7021      0.00000
    191      -0.3273      0.00000
    192      -0.2712      0.00000
    193      -0.1493      0.00000
    194      -0.0861      0.00000
    195      -0.0823      0.00000
    196      -0.0779      0.00000
    197      -0.0318      0.00000
    198      -0.0138      0.00000
    199      -0.0096      0.00000
    200      -0.0090      0.00000
    201      -0.0088      0.00000
    202      -0.0048      0.00000
    203      -0.0026      0.00000
    204       0.0039      0.00000
    205       0.0108      0.00000
    206       0.0142      0.00000
    207       0.0172      0.00000
    208       0.0236      0.00000
    209       0.0404      0.00000
    210       0.0766      0.00000
    211       0.1511      0.00000
    212       0.1589      0.00000
    213       0.2053      0.00000
    214       0.5453      0.00000
    215       0.5897      0.00000
    216       0.5961      0.00000
    217       0.6158      0.00000
    218       0.6415      0.00000
    219       0.6723      0.00000
    220       0.7180      0.00000
    221       0.7322      0.00000
    222       0.7347      0.00000
    223       0.7361      0.00000
    224       0.7363      0.00000
    225       0.7372      0.00000
    226       0.7722      0.00000
    227       0.8380      0.00000
    228       0.9438      0.00000
    229       0.9726      0.00000
    230       0.9755      0.00000
    231       0.9784      0.00000
    232       0.9834      0.00000
    233       1.0064      0.00000
    234       1.0625      0.00000
    235       1.0654      0.00000
    236       1.0849      0.00000
    237       1.0876      0.00000
    238       1.0981      0.00000
    239       1.1024      0.00000
    240       1.2375      0.00000
    241       1.5436      0.00000
    242       1.5476      0.00000
    243       1.5622      0.00000
    244       1.5741      0.00000
    245       1.5791      0.00000
    246       1.5906      0.00000
    247       1.5912      0.00000
    248       1.5937      0.00000
    249       1.5964      0.00000
    250       1.6020      0.00000
    251       1.6037      0.00000
    252       1.6122      0.00000
    253       1.6275      0.00000
    254       1.6404      0.00000
    255       1.6950      0.00000
    256       1.7087      0.00000
    257       1.7241      0.00000
    258       1.7426      0.00000
    259       1.7474      0.00000
    260       1.7510      0.00000
    261       1.7713      0.00000
    262       1.7875      0.00000
    263       1.8075      0.00000
    264       1.8203      0.00000
    265       1.8393      0.00000
    266       1.8932      0.00000
    267       2.0267      0.00000
    268       2.0590      0.00000
    269       2.0663      0.00000
    270       2.1533      0.00000
    271       2.1586      0.00000
    272       2.2266      0.00000

 k-point     2 :       0.3333    0.0000    0.0000
  band No.  band energies     occupation 
      1     -35.8137      1.00000
      2     -34.5427      1.00000
      3     -33.8142      1.00000
      4     -33.4955      1.00000
      5     -33.3537      1.00000
      6     -32.9823      1.00000
      7     -32.2876      1.00000
      8     -27.6357      1.00000
      9     -25.4618      1.00000
     10     -24.6716      1.00000
     11     -24.4876      1.00000
     12     -24.3085      1.00000
     13     -24.3018      1.00000
     14     -23.9538      1.00000
     15     -23.9498      1.00000
     16     -23.7779      1.00000
     17     -23.6112      1.00000
     18     -23.6067      1.00000
     19     -23.2829      1.00000
     20     -23.1235      1.00000
     21     -23.1215      1.00000
     22     -22.9727      1.00000
     23     -22.9705      1.00000
     24     -22.6710      1.00000
     25     -22.6666      1.00000
     26     -22.4178      1.00000
     27     -22.4156      1.00000
     28     -22.1870      1.00000
     29     -22.1452      1.00000
     30     -22.1411      1.00000
     31     -22.0516      1.00000
     32     -22.0492      1.00000
     33     -21.7555      1.00000
     34     -21.7000      1.00000
     35     -21.6995      1.00000
     36     -21.6363      1.00000
     37     -21.6343      1.00000
     38     -21.5967      1.00000
     39     -21.5946      1.00000
     40     -21.4529      1.00000
     41     -21.3853      1.00000
     42     -21.3805      1.00000
     43     -21.3318      1.00000
     44     -21.3292      1.00000
     45     -21.0934      1.00000
     46     -21.0912      1.00000
     47     -19.4887      1.00000
     48     -17.7047      1.00000
     49     -16.2765      1.00000
     50     -16.1642      1.00000
     51     -16.1435      1.00000
     52     -15.2501      1.00000
     53     -15.1991      1.00000
     54     -15.1815      1.00000
     55     -15.1803      1.00000
     56     -15.0136      1.00000
     57     -14.8956      1.00000
     58     -14.8846      1.00000
     59     -14.8807      1.00000
     60     -14.8748      1.00000
     61     -14.8728      1.00000
     62     -14.5025      1.00000
     63     -14.5019      1.00000
     64     -14.3655      1.00000
     65     -14.3649      1.00000
     66     -14.2854      1.00000
     67     -14.2663      1.00000
     68     -14.1751      1.00000
     69     -14.1743      1.00000
     70     -14.0271      1.00000
     71     -14.0266      1.00000
     72     -13.7593      1.00000
     73     -13.7583      1.00000
     74     -13.6699      1.00000
     75     -13.6667      1.00000
     76     -13.1582      1.00000
     77     -13.1576      1.00000
     78     -12.7548      1.00000
     79     -12.7511      1.00000
     80     -12.6588      1.00000
     81     -12.6326      1.00000
     82     -12.6243      1.00000
     83     -12.5277      1.00000
     84     -12.4326      1.00000
     85     -12.4078      1.00000
     86     -12.4068      1.00000
     87     -12.0862      1.00000
     88     -12.0851      1.00000
     89     -12.0763      1.00000
     90     -12.0670      1.00000
     91     -12.0665      1.00000
     92     -12.0131      1.00000
     93     -11.9641      1.00000
     94     -11.8803      1.00000
     95     -11.7242      1.00000
     96     -11.7221      1.00000
     97     -11.5132      1.00000
     98     -11.4179      1.00000
     99     -11.3361      1.00000
    100     -11.2400      1.00000
    101     -11.2382      1.00000
    102     -11.1120      1.00000
    103     -11.0701      1.00000
    104     -10.9935      1.00000
    105     -10.9681      1.00000
    106     -10.9611      1.00000
    107     -10.9592      1.00000
    108     -10.9524      1.00000
    109     -10.9491      1.00000
    110     -10.8521      1.00000
    111     -10.8194      1.00000
    112     -10.7929      1.00000
    113     -10.7533      1.00000
    114     -10.7522      1.00000
    115     -10.7511      1.00000
    116     -10.7492      1.00000
    117     -10.7338      1.00000
    118     -10.5179      1.00000
    119     -10.5024      1.00000
    120     -10.5021      1.00000
    121     -10.4663      1.00000
    122     -10.3959      1.00000
    123     -10.3664      1.00000
    124     -10.3335      1.00000
    125     -10.2660      1.00000
    126     -10.1775      1.00000
    127     -10.1731      1.00000
    128     -10.1606      1.00000
    129     -10.1112      1.00000
    130     -10.1101      1.00000
    131     -10.0720      1.00000
    132     -10.0678      1.00000
    133      -9.9508      1.00000
    134      -9.9497      1.00000
    135      -9.8971      1.00000
    136      -9.8747      1.00000
    137      -9.7375      1.00000
    138      -9.7361      1.00000
    139      -9.4471      1.00000
    140      -9.3940      1.00000
    141      -9.3903      1.00000
    142      -9.3423      1.00000
    143      -9.2939      1.00000
    144      -9.2247      1.00000
    145      -9.2089      1.00000
    146      -9.0635      1.00000
    147      -9.0607      1.00000
    148      -9.0139      1.00000
    149      -9.0059      1.00000
    150      -8.8611      1.00000
    151      -8.7531      1.00000
    152      -8.7518      1.00000
    153      -8.5968      1.00000
    154      -8.5901      1.00000
    155      -8.4476      1.00000
    156      -8.2373      1.00000
    157      -8.2347      1.00000
    158      -8.2329      1.00000
    159      -8.2248      1.00000
    160      -7.8951      1.00000
    161      -7.8922      1.00000
    162      -7.8417      1.00000
    163      -7.8359      1.00000
    164      -7.7074      1.00000
    165      -7.7011      1.00000
    166      -7.6949      1.00000
    167      -7.5590      1.00000
    168      -7.2436      1.00000
    169      -7.1800      1.00000
    170      -7.1767      1.00000
    171      -7.0667      1.00000
    172      -7.0630      1.00000
    173      -6.9990      1.00000
    174      -6.9966      1.00000
    175      -6.6814      1.00000
    176      -6.6755      1.00000
    177      -6.6635      1.00000
    178      -6.6020      1.00000
    179      -6.5923      1.00000
    180      -6.2378      1.00000
    181      -6.2136      1.00000
    182      -6.2074      1.00000
    183      -6.1024      1.00000
    184      -0.8992      0.00000
    185      -0.8350      0.00000
    186      -0.6794      0.00000
    187      -0.6778      0.00000
    188      -0.6095      0.00000
    189      -0.6034      0.00000
    190      -0.5781      0.00000
    191      -0.5624      0.00000
    192      -0.5481      0.00000
    193      -0.4058      0.00000
    194      -0.4028      0.00000
    195      -0.3589      0.00000
    196      -0.3322      0.00000
[...]
   -.360E+01 -.352E+01 0.797E+02   0.362E+01 0.365E+01 -.786E+02   0.132E-01 -.171E-01 -.127E+00   -.649E-06 0.836E-05 -.202E-03
   0.531E+01 0.111E+02 0.863E+02   -.542E+01 -.105E+02 -.851E+02   0.200E-01 -.169E-01 -.157E-01   -.179E-04 0.410E-04 -.947E-04
   -.141E+02 0.324E+02 0.103E+03   0.134E+02 -.315E+02 -.101E+03   0.824E-01 -.533E-01 -.138E+00   -.782E-04 0.112E-03 -.764E-04
   -.468E+02 0.338E+02 0.118E+03   0.457E+02 -.335E+02 -.116E+03   0.110E+00 -.608E-01 -.122E+00   -.870E-04 0.144E-04 -.788E-04
   -.553E+02 0.139E+02 0.112E+03   0.546E+02 -.141E+02 -.110E+03   0.630E-01 -.149E-01 -.795E-01   -.635E-04 -.351E-04 -.158E-03
   -.322E+02 -.312E+01 0.912E+02   0.320E+02 0.294E+01 -.901E+02   0.256E-01 0.170E-01 -.101E+00   0.530E-05 0.107E-04 -.217E-03
   -.125E+02 -.116E+03 -.418E+03   0.116E+02 0.106E+03 0.413E+03   0.718E+00 0.878E+01 0.433E+01   -.578E-04 0.800E-03 0.234E-03
   -.345E+01 -.800E+01 -.376E+03   0.240E+01 0.535E+01 0.387E+03   0.869E+00 0.108E+01 -.108E+02   -.786E-04 0.704E-04 -.104E-02
   0.188E+02 0.132E+03 -.412E+03   -.198E+02 -.140E+03 0.400E+03   0.729E+00 0.583E+01 0.117E+02   -.205E-03 -.230E-03 0.105E-02
   0.241E+02 0.167E+03 -.383E+03   -.242E+02 -.169E+03 0.384E+03   -.792E-01 -.538E+00 -.769E+00   -.572E-03 -.114E-02 -.480E-03
   0.466E+03 -.366E+03 -.101E+04   -.516E+03 0.378E+03 0.104E+04   0.489E+02 -.136E+02 -.291E+02   -.213E-02 0.732E-03 0.127E-02
   -.475E+03 -.249E+03 -.109E+04   0.520E+03 0.248E+03 0.113E+04   -.449E+02 -.198E+01 -.374E+02   0.162E-02 0.451E-03 0.163E-02
   -.101E+03 -.582E+03 -.375E+03   0.110E+03 0.622E+03 0.335E+03   -.847E+01 -.408E+02 0.397E+02   0.163E-03 0.172E-02 -.141E-02
   0.446E+03 -.712E+02 -.237E+03   -.490E+03 0.713E+02 0.202E+03   0.423E+02 -.283E+01 0.365E+02   -.239E-02 0.147E-03 -.204E-02
   -.516E+03 0.411E+02 -.303E+03   0.562E+03 -.516E+02 0.274E+03   -.464E+02 0.742E+01 0.304E+02   0.204E-02 -.334E-03 -.172E-02
   -.424E+03 0.223E+03 -.112E+04   0.466E+03 -.231E+03 0.115E+04   -.414E+02 0.532E+01 -.317E+02   0.161E-02 -.536E-03 0.171E-02
   0.478E+03 0.903E+02 -.111E+04   -.522E+03 -.854E+02 0.114E+04   0.420E+02 -.740E+01 -.304E+02   -.242E-02 0.548E-04 0.181E-02
   0.407E+03 0.311E+03 -.478E+03   -.457E+03 -.325E+03 0.468E+03   0.480E+02 0.117E+02 0.107E+02   -.254E-02 -.974E-03 -.522E-03
   -.306E+03 0.406E+03 -.464E+03   0.350E+03 -.432E+03 0.452E+03   -.430E+02 0.232E+02 0.125E+02   0.151E-02 -.145E-02 -.554E-03
 -----------------------------------------------------------------------------------------------
   0.980E+00 0.382E+01 -.560E+01   0.682E-12 0.568E-13 0.153E-11   -.598E+00 -.405E+01 0.554E+01   -.349E-02 -.595E-03 -.129E-02
 
 
 POSITION                                       TOTAL-FORCE (eV/Angst)
 -----------------------------------------------------------------------------------
      1.25445     -0.72448     17.56403        -0.003197      0.013225     -0.001243
      2.51044      1.45176     17.54909        -0.009950     -0.009567     -0.013949
      3.76681      3.62700     17.55211        -0.004120     -0.003314     -0.012669
      5.02240      5.80227     17.57209         0.008797      0.007035     -0.010501
      6.27871      7.97787     17.58046        -0.001686      0.008916     -0.016105
      7.53461     10.15395     17.57482         0.002361     -0.004081      0.001096
      2.51154     -2.89932     17.56365        -0.014716      0.000484      0.006020
      3.76751     -0.72413     17.52276        -0.004147     -0.003354      0.001613
      5.02314      1.45072     17.48841         0.004951      0.010364     -0.008880
      6.27917      3.62659     17.52729        -0.015806      0.007046      0.001267
      7.53499      5.80263     17.56707        -0.009768      0.002562      0.011482
      8.79116      7.97897     17.58203         0.003059     -0.002221     -0.019201
      3.76760     -5.07350     17.57010        -0.012715     -0.017140     -0.007374
      5.02470     -2.89813     17.52824         0.013992     -0.004651      0.000051
      6.27933     -0.72374     17.47324        -0.018926      0.000649      0.000630
      7.53381      1.45084     17.46313         0.000910      0.000288     -0.001279
      8.78975      3.62680     17.53419         0.018763     -0.002195      0.005596
     10.04689      5.80343     17.57479         0.004780     -0.003148     -0.006698
      5.02239     -7.24931     17.57052         0.006460     -0.016139     -0.011262
      6.27921     -5.07251     17.53647         0.002992     -0.006568      0.006343
      7.53516     -2.89867     17.51249        -0.003203     -0.010964     -0.009160
      8.78920     -0.72423     17.48828         0.018000     -0.002020     -0.024642
     10.04502      1.45082     17.51182        -0.001511      0.007240      0.012943
     11.30247      3.62727     17.56170        -0.005635      0.000682      0.002884
      6.27768     -9.42613     17.57336         0.011518      0.002570     -0.009484
      7.53451     -7.25000     17.55749        -0.000890     -0.000334      0.009846
      8.79060     -5.07322     17.53538         0.008161     -0.009873      0.004758
     10.04507     -2.90005     17.52816        -0.007765      0.007292      0.002458
     11.30101     -0.72477     17.53612         0.014405     -0.004138      0.004839
     12.55814      1.45129     17.56196        -0.005557     -0.001127     -0.001030
      7.53347    -11.60218     17.57313         0.023221     -0.004916     -0.007861
      8.79040     -9.42655     17.56957         0.001350      0.002342     -0.004399
     10.04664     -7.25087     17.56887         0.001727      0.009500     -0.013741
     11.30284     -5.07511     17.56708        -0.004815     -0.006510     -0.003056
     12.55844     -2.90016     17.56333         0.004867      0.002073      0.011332
     13.81443     -0.72465     17.56784         0.000445      0.003740     -0.000799
      1.25353      0.72651     17.56414         0.007653      0.000331      0.005178
      2.51019      2.90238     17.55867        -0.004030     -0.012668      0.003421
      3.76624      5.07718     17.57138         0.009588      0.006271     -0.012053
      5.02268      7.25280     17.57939        -0.000963     -0.002690     -0.006130
      6.27859      9.42839     17.57550         0.001666      0.002819      0.004127
      7.53440     11.60427     17.57147         0.001708      0.005537     -0.002377
      2.51046     -1.44914     17.55367         0.000062      0.009914     -0.011918
      3.76574      0.72679     17.51705         0.012939     -0.001235      0.010070
      5.02248      2.90208     17.51937         0.003469     -0.006020      0.011475
      6.27887      5.07733     17.55945        -0.004458     -0.002815     -0.002058
      7.53502      7.25307     17.58064         0.003447      0.002502      0.003653
      8.79104      9.42946     17.57624         0.002008     -0.014371      0.007483
      3.76716     -3.62374     17.55846         0.005620     -0.001405     -0.003402
      5.02226     -1.44804     17.50051         0.005438     -0.004421     -0.011544
      6.27735      0.72730     17.43535         0.003160     -0.007526      0.019488
      7.53438      2.90184     17.50489         0.000547     -0.001101     -0.022353
      8.79073      5.07756     17.56102         0.003758      0.001491      0.008265
     10.04746      7.25416     17.58218        -0.007513     -0.011550     -0.007187
      5.02294     -5.79934     17.56264        -0.006541     -0.006643     -0.010712
      6.27885     -3.62439     17.51003         0.004976      0.000506      0.007484
      7.53449     -1.44830     17.48475        -0.003135      0.004208      0.004406
      8.79010      0.72708     17.46313        -0.000353      0.001035      0.002585
     10.04629      2.90223     17.53639         0.001489     -0.010518     -0.001012
     11.30296      5.07801     17.57503        -0.005555      0.001408     -0.010514
      6.27810     -7.97578     17.56654         0.003210      0.005076      0.008848
      7.53475     -5.80030     17.53732         0.000479      0.003751      0.022583
      8.79123     -3.62527     17.50824        -0.007537      0.002549     -0.002712
     10.04621     -1.44941     17.51184         0.007654      0.014390      0.009434
     11.30237      0.72653     17.53947        -0.021107     -0.011449     -0.005258
     12.55858      2.90185     17.56872        -0.006859      0.006501     -0.005237
      7.53373    -10.15151     17.57632         0.013016     -0.009565     -0.009539
      8.79048     -7.97635     17.56609        -0.001046      0.007277      0.001758
     10.04704     -5.80074     17.56102        -0.005410      0.006596     -0.011589
     11.30298     -3.62507     17.55623        -0.011550      0.000743     -0.007134
     12.55865     -1.44972     17.55797        -0.010392      0.009721     -0.006118
     13.81412      0.72605     17.57119         0.012561      0.000932     -0.004077
      7.86800      1.76309     21.85413        -0.002246     -0.004927      0.021495
      7.76147      0.38873     21.16244         0.008233     -0.004397     -0.004913
      7.55527     -0.85226     22.04028        -0.005518      0.003171      0.001450
      7.36670     -2.16849     21.20708         0.024746     -0.023714     -0.007795
      6.74522      2.06635     22.51896        -0.018279      0.010111     -0.003071
      8.89882      1.79722     22.70931         0.013987      0.006509      0.021799
      8.06706      2.70817     20.91678         0.005705      0.018360     -0.011079
      6.71911      0.48149     20.29432        -0.025640      0.007234     -0.007987
      8.90599      0.22968     20.44672         0.015769     -0.002192      0.009585
      8.63880     -0.94309     22.87599         0.014795      0.005064      0.035976
      6.46994     -0.60854     22.84258        -0.015017      0.011008      0.006984
      6.18263     -2.45387     20.95681        -0.037973      0.001669      0.028896
      8.43227     -2.73942     20.91117        -0.012907      0.008774      0.031500
 -----------------------------------------------------------------------------------
    total drift:                                0.378605     -0.227750     -0.068191


--------------------------------------------------------------------------------------------------------



  FREE ENERGIE OF THE ION-ELECTRON SYSTEM (eV)
  ---------------------------------------------------
  free  energy   TOTEN  =      -798.66852246 eV

  energy  without entropy=     -798.66852246  energy(sigma->0) =     -798.66852246
 


--------------------------------------------------------------------------------------------------------


    POTLOK:  cpu time   24.5812: real time   24.6343


--------------------------------------------------------------------------------------------------------




--------------------------------------------------------------------------------------------------------


  
 reached required accuracy - stopping structural energy minimisation
 writing wavefunctions
     LOOP+:  cpu time 1921.8442: real time 1975.3931
    4ORBIT:  cpu time    0.0000: real time    0.0000
 


 total charge     
 
# of ion       s       p       d       tot
------------------------------------------
    1        0.744   1.393   0.000   2.137
    2        0.744   1.393   0.000   2.137
    3        0.744   1.394   0.000   2.138
    4        0.744   1.393   0.000   2.137
    5        0.744   1.394   0.000   2.138
    6        0.744   1.394   0.000   2.138
    7        0.744   1.394   0.000   2.138
    8        0.744   1.394   0.000   2.138
    9        0.744   1.394   0.000   2.137
   10        0.744   1.394   0.000   2.138
   11        0.744   1.394   0.000   2.138
   12        0.744   1.393   0.000   2.137
   13        0.744   1.394   0.000   2.138
   14        0.744   1.392   0.000   2.135
   15        0.744   1.392   0.000   2.136
   16        0.744   1.394   0.000   2.137
   17        0.744   1.394   0.000   2.138
   18        0.744   1.393   0.000   2.137
   19        0.744   1.393   0.000   2.137
   20        0.744   1.394   0.000   2.138
   21        0.743   1.389   0.000   2.132
   22        0.744   1.393   0.000   2.136
   23        0.744   1.393   0.000   2.136
   24        0.744   1.393   0.000   2.137
   25        0.744   1.394   0.000   2.138
   26        0.744   1.393   0.000   2.137
   27        0.744   1.394   0.000   2.138
   28        0.744   1.393   0.000   2.137
   29        0.744   1.393   0.000   2.137
   30        0.744   1.394   0.000   2.138
   31        0.744   1.393   0.000   2.137
   32        0.744   1.394   0.000   2.137
   33        0.744   1.394   0.000   2.138
   34        0.744   1.394   0.000   2.138
   35        0.744   1.394   0.000   2.138
   36        0.744   1.394   0.000   2.138
   37        1.238   2.821   0.000   4.059
   38        1.238   2.821   0.000   4.059
   39        1.238   2.822   0.000   4.060
   40        1.238   2.821   0.000   4.059
   41        1.238   2.821   0.000   4.059
   42        1.238   2.821   0.000   4.059
   43        1.238   2.821   0.000   4.059
   44        1.238   2.821   0.000   4.059
   45        1.238   2.821   0.000   4.059
   46        1.238   2.821   0.000   4.059
   47        1.238   2.821   0.000   4.059
   48        1.238   2.821   0.000   4.059
   49        1.238   2.821   0.000   4.059
   50        1.238   2.822   0.000   4.060
   51        1.238   2.823   0.000   4.061
   52        1.238   2.821   0.000   4.059
   53        1.238   2.821   0.000   4.059
   54        1.238   2.821   0.000   4.059
   55        1.238   2.821   0.000   4.059
   56        1.238   2.823   0.000   4.061
   57        1.238   2.822   0.000   4.060
   58        1.238   2.822   0.000   4.060
   59        1.238   2.820   0.000   4.058
   60        1.238   2.821   0.000   4.059
   61        1.238   2.821   0.000   4.059
   62        1.238   2.821   0.000   4.059
   63        1.238   2.823   0.000   4.061
   64        1.238   2.821   0.000   4.059
   65        1.238   2.821   0.000   4.058
   66        1.238   2.822   0.000   4.060
   67        1.238   2.821   0.000   4.059
   68        1.238   2.821   0.000   4.059
   69        1.238   2.821   0.000   4.059
   70        1.238   2.821   0.000   4.059
   71        1.238   2.821   0.000   4.059
   72        1.238   2.822   0.000   4.060
   73        0.818   1.561   0.000   2.379
   74        0.836   1.605   0.000   2.442
   75        0.839   1.577   0.000   2.416
   76        0.874   1.718   0.000   2.593
   77        1.758   4.414   0.000   6.172
   78        1.758   4.414   0.000   6.172
   79        1.758   4.409   0.000   6.167
   80        1.758   4.400   0.000   6.158
   81        1.757   4.400   0.000   6.158
   82        1.755   4.404   0.000   6.159
   83        1.755   4.404   0.000   6.159
   84        1.586   3.594   0.000   5.180
   85        1.586   3.592   0.000   5.178
--------------------------------------------------
tot         90.185 196.224   0.000 286.408
 


 magnetization (x)
 
# of ion       s       p       d       tot
------------------------------------------
    1       -0.000  -0.000   0.000  -0.000
    2       -0.000  -0.000   0.000  -0.000
    3       -0.000  -0.000   0.000  -0.000
    4       -0.000  -0.000   0.000  -0.000
    5       -0.000   0.000   0.000   0.000
    6       -0.000  -0.000   0.000  -0.000
    7       -0.000  -0.000   0.000  -0.000
    8       -0.000  -0.000   0.000  -0.000
    9       -0.000  -0.000   0.000  -0.000
   10       -0.000  -0.000   0.000  -0.000
   11       -0.000  -0.000   0.000  -0.000
   12       -0.000  -0.000   0.000  -0.000
   13        0.000   0.000   0.000   0.000
   14       -0.000  -0.000   0.000  -0.000
   15       -0.000  -0.000   0.000  -0.000
   16       -0.000  -0.000   0.000  -0.000
   17       -0.000  -0.000   0.000  -0.000
   18        0.000  -0.000   0.000  -0.000
   19        0.000  -0.000   0.000  -0.000
   20       -0.000  -0.000   0.000  -0.000
   21       -0.000  -0.000   0.000  -0.000
   22       -0.000   0.000   0.000   0.000
   23       -0.000  -0.000   0.000  -0.000
   24       -0.000   0.000   0.000   0.000
   25        0.000   0.000   0.000   0.000
   26        0.000   0.000   0.000   0.000
   27       -0.000  -0.000   0.000  -0.000
   28        0.000  -0.000   0.000  -0.000
   29       -0.000   0.000   0.000  -0.000
   30       -0.000   0.000   0.000  -0.000
   31        0.000  -0.000   0.000  -0.000
   32       -0.000  -0.000   0.000  -0.000
   33        0.000  -0.000   0.000  -0.000
   34        0.000  -0.000   0.000  -0.000
   35        0.000   0.000   0.000   0.000
   36       -0.000  -0.000   0.000  -0.000
   37        0.000   0.000   0.000   0.000
   38        0.000   0.000   0.000   0.000
   39        0.000   0.000   0.000   0.000
   40        0.000   0.000   0.000   0.000
   41       -0.000  -0.000   0.000  -0.000
   42        0.000   0.000   0.000   0.000
   43        0.000   0.000   0.000   0.000
   44        0.000   0.000   0.000   0.000
   45        0.000   0.000   0.000   0.000
   46        0.000  -0.000   0.000  -0.000
   47        0.000  -0.000   0.000  -0.000
   48        0.000  -0.000   0.000  -0.000
   49        0.000  -0.000   0.000  -0.000
   50        0.000  -0.000   0.000  -0.000
   51        0.000   0.000   0.000   0.000
   52        0.000   0.000   0.000   0.000
   53        0.000   0.000   0.000   0.000
   54        0.000   0.000   0.000   0.000
   55        0.000  -0.000   0.000  -0.000
   56        0.000   0.000   0.000   0.000
   57        0.000  -0.000   0.000  -0.000
   58        0.000  -0.000   0.000  -0.000
   59       -0.000  -0.000   0.000  -0.000
   60        0.000  -0.000   0.000  -0.000
   61       -0.000  -0.000   0.000  -0.000
   62        0.000   0.000   0.000   0.000
   63       -0.000  -0.000   0.000  -0.000
   64       -0.000   0.000   0.000   0.000
   65        0.000  -0.000   0.000  -0.000
   66        0.000  -0.000   0.000  -0.000
   67        0.000  -0.000   0.000  -0.000
   68        0.000   0.000   0.000   0.000
   69        0.000   0.000   0.000   0.000
   70        0.000   0.000   0.000   0.000
   71        0.000  -0.000   0.000  -0.000
   72        0.000   0.000   0.000   0.000
   73       -0.000   0.000   0.000   0.000
   74        0.000   0.000   0.000   0.000
   75        0.000   0.000   0.000   0.000
   76        0.000   0.000   0.000   0.000
   77        0.000  -0.000   0.000  -0.000
   78       -0.000  -0.000   0.000  -0.000
   79        0.000  -0.000   0.000  -0.000
   80        0.000  -0.000   0.000  -0.000
   81        0.000  -0.000   0.000  -0.000
   82       -0.000  -0.000   0.000  -0.000
   83       -0.000  -0.000   0.000  -0.000
   84        0.000  -0.000   0.000  -0.000
   85       -0.000  -0.000   0.000  -0.000
--------------------------------------------------
tot          0.000  -0.000   0.000  -0.000
 

 total amount of memory used by VASP MPI-rank0   220819. kBytes
=======================================================================

   base      :      30000. kBytes
   nonlr-proj:      10840. kBytes
   fftplans  :      17498. kBytes
   grid      :      70152. kBytes
   one-center:         24. kBytes
   wavefun   :      92305. kBytes
 
  
  
 General timing and accounting informations for this job:
 ========================================================
  
                  Total CPU time used (sec):     2164.560
                            User time (sec):     2035.936
                          System time (sec):      128.624
                         Elapsed time (sec):     2231.786
  
                   Maximum memory used (kb):      665344.
                   Average memory used (kb):           0.
  
                          Minor page faults:       486757
                          Major page faults:          157
                 Voluntary context switches:        21679
