Job started on bc4u17n1 at Wed Jan  5 18:19:08 CST 2022
 argument  1 = mol.nw
 


============================== echo of input deck ==============================
echo
start mol
title "mol"

geometry nocenter noautosym noautoz
  load mol.xyz
end

charge 1

basis noprint
  * library aug-cc-pVDZ
end

scf
  tol2e 1d-9
  uhf
  doublet
  vectors output hBN_q1.movecs
end

task scf
================================================================================


                                         
                                         
 
 
              Northwest Computational Chemistry Package (NWChem) 6.8
              ------------------------------------------------------
 
 
                    Environmental Molecular Sciences Laboratory
                       Pacific Northwest National Laboratory
                                Richland, WA 99352
 
                              Copyright (c) 1994-2017
                       Pacific Northwest National Laboratory
                            Battelle Memorial Institute
 
             NWChem is an open-source computational chemistry package
                        distributed under the terms of the
                      Educational Community License (ECL) 2.0
             A copy of the license is included with this distribution
                              in the LICENSE.TXT file
 
                                  ACKNOWLEDGMENT
                                  --------------

            This software and its documentation were developed at the
            EMSL at Pacific Northwest National Laboratory, a multiprogram
            national laboratory, operated for the U.S. Department of Energy
            by Battelle under Contract Number DE-AC05-76RL01830. Support
            for this work was provided by the Department of Energy Office
            of Biological and Environmental Research, Office of Basic
            Energy Sciences, and the Office of Advanced Scientific Computing.


           Job information
           ---------------

    hostname        = bc4u17n1
    program         = /opt/apps/software/MPI/intel/2019.3.199-GCC-8.3.0/impi/2019.4.243/NWChem/6.8.revision47/bin/nwchem
    date            = Wed Jan  5 18:19:10 2022

    compiled        = Sat Jan 11 14:38:06 CST 2020
    source          = /tmp/eb-_UtWhd/tmp6zSplu-NWChem-6.8.revision47
    nwchem branch   = 6.8
    nwchem revision = v6.8-47-gdf6c956
    ga revision     = ga-5.6.3
    use scalapack   = T
    input           = mol.nw
    prefix          = mol.
    data base       = ./mol.db
    status          = startup
    nproc           =      184
    time left       =     -1s



           Memory information
           ------------------

    heap     =  130136320 doubles =    992.9 Mbytes
    stack    =  130136317 doubles =    992.9 Mbytes
    global   =  260272640 doubles =   1985.7 Mbytes (distinct from heap & stack)
    total    =  520545277 doubles =   3971.4 Mbytes
    verify   = yes
    hardfail = no 


           Directory information
           ---------------------
 
  0 permanent = .
  0 scratch   = .
 
 
 
 
                                NWChem Input Module
                                -------------------
 
 
                                        mol
                                        ---

 Scaling coordinates for geometry "geometry" by  1.889725989
 (inverse scale =  0.529177249)

 
 
                             Geometry "geometry" -> ""
                             -------------------------
 
 Output coordinates in angstroms (scale by  1.889725989 to convert to a.u.)
 
  No.       Tag          Charge          X              Y              Z
 ---- ---------------- ---------- -------------- -------------- --------------
    1 B                    5.0000     1.22482770     0.70544183     1.66529624
    2 B                    5.0000     2.49140751     2.87636472     1.66529684
    3 B                    5.0000     3.74530248     5.04643127     1.66529433
    4 B                    5.0000     5.00798132     7.21225089     1.66530404
    5 B                    5.0000     2.48158570    -1.47534515     1.66529866
    6 B                    5.0000     3.74880085     0.70058716     1.66530343
    7 B                    5.0000     5.00798111     2.87350095     1.66530096
    8 B                    5.0000     6.27065482     5.04643257     1.66529704
    9 B                    5.0000     3.74173256    -3.65700657     1.66530600
   10 B                    5.0000     5.00798045    -1.47635644     1.66530790
   11 B                    5.0000     6.26716131     0.70058546     1.66530136
   12 B                    5.0000     7.52455436     2.87636666     1.66530766
   13 B                    5.0000     5.00797940    -5.84681900     1.66529448
   14 B                    5.0000     6.27422590    -3.65700672     1.66530167
   15 B                    5.0000     7.53437664    -1.47534786     1.66530437
   16 B                    5.0000     8.79113364     0.70544180     1.66529219
   17 N                    7.0000     1.24878696    -0.71397687     1.66529781
   18 N                    7.0000     2.48509243     1.43891551     1.66530106
   19 N                    7.0000     3.74546531     3.60800576     1.66530124
   20 N                    7.0000     5.00797787     5.78068557     1.66529559
   21 N                    7.0000     2.50945823    -2.90507739     1.66529702
   22 N                    7.0000     3.74755820    -0.74286156     1.66530094
   23 N                    7.0000     5.00798147     1.43124948     1.66530927
   24 N                    7.0000     6.27049563     3.60800730     1.66530058
   25 N                    7.0000     3.77188790    -5.08906435     1.66530437
   26 N                    7.0000     5.00797972    -2.92141036     1.66529887
   27 N                    7.0000     6.26840359    -0.74286417     1.66530059
   28 N                    7.0000     7.53086976     1.43891652     1.66530089
   29 N                    7.0000     5.00797953    -7.26663556     1.66530202
   30 N                    7.0000     6.24407118    -5.08906408     1.66529669
   31 N                    7.0000     7.50650196    -2.90507974     1.66529569
   32 N                    7.0000     8.76717448    -0.71397695     1.66530061
   33 H                    1.0000     0.36401055    -1.21981506     1.66529440
   34 H                    1.0000     1.62497219    -3.41050414     1.66530022
   35 H                    1.0000     2.88694651    -5.59241304     1.66530416
   36 H                    1.0000     5.86055485    -7.80962460     1.66530090
   37 H                    1.0000     4.15540858    -7.80963161     1.66530098
   38 H                    1.0000     7.12901467    -5.59240929     1.66530035
   39 H                    1.0000     8.39098651    -3.41050936     1.66529782
   40 H                    1.0000     9.65195205    -1.21981326     1.66529971
   41 H                    1.0000     0.18561928     1.30829811     1.66529886
   42 H                    1.0000     1.45596981     3.48444781     1.66529922
   43 H                    1.0000     2.70954649     5.65233982     1.66530124
   44 H                    1.0000     6.05516170     7.80821383     1.66530147
   45 H                    1.0000     3.96081310     7.80824008     1.66530303
   46 H                    1.0000     7.30641358     5.65233594     1.66529968
   47 H                    1.0000     8.55999109     3.48445080     1.66530294
   48 H                    1.0000     9.83034396     1.30829946     1.66530119
 
      Atomic Mass 
      ----------- 
 
      B                 11.009310
      N                 14.003070
      H                  1.007825
 

 Effective nuclear repulsion energy (a.u.)    2751.5507348932

            Nuclear Dipole moment (a.u.) 
            ----------------------------
        X                 Y               Z
 ---------------- ---------------- ----------------
  1968.4518281522   -49.6432961539   654.5679455320
 
 
            XYZ format geometry
            -------------------
    48
 geometry
 B                     1.22482770     0.70544183     1.66529624
 B                     2.49140751     2.87636472     1.66529684
 B                     3.74530248     5.04643127     1.66529433
 B                     5.00798132     7.21225089     1.66530404
 B                     2.48158570    -1.47534515     1.66529866
 B                     3.74880085     0.70058716     1.66530343
 B                     5.00798111     2.87350095     1.66530096
 B                     6.27065482     5.04643257     1.66529704
 B                     3.74173256    -3.65700657     1.66530600
 B                     5.00798045    -1.47635644     1.66530790
 B                     6.26716131     0.70058546     1.66530136
 B                     7.52455436     2.87636666     1.66530766
 B                     5.00797940    -5.84681900     1.66529448
 B                     6.27422590    -3.65700672     1.66530167
 B                     7.53437664    -1.47534786     1.66530437
 B                     8.79113364     0.70544180     1.66529219
 N                     1.24878696    -0.71397687     1.66529781
 N                     2.48509243     1.43891551     1.66530106
 N                     3.74546531     3.60800576     1.66530124
 N                     5.00797787     5.78068557     1.66529559
 N                     2.50945823    -2.90507739     1.66529702
 N                     3.74755820    -0.74286156     1.66530094
 N                     5.00798147     1.43124948     1.66530927
 N                     6.27049563     3.60800730     1.66530058
 N                     3.77188790    -5.08906435     1.66530437
 N                     5.00797972    -2.92141036     1.66529887
 N                     6.26840359    -0.74286417     1.66530059
 N                     7.53086976     1.43891652     1.66530089
 N                     5.00797953    -7.26663556     1.66530202
 N                     6.24407118    -5.08906408     1.66529669
 N                     7.50650196    -2.90507974     1.66529569
 N                     8.76717448    -0.71397695     1.66530061
 H                     0.36401055    -1.21981506     1.66529440
 H                     1.62497219    -3.41050414     1.66530022
 H                     2.88694651    -5.59241304     1.66530416
 H                     5.86055485    -7.80962460     1.66530090
 H                     4.15540858    -7.80963161     1.66530098
 H                     7.12901467    -5.59240929     1.66530035
 H                     8.39098651    -3.41050936     1.66529782
 H                     9.65195205    -1.21981326     1.66529971
 H                     0.18561928     1.30829811     1.66529886
 H                     1.45596981     3.48444781     1.66529922
 H                     2.70954649     5.65233982     1.66530124
 H                     6.05516170     7.80821383     1.66530147
 H                     3.96081310     7.80824008     1.66530303
 H                     7.30641358     5.65233594     1.66529968
 H                     8.55999109     3.48445080     1.66530294
 H                     9.83034396     1.30829946     1.66530119
 
 ==============================================================================
                                internuclear distances
 ------------------------------------------------------------------------------
       center one      |      center two      | atomic units |  angstroms
 ------------------------------------------------------------------------------
   17 N                |   1 B                |     2.68269  |     1.41962
   17 N                |   5 B                |     2.73813  |     1.44896
   18 N                |   1 B                |     2.75554  |     1.45817
   18 N                |   2 B                |     2.71641  |     1.43746
   18 N                |   6 B                |     2.76578  |     1.46359
   19 N                |   2 B                |     2.74366  |     1.45188
   19 N                |   3 B                |     2.71823  |     1.43843
   19 N                |   7 B                |     2.76019  |     1.46063
   20 N                |   3 B                |     2.76022  |     1.46064
   20 N                |   4 B                |     2.70527  |     1.43157
   20 N                |   8 B                |     2.76022  |     1.46064
   21 N                |   5 B                |     2.70232  |     1.43000
   21 N                |   9 B                |     2.72795  |     1.44357
   22 N                |   5 B                |     2.76393  |     1.46261
   22 N                |   6 B                |     2.72772  |     1.44345
   22 N                |  10 B                |     2.75581  |     1.45831
   23 N                |   6 B                |     2.75110  |     1.45582
   23 N                |   7 B                |     2.72546  |     1.44225
   23 N                |  11 B                |     2.75110  |     1.45582
   24 N                |   7 B                |     2.76019  |     1.46063
   24 N                |   8 B                |     2.71823  |     1.43843
   24 N                |  12 B                |     2.74366  |     1.45188
   25 N                |   9 B                |     2.70680  |     1.43238
   25 N                |  13 B                |     2.73985  |     1.44987
   26 N                |   9 B                |     2.76733  |     1.46441
   26 N                |  10 B                |     2.73076  |     1.44505
   26 N                |  14 B                |     2.76732  |     1.46440
   27 N                |  10 B                |     2.75581  |     1.45831
   27 N                |  11 B                |     2.72773  |     1.44345
   27 N                |  15 B                |     2.76393  |     1.46261
   28 N                |  11 B                |     2.76578  |     1.46359
   28 N                |  12 B                |     2.71641  |     1.43746
   28 N                |  16 B                |     2.75554  |     1.45817
   29 N                |  13 B                |     2.68306  |     1.41982
   30 N                |  13 B                |     2.73985  |     1.44987
   30 N                |  14 B                |     2.70680  |     1.43237
   31 N                |  14 B                |     2.72795  |     1.44357
   31 N                |  15 B                |     2.70231  |     1.43000
   32 N                |  15 B                |     2.73813  |     1.44896
   32 N                |  16 B                |     2.68269  |     1.41962
   33 H                |  17 N                |     1.92595  |     1.01917
   34 H                |  21 N                |     1.92508  |     1.01871
   35 H                |  25 N                |     1.92389  |     1.01808
   36 H                |  29 N                |     1.91014  |     1.01080
   37 H                |  29 N                |     1.91014  |     1.01080
   38 H                |  30 N                |     1.92389  |     1.01808
   39 H                |  31 N                |     1.92508  |     1.01871
   40 H                |  32 N                |     1.92595  |     1.01917
   41 H                |   1 B                |     2.27034  |     1.20141
   42 H                |   2 B                |     2.26916  |     1.20079
   43 H                |   3 B                |     2.26760  |     1.19996
   44 H                |   4 B                |     2.27691  |     1.20489
   45 H                |   4 B                |     2.27692  |     1.20489
   46 H                |   8 B                |     2.26760  |     1.19996
   47 H                |  12 B                |     2.26916  |     1.20079
   48 H                |  16 B                |     2.27034  |     1.20141
 ------------------------------------------------------------------------------
                         number of included internuclear distances:         56
 ==============================================================================



 ==============================================================================
                                 internuclear angles
 ------------------------------------------------------------------------------
        center 1       |       center 2       |       center 3       |  degrees
 ------------------------------------------------------------------------------
   17 N                |   1 B                |  18 N                |   119.23
   17 N                |   1 B                |  41 H                |   121.09
   18 N                |   1 B                |  41 H                |   119.68
   18 N                |   2 B                |  19 N                |   120.51
   18 N                |   2 B                |  42 H                |   120.17
   19 N                |   2 B                |  42 H                |   119.32
   19 N                |   3 B                |  20 N                |   120.17
   19 N                |   3 B                |  43 H                |   120.33
   20 N                |   3 B                |  43 H                |   119.49
   20 N                |   4 B                |  44 H                |   119.64
   20 N                |   4 B                |  45 H                |   119.65
   44 H                |   4 B                |  45 H                |   120.71
   17 N                |   5 B                |  21 N                |   122.82
   17 N                |   5 B                |  22 N                |   118.25
   21 N                |   5 B                |  22 N                |   118.94
   18 N                |   6 B                |  22 N                |   120.25
   18 N                |   6 B                |  23 N                |   119.58
   22 N                |   6 B                |  23 N                |   120.17
   19 N                |   7 B                |  23 N                |   120.19
   19 N                |   7 B                |  24 N                |   119.62
   23 N                |   7 B                |  24 N                |   120.19
   20 N                |   8 B                |  24 N                |   120.17
   20 N                |   8 B                |  46 H                |   119.49
   24 N                |   8 B                |  46 H                |   120.33
   21 N                |   9 B                |  25 N                |   122.60
   21 N                |   9 B                |  26 N                |   118.46
   25 N                |   9 B                |  26 N                |   118.95
   22 N                |  10 B                |  26 N                |   120.20
   22 N                |  10 B                |  27 N                |   119.61
   26 N                |  10 B                |  27 N                |   120.20
   23 N                |  11 B                |  27 N                |   120.17
   23 N                |  11 B                |  28 N                |   119.58
   27 N                |  11 B                |  28 N                |   120.25
   24 N                |  12 B                |  28 N                |   120.51
   24 N                |  12 B                |  47 H                |   119.32
   28 N                |  12 B                |  47 H                |   120.17
   25 N                |  13 B                |  29 N                |   121.51
   25 N                |  13 B                |  30 N                |   116.98
   29 N                |  13 B                |  30 N                |   121.51
   26 N                |  14 B                |  30 N                |   118.95
   26 N                |  14 B                |  31 N                |   118.46
   30 N                |  14 B                |  31 N                |   122.60
   27 N                |  15 B                |  31 N                |   118.94
   27 N                |  15 B                |  32 N                |   118.25
   31 N                |  15 B                |  32 N                |   122.82
   28 N                |  16 B                |  32 N                |   119.23
   28 N                |  16 B                |  48 H                |   119.68
   32 N                |  16 B                |  48 H                |   121.09
    1 B                |  17 N                |   5 B                |   122.67
    1 B                |  17 N                |  33 H                |   118.79
    5 B                |  17 N                |  33 H                |   118.54
    1 B                |  18 N                |   2 B                |   120.45
    1 B                |  18 N                |   6 B                |   119.50
    2 B                |  18 N                |   6 B                |   120.04
    2 B                |  19 N                |   3 B                |   120.25
    2 B                |  19 N                |   7 B                |   119.55
    3 B                |  19 N                |   7 B                |   120.20
    3 B                |  20 N                |   4 B                |   120.18
    3 B                |  20 N                |   8 B                |   119.64
    4 B                |  20 N                |   8 B                |   120.18
    5 B                |  21 N                |   9 B                |   122.51
    5 B                |  21 N                |  34 H                |   118.63
    9 B                |  21 N                |  34 H                |   118.86
    5 B                |  22 N                |   6 B                |   120.10
    5 B                |  22 N                |  10 B                |   119.75
    6 B                |  22 N                |  10 B                |   120.15
    6 B                |  23 N                |   7 B                |   120.13
    6 B                |  23 N                |  11 B                |   119.75
    7 B                |  23 N                |  11 B                |   120.13
    7 B                |  24 N                |   8 B                |   120.20
    7 B                |  24 N                |  12 B                |   119.55
    8 B                |  24 N                |  12 B                |   120.25
    9 B                |  25 N                |  13 B                |   122.72
    9 B                |  25 N                |  35 H                |   118.42
   13 B                |  25 N                |  35 H                |   118.86
    9 B                |  26 N                |  10 B                |   120.15
    9 B                |  26 N                |  14 B                |   119.69
   10 B                |  26 N                |  14 B                |   120.15
   10 B                |  27 N                |  11 B                |   120.15
   10 B                |  27 N                |  15 B                |   119.75
   11 B                |  27 N                |  15 B                |   120.10
   11 B                |  28 N                |  12 B                |   120.04
   11 B                |  28 N                |  16 B                |   119.50
   12 B                |  28 N                |  16 B                |   120.45
   13 B                |  29 N                |  36 H                |   122.49
   13 B                |  29 N                |  37 H                |   122.49
   36 H                |  29 N                |  37 H                |   115.01
   13 B                |  30 N                |  14 B                |   122.72
   13 B                |  30 N                |  38 H                |   118.86
   14 B                |  30 N                |  38 H                |   118.42
   14 B                |  31 N                |  15 B                |   122.51
   14 B                |  31 N                |  39 H                |   118.86
   15 B                |  31 N                |  39 H                |   118.63
   15 B                |  32 N                |  16 B                |   122.67
   15 B                |  32 N                |  40 H                |   118.54
   16 B                |  32 N                |  40 H                |   118.79
 ------------------------------------------------------------------------------
                            number of included internuclear angles:         96
 ==============================================================================



  library name resolved from: environment
  library file name is: <
 /opt/apps/software/MPI/intel/2019.3.199-GCC-8.3.0/impi/2019.4.243/NWChem/6.8.re
 vision47/data/libraries/>
  
                                 NWChem SCF Module
                                 -----------------
 
 
                                        mol
 
 

  ao basis        = "ao basis"
  functions       =   944
  atoms           =    48
  alpha electrons =   104
  beta  electrons =   103
  charge          =   1.00
  wavefunction    = UHF 
  input vectors   = atomic
  output vectors  = ./hBN_q1.movecs
  use symmetry    = F
  symmetry adapt  = F


 Summary of "ao basis" -> "ao basis" (cartesian)
 ------------------------------------------------------------------------------
       Tag                 Description            Shells   Functions and Types
 ---------------- ------------------------------  ------  ---------------------
 B                        aug-cc-pVDZ                9       25   4s3p2d
 N                        aug-cc-pVDZ                9       25   4s3p2d
 H                        aug-cc-pVDZ                5        9   3s2p



 Forming initial guess at       0.3s


 !! The overlap matrix has  31 vectors deemed linearly dependent with
    eigenvalues:
 3.05D-07 7.52D-07 7.98D-07 8.21D-07 1.05D-06 1.11D-06 1.53D-06 1.58D-06
 1.67D-06 2.00D-06 2.29D-06 2.32D-06 2.50D-06 2.70D-06 3.35D-06 3.61D-06
 4.02D-06 4.36D-06 4.40D-06 4.72D-06 4.79D-06 4.81D-06 5.15D-06 5.66D-06
 5.96D-06 6.82D-06 6.85D-06 7.93D-06 8.40D-06 8.92D-06 9.55D-06
 
 
      Superposition of Atomic Density Guess
      -------------------------------------
 
 Sum of atomic energies:       -1269.36286235

 Renormalizing density from     208.00 to    207
 
      Non-variational initial energy
      ------------------------------

 Total energy =   -1286.682726
 1-e energy   =   -7154.249578
 2-e energy   =    3116.016117
 HOMO         =      -0.467480
 LUMO         =      -0.125624
 

 Starting SCF solution at      63.3s



 ----------------------------------------------
         Quadratically convergent UHF

 Convergence threshold     :          1.000E-04
 Maximum no. of iterations :           30
 Integral*density screening:          1.000E-10
 ----------------------------------------------


              iter       energy          gnorm     gmax       time
             ----- ------------------- --------- --------- --------
                 1    -1276.3627204501  2.21D+00  1.10D-01    144.8
                 2    -1276.9414862966  7.03D-01  4.27D-02    309.5
                 3    -1277.0505180862  6.37D-02  1.06D-02    643.6
                 4    -1277.0519505452  6.01D-03  8.17D-04   1040.7
                 5    -1277.0519641173  3.70D-05  1.36D-05   1560.9


       Final UHF  results 
       ------------------ 

         Total SCF energy =  -1277.051964117253
      One electron energy =  -7194.622071116432
      Two electron energy =   3166.019372105989
 Nuclear repulsion energy =   2751.550734893191

                       Sz =      0.5000
                 Sz(Sz+1) =      0.7500
                      S^2 =      0.7748

        Time for solution =   1499.6s


          Final alpha eigenvalues
          -----------------------

              1      
    1  -15.9351
    2  -15.7274
    3  -15.7273
    4  -15.6562
    5  -15.6562
    6  -15.6537
    7  -15.6277
    8  -15.6277
    9  -15.6205
   10  -15.6205
   11  -15.6068
   12  -15.6049
   13  -15.6049
   14  -15.5984
   15  -15.5983
   16  -15.5948
   17   -7.8390
   18   -7.7602
   19   -7.7602
   20   -7.7272
   21   -7.7204
   22   -7.7204
   23   -7.7068
   24   -7.7068
   25   -7.6969
   26   -7.6833
   27   -7.6833
   28   -7.6758
   29   -7.6758
   30   -7.6710
   31   -7.6710
   32   -7.6511
   33   -1.5364
   34   -1.3681
   35   -1.3220
   36   -1.3167
   37   -1.2879
   38   -1.2846
   39   -1.2552
   40   -1.2508
   41   -1.2496
   42   -1.2242
   43   -1.2173
   44   -1.2142
   45   -1.2029
   46   -1.1858
   47   -1.1774
   48   -1.1762
   49   -1.0122
   50   -1.0111
   51   -0.9029
   52   -0.8778
   53   -0.8704
   54   -0.8661
   55   -0.8504
   56   -0.8462
   57   -0.8354
   58   -0.8244
   59   -0.8153
   60   -0.8014
   61   -0.7939
   62   -0.7906
   63   -0.7807
   64   -0.7791
   65   -0.7689
   66   -0.7545
   67   -0.7392
   68   -0.7225
   69   -0.7149
   70   -0.7127
   71   -0.6977
   72   -0.6951
   73   -0.6929
   74   -0.6857
   75   -0.6751
   76   -0.6716
   77   -0.6595
   78   -0.6466
   79   -0.6457
   80   -0.6405
   81   -0.6273
   82   -0.6120
   83   -0.6062
   84   -0.6040
   85   -0.5981
   86   -0.5958
   87   -0.5810
   88   -0.5636
   89   -0.5620
   90   -0.5517
   91   -0.5499
   92   -0.5492
   93   -0.5485
   94   -0.5362
   95   -0.5285
   96   -0.5132
   97   -0.5108
   98   -0.5084
   99   -0.5039
  100   -0.4983
  101   -0.4880
  102   -0.4674
  103   -0.4610
  104   -0.4570
  105   -0.1159
  106   -0.0833
  107   -0.0666
  108   -0.0644
  109   -0.0460
  110   -0.0445
  111   -0.0321
  112   -0.0265
  113   -0.0261
  114   -0.0238
 
          Final beta eigenvalues
          ----------------------

              1      
    1  -15.9029
    2  -15.7231
    3  -15.7231
    4  -15.6560
    5  -15.6560
    6  -15.6525
    7  -15.6277
    8  -15.6277
    9  -15.6204
   10  -15.6204
   11  -15.6068
   12  -15.6049
   13  -15.6049
   14  -15.5984
   15  -15.5983
   16  -15.5948
   17   -7.8422
   18   -7.7607
   19   -7.7607
   20   -7.7273
   21   -7.7204
   22   -7.7204
   23   -7.7068
   24   -7.7068
   25   -7.6969
   26   -7.6833
   27   -7.6833
   28   -7.6758
   29   -7.6758
   30   -7.6710
   31   -7.6710
   32   -7.6511
   33   -1.4263
   34   -1.3541
   35   -1.3135
   36   -1.3128
   37   -1.2852
   38   -1.2829
   39   -1.2536
   40   -1.2498
   41   -1.2492
   42   -1.2234
   43   -1.2172
   44   -1.2136
   45   -1.2026
   46   -1.1857
   47   -1.1773
   48   -1.1761
   49   -0.9902
   50   -0.9883
   51   -0.9011
   52   -0.8770
   53   -0.8626
   54   -0.8498
   55   -0.8454
   56   -0.8353
   57   -0.8223
   58   -0.8147
   59   -0.8011
   60   -0.7938
   61   -0.7890
   62   -0.7796
   63   -0.7789
   64   -0.7669
   65   -0.7538
   66   -0.7388
   67   -0.7215
   68   -0.7145
   69   -0.7127
   70   -0.6975
   71   -0.6946
   72   -0.6876
   73   -0.6855
   74   -0.6748
   75   -0.6715
   76   -0.6588
   77   -0.6453
   78   -0.6453
   79   -0.6404
   80   -0.6195
   81   -0.6118
   82   -0.6054
   83   -0.6037
   84   -0.5981
   85   -0.5810
   86   -0.5778
   87   -0.5621
   88   -0.5620
   89   -0.5505
   90   -0.5498
   91   -0.5492
   92   -0.5362
   93   -0.5361
   94   -0.5285
   95   -0.5131
   96   -0.5108
   97   -0.5047
   98   -0.4992
   99   -0.4983
  100   -0.4868
  101   -0.4673
  102   -0.4601
  103   -0.4559
  104   -0.2398
  105   -0.1127
  106   -0.0823
  107   -0.0642
  108   -0.0604
  109   -0.0456
  110   -0.0444
  111   -0.0321
  112   -0.0248
  113   -0.0246
  114   -0.0235
 
                    UHF Final Alpha Molecular Orbital Analysis
                    ------------------------------------------
 
 Vector   34  Occ=1.000000D+00  E=-1.368130D+00
              MO Center=  5.0D+00, -4.6D+00,  1.7D+00, r^2= 3.3D+00
   Bfn.  Coefficient  Atom+Function         Bfn.  Coefficient  Atom+Function  
  ----- ------------  ---------------      ----- ------------  ---------------
   602      0.240947  25 N  s               727      0.240947  30 N  s         
   604      0.159613  25 N  s               729      0.159610  30 N  s         
 
 Vector   35  Occ=1.000000D+00  E=-1.321978D+00
              MO Center=  5.0D+00, -4.6D+00,  1.7D+00, r^2= 4.4D+00
   Bfn.  Coefficient  Atom+Function         Bfn.  Coefficient  Atom+Function  
  ----- ------------  ---------------      ----- ------------  ---------------
   602      0.258862  25 N  s               727     -0.258861  30 N  s         
   603      0.181897  25 N  s               728     -0.181897  30 N  s         
 
 Vector   36  Occ=1.000000D+00  E=-1.316730D+00
              MO Center=  5.0D+00, -1.4D+00,  1.7D+00, r^2= 8.1D+00
   Bfn.  Coefficient  Atom+Function         Bfn.  Coefficient  Atom+Function  
  ----- ------------  ---------------      ----- ------------  ---------------
   629      0.175959  26 N  s               504      0.163446  21 N  s         
   754      0.163448  31 N  s               527      0.156213  22 N  s         
   652      0.156212  27 N  s         
 
 Vector   37  Occ=1.000000D+00  E=-1.287889D+00
              MO Center=  5.0D+00, -1.8D+00,  1.7D+00, r^2= 1.1D+01
   Bfn.  Coefficient  Atom+Function         Bfn.  Coefficient  Atom+Function  
  ----- ------------  ---------------      ----- ------------  ---------------
   502      0.149322  21 N  s               752     -0.149324  31 N  s         
   402      0.137156  17 N  s               777     -0.137156  32 N  s         
 
 Vector   38  Occ=1.000000D+00  E=-1.284574D+00
              MO Center=  5.0D+00,  5.2D-01,  1.7D+00, r^2= 1.1D+01
   Bfn.  Coefficient  Atom+Function         Bfn.  Coefficient  Atom+Function  
  ----- ------------  ---------------      ----- ------------  ---------------
   552      0.176969  23 N  s               479      0.174062  20 N  s         
 
 Vector   39  Occ=1.000000D+00  E=-1.255225D+00
              MO Center=  5.0D+00, -4.5D-01,  1.7D+00, r^2= 1.4D+01
   Bfn.  Coefficient  Atom+Function         Bfn.  Coefficient  Atom+Function  
  ----- ------------  ---------------      ----- ------------  ---------------
   627      0.222882  26 N  s               402     -0.168077  17 N  s         
   777     -0.168076  32 N  s               628      0.164880  26 N  s         
 
 Vector   40  Occ=1.000000D+00  E=-1.250756D+00
              MO Center=  5.0D+00, -7.8D-01,  1.7D+00, r^2= 1.3D+01
   Bfn.  Coefficient  Atom+Function         Bfn.  Coefficient  Atom+Function  
  ----- ------------  ---------------      ----- ------------  ---------------
   502      0.183648  21 N  s               752     -0.183646  31 N  s         
   427     -0.161278  18 N  s               677      0.161279  28 N  s         
 
 Vector   41  Occ=1.000000D+00  E=-1.249563D+00
              MO Center=  5.0D+00, -7.6D-02,  1.7D+00, r^2= 1.4D+01
   Bfn.  Coefficient  Atom+Function         Bfn.  Coefficient  Atom+Function  
  ----- ------------  ---------------      ----- ------------  ---------------
   502      0.178772  21 N  s               752      0.178774  31 N  s         
   554     -0.154691  23 N  s         
 
 Vector   42  Occ=1.000000D+00  E=-1.224159D+00
              MO Center=  5.0D+00, -7.6D-01,  1.7D+00, r^2= 1.3D+01
   Bfn.  Coefficient  Atom+Function         Bfn.  Coefficient  Atom+Function  
  ----- ------------  ---------------      ----- ------------  ---------------
   627      0.168835  26 N  s               402      0.160634  17 N  s         
   777      0.160636  32 N  s               552     -0.158707  23 N  s         
 
 Vector   43  Occ=1.000000D+00  E=-1.217341D+00
              MO Center=  5.0D+00,  7.7D-01,  1.7D+00, r^2= 1.4D+01
   Bfn.  Coefficient  Atom+Function         Bfn.  Coefficient  Atom+Function  
  ----- ------------  ---------------      ----- ------------  ---------------
   402      0.193067  17 N  s               777     -0.193065  32 N  s         
 
 Vector   44  Occ=1.000000D+00  E=-1.214219D+00
              MO Center=  5.0D+00,  1.8D+00,  1.7D+00, r^2= 1.2D+01
   Bfn.  Coefficient  Atom+Function         Bfn.  Coefficient  Atom+Function  
  ----- ------------  ---------------      ----- ------------  ---------------
   477      0.216574  20 N  s               527      0.152691  22 N  s         
   652      0.152690  27 N  s         
 
 Vector   45  Occ=1.000000D+00  E=-1.202929D+00
              MO Center=  5.0D+00, -3.1D-01,  1.7D+00, r^2= 7.3D+00
   Bfn.  Coefficient  Atom+Function         Bfn.  Coefficient  Atom+Function  
  ----- ------------  ---------------      ----- ------------  ---------------
   527      0.234872  22 N  s               652     -0.234873  27 N  s         
   528      0.175969  22 N  s               653     -0.175970  27 N  s         
   636     -0.161256  26 N  px        
 
 Vector   46  Occ=1.000000D+00  E=-1.185776D+00
              MO Center=  5.0D+00,  1.2D+00,  1.7D+00, r^2= 9.5D+00
   Bfn.  Coefficient  Atom+Function         Bfn.  Coefficient  Atom+Function  
  ----- ------------  ---------------      ----- ------------  ---------------
   427      0.200239  18 N  s               677      0.200237  28 N  s         
   552     -0.188668  23 N  s               428      0.155204  18 N  s         
   678      0.155203  28 N  s         
 
 Vector   47  Occ=1.000000D+00  E=-1.177388D+00
              MO Center=  5.0D+00,  3.7D+00,  1.7D+00, r^2= 6.4D+00
   Bfn.  Coefficient  Atom+Function         Bfn.  Coefficient  Atom+Function  
  ----- ------------  ---------------      ----- ------------  ---------------
   477      0.253166  20 N  s               478      0.195129  20 N  s         
   552      0.185636  23 N  s               452     -0.164391  19 N  s         
   577     -0.164400  24 N  s         
 
 Vector   48  Occ=1.000000D+00  E=-1.176161D+00
              MO Center=  5.0D+00,  2.2D+00,  1.7D+00, r^2= 7.7D+00
   Bfn.  Coefficient  Atom+Function         Bfn.  Coefficient  Atom+Function  
  ----- ------------  ---------------      ----- ------------  ---------------
   452      0.207513  19 N  s               577     -0.207507  24 N  s         
   427     -0.171197  18 N  s               677      0.171200  28 N  s         
   453      0.156733  19 N  s               578     -0.156728  24 N  s         
 
 Vector   49  Occ=1.000000D+00  E=-1.012190D+00
              MO Center=  5.0D+00, -7.3D+00,  1.7D+00, r^2= 1.3D+00
   Bfn.  Coefficient  Atom+Function         Bfn.  Coefficient  Atom+Function  
  ----- ------------  ---------------      ----- ------------  ---------------
   705      0.494321  29 N  px              828      0.310750  36 H  s         
   837     -0.310863  37 H  s               708      0.174080  29 N  px        
 
 Vector   50  Occ=1.000000D+00  E=-1.011075D+00
              MO Center=  5.0D+00, -6.8D+00,  1.7D+00, r^2= 2.0D+00
   Bfn.  Coefficient  Atom+Function         Bfn.  Coefficient  Atom+Function  
  ----- ------------  ---------------      ----- ------------  ---------------
   706      0.486297  29 N  py              302      0.227599  13 B  s         
   306     -0.200336  13 B  py              709      0.183349  29 N  py        
   828     -0.179864  36 H  s               837     -0.179668  37 H  s         
 
 Vector   51  Occ=1.000000D+00  E=-9.028615D-01
              MO Center=  5.0D+00, -4.5D+00,  1.7D+00, r^2= 4.7D+00
   Bfn.  Coefficient  Atom+Function         Bfn.  Coefficient  Atom+Function  
  ----- ------------  ---------------      ----- ------------  ---------------
   605      0.257357  25 N  px              730     -0.257357  30 N  px        
   819     -0.238430  35 H  s               846     -0.238430  38 H  s         
   631     -0.170214  26 N  py        
 
 Vector   52  Occ=1.000000D+00  E=-8.778209D-01
              MO Center=  5.0D+00, -3.2D+00,  1.7D+00, r^2= 7.0D+00
   Bfn.  Coefficient  Atom+Function         Bfn.  Coefficient  Atom+Function  
  ----- ------------  ---------------      ----- ------------  ---------------
   630     -0.230807  26 N  px              202      0.214683   9 B  s         
   327     -0.214683  14 B  s               505      0.164671  21 N  px        
   606      0.165453  25 N  py              731     -0.165453  30 N  py        
   755      0.164671  31 N  px        
 
 Vector   53  Occ=1.000000D+00  E=-8.703954D-01
              MO Center=  5.0D+00, -7.2D+00,  1.7D+00, r^2= 9.0D-01
   Bfn.  Coefficient  Atom+Function         Bfn.  Coefficient  Atom+Function  
  ----- ------------  ---------------      ----- ------------  ---------------
   707      0.636372  29 N  pz              710      0.448037  29 N  pz        
 
 Vector   54  Occ=1.000000D+00  E=-8.661083D-01
              MO Center=  5.0D+00, -2.4D+00,  1.7D+00, r^2= 1.2D+01
   Bfn.  Coefficient  Atom+Function         Bfn.  Coefficient  Atom+Function  
  ----- ------------  ---------------      ----- ------------  ---------------
   306      0.168705  13 B  py              706     -0.155835  29 N  py        
   506      0.151440  21 N  py              756      0.151441  31 N  py        
 
 Vector   55  Occ=1.000000D+00  E=-8.503702D-01
              MO Center=  5.0D+00, -4.9D-01,  1.7D+00, r^2= 1.1D+01
   Bfn.  Coefficient  Atom+Function         Bfn.  Coefficient  Atom+Function  
  ----- ------------  ---------------      ----- ------------  ---------------
   530      0.197291  22 N  px              655     -0.197291  27 N  px        
   227      0.169390  10 B  s         
 
 Vector   56  Occ=1.000000D+00  E=-8.462133D-01
              MO Center=  5.0D+00, -1.9D+00,  1.7D+00, r^2= 1.1D+01
   Bfn.  Coefficient  Atom+Function         Bfn.  Coefficient  Atom+Function  
  ----- ------------  ---------------      ----- ------------  ---------------
   506      0.171592  21 N  py              756     -0.171591  31 N  py        
   606     -0.151425  25 N  py              731      0.151426  30 N  py        
 
 Vector   57  Occ=1.000000D+00  E=-8.353829D-01
              MO Center=  5.0D+00,  1.3D+00,  1.7D+00, r^2= 1.2D+01
   Bfn.  Coefficient  Atom+Function         Bfn.  Coefficient  Atom+Function  
  ----- ------------  ---------------      ----- ------------  ---------------
   555      0.172710  23 N  px              561      0.158697  23 N  px        
 
 Vector   58  Occ=1.000000D+00  E=-8.243749D-01
              MO Center=  5.0D+00,  1.0D+00,  1.7D+00, r^2= 2.0D+01
   Bfn.  Coefficient  Atom+Function         Bfn.  Coefficient  Atom+Function  
  ----- ------------  ---------------      ----- ------------  ---------------
   481      0.164237  20 N  py        
 
 Vector   59  Occ=1.000000D+00  E=-8.152773D-01
              MO Center=  5.0D+00, -5.6D-02,  1.7D+00, r^2= 1.3D+01
   Bfn.  Coefficient  Atom+Function         Bfn.  Coefficient  Atom+Function  
  ----- ------------  ---------------      ----- ------------  ---------------
   170      0.288851   7 B  dxx             152     -0.178131   7 B  s         
   248      0.178251  10 B  dyy              33     -0.173610   2 B  px        
   283      0.173609  12 B  px              556     -0.157644  23 N  py        
   245     -0.151619  10 B  dxx       
 
 Vector   60  Occ=1.000000D+00  E=-8.014492D-01
              MO Center=  5.0D+00, -5.5D-01,  1.7D+00, r^2= 1.5D+01
   Bfn.  Coefficient  Atom+Function         Bfn.  Coefficient  Atom+Function  
  ----- ------------  ---------------      ----- ------------  ---------------
   148      0.178892   6 B  dyy             273     -0.178889  11 B  dyy       
   405     -0.160238  17 N  px              780     -0.160238  32 N  px        
 
 Vector   61  Occ=1.000000D+00  E=-7.938974D-01
              MO Center=  5.0D+00,  7.2D-01,  1.7D+00, r^2= 1.5D+01
   Bfn.  Coefficient  Atom+Function         Bfn.  Coefficient  Atom+Function  
  ----- ------------  ---------------      ----- ------------  ---------------
   173      0.203883   7 B  dyy             152     -0.168306   7 B  s         
   154     -0.166193   7 B  s               429      0.159630  18 N  s         
   679      0.159628  28 N  s               505      0.153942  21 N  px        
   755     -0.153939  31 N  px        
 
 Vector   62  Occ=1.000000D+00  E=-7.905938D-01
              MO Center=  5.0D+00, -2.4D+00,  1.7D+00, r^2= 1.4D+01
   Bfn.  Coefficient  Atom+Function         Bfn.  Coefficient  Atom+Function  
  ----- ------------  ---------------      ----- ------------  ---------------
   606     -0.198018  25 N  py              731      0.198016  30 N  py        
   206      0.190888   9 B  py              331     -0.190888  14 B  py        
   820      0.162999  35 H  s               847     -0.163000  38 H  s         
   819      0.160361  35 H  s               846     -0.160361  38 H  s         
 
 Vector   63  Occ=1.000000D+00  E=-7.806705D-01
              MO Center=  5.0D+00,  1.1D+00,  1.7D+00, r^2= 2.3D+01
   Bfn.  Coefficient  Atom+Function         Bfn.  Coefficient  Atom+Function  
  ----- ------------  ---------------      ----- ------------  ---------------
    78      0.226311   4 B  s               481      0.211546  20 N  py        
   454     -0.184449  19 N  s               579     -0.184443  24 N  s         
    77      0.165086   4 B  s               637      0.156813  26 N  py        
 
 Vector   64  Occ=1.000000D+00  E=-7.790719D-01
              MO Center=  5.0D+00,  2.8D+00,  1.7D+00, r^2= 1.7D+01
   Bfn.  Coefficient  Atom+Function         Bfn.  Coefficient  Atom+Function  
  ----- ------------  ---------------      ----- ------------  ---------------
   480      0.251794  20 N  px               52     -0.189093   3 B  s         
   177      0.189114   8 B  s                58      0.158518   3 B  px        
   183      0.158522   8 B  px        
 
 Vector   65  Occ=1.000000D+00  E=-7.688708D-01
              MO Center=  5.0D+00, -3.1D+00,  1.7D+00, r^2= 1.6D+01
   Bfn.  Coefficient  Atom+Function         Bfn.  Coefficient  Atom+Function  
  ----- ------------  ---------------      ----- ------------  ---------------
   305      0.296627  13 B  px              605     -0.271345  25 N  px        
   730     -0.271345  30 N  px              604      0.218167  25 N  s         
   729     -0.218173  30 N  s               819      0.170303  35 H  s         
   846     -0.170303  38 H  s         
 
 Vector   66  Occ=1.000000D+00  E=-7.544849D-01
              MO Center=  5.0D+00, -9.4D-01,  1.7D+00, r^2= 1.4D+01
   Bfn.  Coefficient  Atom+Function         Bfn.  Coefficient  Atom+Function  
  ----- ------------  ---------------      ----- ------------  ---------------
   173      0.196507   7 B  dyy             505     -0.196536  21 N  px        
   755      0.196536  31 N  px              430     -0.165220  18 N  px        
   680      0.165220  28 N  px              133     -0.162669   6 B  px        
   258      0.162669  11 B  px              811      0.150134  34 H  s         
   856      0.150135  39 H  s         
 
 Vector   67  Occ=1.000000D+00  E=-7.392053D-01
              MO Center=  5.0D+00, -2.8D-01,  1.7D+00, r^2= 1.6D+01
   Bfn.  Coefficient  Atom+Function         Bfn.  Coefficient  Atom+Function  
  ----- ------------  ---------------      ----- ------------  ---------------
   631      0.235865  26 N  py               78     -0.202371   4 B  s         
   234      0.180646  10 B  py              479     -0.177045  20 N  s         
   454      0.170776  19 N  s               579      0.170780  24 N  s         
   487      0.167687  20 N  py              146      0.151436   6 B  dxy       
   271     -0.151436  11 B  dxy       
 
 Vector   68  Occ=1.000000D+00  E=-7.225349D-01
              MO Center=  5.0D+00,  1.0D+00,  1.7D+00, r^2= 2.2D+01
   Bfn.  Coefficient  Atom+Function         Bfn.  Coefficient  Atom+Function  
  ----- ------------  ---------------      ----- ------------  ---------------
    78      0.233751   4 B  s                77      0.168685   4 B  s         
   481      0.161770  20 N  py              245     -0.158536  10 B  dxx       
 
 Vector   69  Occ=1.000000D+00  E=-7.149431D-01
              MO Center=  5.0D+00,  8.9D-02,  1.7D+00, r^2= 1.5D+01
   Bfn.  Coefficient  Atom+Function         Bfn.  Coefficient  Atom+Function  
  ----- ------------  ---------------      ----- ------------  ---------------
   155      0.169750   7 B  px              455     -0.157609  19 N  px        
   580     -0.157608  24 N  px               28      0.150040   2 B  s         
   278     -0.150038  12 B  s         
 
 Vector   70  Occ=1.000000D+00  E=-7.127483D-01
              MO Center=  5.0D+00,  1.8D+00,  1.7D+00, r^2= 1.6D+01
   Bfn.  Coefficient  Atom+Function         Bfn.  Coefficient  Atom+Function  
  ----- ------------  ---------------      ----- ------------  ---------------
   171      0.209921   7 B  dxy             480     -0.190301  20 N  px        
   404     -0.162935  17 N  s               779      0.162930  32 N  s         
   429      0.161538  18 N  s               679     -0.161531  28 N  s         
    56      0.158097   3 B  py              181     -0.158096   8 B  py        
   406      0.152244  17 N  py              781     -0.152244  32 N  py        
 
 Vector   71  Occ=1.000000D+00  E=-6.977008D-01
              MO Center=  5.0D+00,  3.9D-01,  1.7D+00, r^2= 1.6D+01
   Bfn.  Coefficient  Atom+Function         Bfn.  Coefficient  Atom+Function  
  ----- ------------  ---------------      ----- ------------  ---------------
   405      0.201176  17 N  px              780     -0.201177  32 N  px        
   429      0.186260  18 N  s               679      0.186265  28 N  s         
 
 Vector   72  Occ=1.000000D+00  E=-6.950534D-01
              MO Center=  5.0D+00, -1.1D+00,  1.7D+00, r^2= 1.3D+01
   Bfn.  Coefficient  Atom+Function         Bfn.  Coefficient  Atom+Function  
  ----- ------------  ---------------      ----- ------------  ---------------
   630      0.216015  26 N  px              811     -0.173156  34 H  s         
   856      0.173157  39 H  s               233     -0.169899  10 B  px        
   506      0.159431  21 N  py              756     -0.159431  31 N  py        
   230      0.152284  10 B  px              810     -0.152346  34 H  s         
   855      0.152346  39 H  s         
 
 Vector   73  Occ=1.000000D+00  E=-6.929422D-01
              MO Center=  5.0D+00, -3.9D+00,  1.7D+00, r^2= 5.1D+00
   Bfn.  Coefficient  Atom+Function         Bfn.  Coefficient  Atom+Function  
  ----- ------------  ---------------      ----- ------------  ---------------
   607      0.256895  25 N  pz              732      0.256895  30 N  pz        
   632      0.208276  26 N  pz              610      0.196960  25 N  pz        
   735      0.196960  30 N  pz              635      0.164911  26 N  pz        
 
 Vector   74  Occ=1.000000D+00  E=-6.856655D-01
              MO Center=  5.0D+00,  6.3D-01,  1.7D+00, r^2= 1.7D+01
   Bfn.  Coefficient  Atom+Function         Bfn.  Coefficient  Atom+Function  
  ----- ------------  ---------------      ----- ------------  ---------------
   479      0.172142  20 N  s               506     -0.155060  21 N  py        
   756     -0.155059  31 N  py              231     -0.151261  10 B  py        
   406     -0.150068  17 N  py              781     -0.150068  32 N  py        
 
 Vector   75  Occ=1.000000D+00  E=-6.750622D-01
              MO Center=  5.0D+00, -8.8D-01,  1.7D+00, r^2= 1.1D+01
   Bfn.  Coefficient  Atom+Function         Bfn.  Coefficient  Atom+Function  
  ----- ------------  ---------------      ----- ------------  ---------------
   630      0.214246  26 N  px              555      0.198390  23 N  px        
   205     -0.170060   9 B  px              330     -0.170059  14 B  px        
 
 Vector   76  Occ=1.000000D+00  E=-6.715833D-01
              MO Center=  5.0D+00,  1.3D+00,  1.7D+00, r^2= 1.1D+01
   Bfn.  Coefficient  Atom+Function         Bfn.  Coefficient  Atom+Function  
  ----- ------------  ---------------      ----- ------------  ---------------
   155      0.197764   7 B  px              531     -0.170808  22 N  py        
   656      0.170807  27 N  py              454      0.168403  19 N  s         
   579     -0.168415  24 N  s               131      0.159825   6 B  py        
   256     -0.159824  11 B  py              430      0.151874  18 N  px        
   680      0.151874  28 N  px        
 
 Vector   77  Occ=1.000000D+00  E=-6.594598D-01
              MO Center=  5.0D+00,  1.3D-01,  1.7D+00, r^2= 1.2D+01
   Bfn.  Coefficient  Atom+Function         Bfn.  Coefficient  Atom+Function  
  ----- ------------  ---------------      ----- ------------  ---------------
   556      0.264155  23 N  py              231      0.207703  10 B  py        
   156     -0.201508   7 B  py              631     -0.182418  26 N  py        
    53      0.170876   3 B  s               178      0.170877   8 B  s         
 
 Vector   78  Occ=1.000000D+00  E=-6.466113D-01
              MO Center=  5.0D+00, -8.3D-01,  1.7D+00, r^2= 1.1D+01
   Bfn.  Coefficient  Atom+Function         Bfn.  Coefficient  Atom+Function  
  ----- ------------  ---------------      ----- ------------  ---------------
   532      0.178984  22 N  pz              657      0.178983  27 N  pz        
   557      0.173466  23 N  pz              607     -0.169472  25 N  pz        
   732     -0.169472  30 N  pz        
 
 Vector   79  Occ=1.000000D+00  E=-6.456797D-01
              MO Center=  5.0D+00,  1.3D+00,  1.7D+00, r^2= 1.6D+01
   Bfn.  Coefficient  Atom+Function         Bfn.  Coefficient  Atom+Function  
  ----- ------------  ---------------      ----- ------------  ---------------
   123      0.192930   5 B  dyy             373      0.192927  15 B  dyy       
    34      0.182650   2 B  py              284      0.182646  12 B  py        
   631      0.181469  26 N  py                9      0.176730   1 B  py        
   384      0.176731  16 B  py               84     -0.153635   4 B  py        
 
 Vector   80  Occ=1.000000D+00  E=-6.405176D-01
              MO Center=  5.0D+00,  1.2D+00,  1.7D+00, r^2= 1.3D+01
   Bfn.  Coefficient  Atom+Function         Bfn.  Coefficient  Atom+Function  
  ----- ------------  ---------------      ----- ------------  ---------------
   555      0.223653  23 N  px              486      0.198486  20 N  px        
   456     -0.190676  19 N  py              581      0.190677  24 N  py        
   630     -0.159926  26 N  px               56      0.153429   3 B  py        
   181     -0.153429   8 B  py        
 
 Vector   81  Occ=1.000000D+00  E=-6.272738D-01
              MO Center=  5.0D+00, -3.0D+00,  1.7D+00, r^2= 9.1D+00
   Bfn.  Coefficient  Atom+Function         Bfn.  Coefficient  Atom+Function  
  ----- ------------  ---------------      ----- ------------  ---------------
   607      0.232406  25 N  pz              732     -0.232405  30 N  pz        
   507      0.206229  21 N  pz              757     -0.206230  31 N  pz        
   610      0.185438  25 N  pz              735     -0.185437  30 N  pz        
   510      0.163094  21 N  pz              760     -0.163094  31 N  pz        
 
 Vector   82  Occ=1.000000D+00  E=-6.120095D-01
              MO Center=  5.0D+00, -5.7D-01,  1.7D+00, r^2= 9.9D+00
   Bfn.  Coefficient  Atom+Function         Bfn.  Coefficient  Atom+Function  
  ----- ------------  ---------------      ----- ------------  ---------------
   530     -0.273655  22 N  px              655     -0.273655  27 N  px        
   171      0.268372   7 B  dxy             145      0.227784   6 B  dxx       
   270     -0.227781  11 B  dxx             436      0.222594  18 N  px        
   686      0.222595  28 N  px              230      0.220791  10 B  px        
     8     -0.169694   1 B  px              383     -0.169688  16 B  px        
 
 Vector   83  Occ=1.000000D+00  E=-6.061984D-01
              MO Center=  5.0D+00,  4.7D-01,  1.7D+00, r^2= 1.5D+01
   Bfn.  Coefficient  Atom+Function         Bfn.  Coefficient  Atom+Function  
  ----- ------------  ---------------      ----- ------------  ---------------
   457      0.181125  19 N  pz              582      0.181125  24 N  pz        
   557      0.167472  23 N  pz              632     -0.155988  26 N  pz        
 
 Vector   84  Occ=1.000000D+00  E=-6.040029D-01
              MO Center=  5.0D+00,  1.7D+00,  1.7D+00, r^2= 1.6D+01
   Bfn.  Coefficient  Atom+Function         Bfn.  Coefficient  Atom+Function  
  ----- ------------  ---------------      ----- ------------  ---------------
    84      0.250625   4 B  py              531      0.187433  22 N  py        
   656      0.187433  27 N  py               33     -0.183673   2 B  px        
   283      0.183675  12 B  px               53      0.170643   3 B  s         
   178      0.170642   8 B  s               556      0.167819  23 N  py        
    81      0.161250   4 B  py              154     -0.154082   7 B  s         
 
 Vector   85  Occ=1.000000D+00  E=-5.981323D-01
              MO Center=  5.0D+00,  1.3D+00,  1.7D+00, r^2= 1.1D+01
   Bfn.  Coefficient  Atom+Function         Bfn.  Coefficient  Atom+Function  
  ----- ------------  ---------------      ----- ------------  ---------------
   171      0.373717   7 B  dxy             145      0.236196   6 B  dxx       
   270     -0.236193  11 B  dxx             148     -0.220945   6 B  dyy       
   273      0.220945  11 B  dyy             431      0.216089  18 N  py        
   681     -0.216089  28 N  py               31     -0.194839   2 B  py        
   281      0.194840  12 B  py               34     -0.193609   2 B  py        
 
 Vector   86  Occ=1.000000D+00  E=-5.958480D-01
              MO Center=  5.0D+00, -2.0D+00,  1.7D+00, r^2= 1.3D+01
   Bfn.  Coefficient  Atom+Function         Bfn.  Coefficient  Atom+Function  
  ----- ------------  ---------------      ----- ------------  ---------------
   607      0.263154  25 N  pz              732     -0.263154  30 N  pz        
   610      0.208826  25 N  pz              735     -0.208826  30 N  pz        
 
 Vector   87  Occ=1.000000D+00  E=-5.809760D-01
              MO Center=  5.0D+00,  5.9D+00,  1.7D+00, r^2= 5.8D+00
   Bfn.  Coefficient  Atom+Function         Bfn.  Coefficient  Atom+Function  
  ----- ------------  ---------------      ----- ------------  ---------------
    81      0.268847   4 B  py              554      0.259778  23 N  s         
   481     -0.258436  20 N  py               84      0.233563   4 B  py        
    55      0.189561   3 B  px              180     -0.189560   8 B  px        
   891     -0.189800  43 H  s               918     -0.189799  46 H  s         
    58      0.171007   3 B  px              183     -0.171002   8 B  px        
 
 Vector   88  Occ=1.000000D+00  E=-5.635682D-01
              MO Center=  5.0D+00,  4.5D-01,  1.7D+00, r^2= 1.7D+01
   Bfn.  Coefficient  Atom+Function         Bfn.  Coefficient  Atom+Function  
  ----- ------------  ---------------      ----- ------------  ---------------
   632      0.261433  26 N  pz              635      0.212898  26 N  pz        
   482      0.182599  20 N  pz              457      0.150508  19 N  pz        
   582      0.150508  24 N  pz        
 
 Vector   89  Occ=1.000000D+00  E=-5.619749D-01
              MO Center=  5.0D+00,  2.3D+00,  1.7D+00, r^2= 1.8D+01
   Bfn.  Coefficient  Atom+Function         Bfn.  Coefficient  Atom+Function  
  ----- ------------  ---------------      ----- ------------  ---------------
    33      0.298229   2 B  px              283     -0.298221  12 B  px        
   154      0.252230   7 B  s                 8     -0.218269   1 B  px        
   383      0.218261  16 B  px              170     -0.209613   7 B  dxx       
   554     -0.200227  23 N  s               873      0.199711  41 H  s         
   882     -0.199083  42 H  s               927     -0.199081  47 H  s         
 
 Vector   90  Occ=1.000000D+00  E=-5.517265D-01
              MO Center=  5.0D+00, -6.0D-01,  1.7D+00, r^2= 1.3D+01
   Bfn.  Coefficient  Atom+Function         Bfn.  Coefficient  Atom+Function  
  ----- ------------  ---------------      ----- ------------  ---------------
   407      0.206226  17 N  pz              782      0.206226  32 N  pz        
   507      0.194136  21 N  pz              757      0.194137  31 N  pz        
   410      0.164590  17 N  pz              785      0.164590  32 N  pz        
   557     -0.157167  23 N  pz              510      0.156112  21 N  pz        
   760      0.156112  31 N  pz        
 
 Vector   91  Occ=1.000000D+00  E=-5.498551D-01
              MO Center=  5.0D+00,  2.8D+00,  1.7D+00, r^2= 1.5D+01
   Bfn.  Coefficient  Atom+Function         Bfn.  Coefficient  Atom+Function  
  ----- ------------  ---------------      ----- ------------  ---------------
   170      0.427916   7 B  dxx             173     -0.355941   7 B  dyy       
    71     -0.322046   3 B  dxy             196      0.321966   8 B  dxy       
    33     -0.295184   2 B  px              283      0.295311  12 B  px        
     8     -0.240643   1 B  px              383      0.240498  16 B  px        
    84     -0.239037   4 B  py               34      0.234573   2 B  py        
 
 Vector   92  Occ=1.000000D+00  E=-5.492050D-01
              MO Center=  5.0D+00,  1.7D+00,  1.7D+00, r^2= 1.7D+01
   Bfn.  Coefficient  Atom+Function         Bfn.  Coefficient  Atom+Function  
  ----- ------------  ---------------      ----- ------------  ---------------
     8      0.266787   1 B  px              383      0.266918  16 B  px        
    33     -0.255829   2 B  px               62     -0.256489   3 B  py        
   187      0.256497   8 B  py              283     -0.255680  12 B  px        
   461      0.239488  19 N  px              586      0.239477  24 N  px        
   404      0.222226  17 N  s               779     -0.222325  32 N  s         
 
 Vector   93  Occ=1.000000D+00  E=-5.485171D-01
              MO Center=  5.0D+00, -5.3D-01,  1.7D+00, r^2= 1.5D+01
   Bfn.  Coefficient  Atom+Function         Bfn.  Coefficient  Atom+Function  
  ----- ------------  ---------------      ----- ------------  ---------------
   432      0.209751  18 N  pz              682     -0.209751  28 N  pz        
   507     -0.206186  21 N  pz              757      0.206187  31 N  pz        
   435      0.171042  18 N  pz              685     -0.171042  28 N  pz        
   607      0.169643  25 N  pz              732     -0.169643  30 N  pz        
   510     -0.162505  21 N  pz              760      0.162505  31 N  pz        
 
 Vector   94  Occ=1.000000D+00  E=-5.362422D-01
              MO Center=  5.0D+00,  2.8D+00,  1.7D+00, r^2= 1.0D+01
   Bfn.  Coefficient  Atom+Function         Bfn.  Coefficient  Atom+Function  
  ----- ------------  ---------------      ----- ------------  ---------------
   154      0.335123   7 B  s                59     -0.239344   3 B  py        
   184     -0.239340   8 B  py               33      0.235604   2 B  px        
   283     -0.235598  12 B  px              436     -0.220840  18 N  px        
   686      0.220844  28 N  px               84     -0.205424   4 B  py        
   159     -0.206035   7 B  py              156     -0.187082   7 B  py        
 
 Vector   95  Occ=1.000000D+00  E=-5.284713D-01
              MO Center=  5.0D+00,  3.5D+00,  1.7D+00, r^2= 1.3D+01
   Bfn.  Coefficient  Atom+Function         Bfn.  Coefficient  Atom+Function  
  ----- ------------  ---------------      ----- ------------  ---------------
    58      0.290670   3 B  px              183      0.290682   8 B  px        
   171      0.253483   7 B  dxy             436      0.241048  18 N  px        
   686      0.241038  28 N  px              246     -0.235170  10 B  dxy       
   437     -0.217332  18 N  py              687      0.217342  28 N  py        
   129     -0.209348   6 B  s               254      0.209338  11 B  s         
 
 Vector   96  Occ=1.000000D+00  E=-5.132131D-01
              MO Center=  5.0D+00,  1.6D+00,  1.7D+00, r^2= 1.5D+01
   Bfn.  Coefficient  Atom+Function         Bfn.  Coefficient  Atom+Function  
  ----- ------------  ---------------      ----- ------------  ---------------
   482      0.291125  20 N  pz              485      0.238409  20 N  pz        
   532      0.198660  22 N  pz              657      0.198660  27 N  pz        
   535      0.162169  22 N  pz              660      0.162169  27 N  pz        
 
 Vector   97  Occ=1.000000D+00  E=-5.107694D-01
              MO Center=  5.0D+00,  4.5D+00,  1.7D+00, r^2= 1.0D+01
   Bfn.  Coefficient  Atom+Function         Bfn.  Coefficient  Atom+Function  
  ----- ------------  ---------------      ----- ------------  ---------------
    83      0.408419   4 B  px              171     -0.318576   7 B  dxy       
   561      0.260239  23 N  px              462     -0.249507  19 N  py        
   587      0.249513  24 N  py               59      0.235382   3 B  py        
   184     -0.235387   8 B  py               33     -0.224297   2 B  px        
   283     -0.224278  12 B  px              454     -0.222162  19 N  s         
 
 Vector   98  Occ=1.000000D+00  E=-5.083836D-01
              MO Center=  5.0D+00, -1.0D+00,  1.7D+00, r^2= 1.0D+01
   Bfn.  Coefficient  Atom+Function         Bfn.  Coefficient  Atom+Function  
  ----- ------------  ---------------      ----- ------------  ---------------
   632      0.265221  26 N  pz              507     -0.221121  21 N  pz        
   757     -0.221125  31 N  pz              635      0.219072  26 N  pz        
   557     -0.199519  23 N  pz              510     -0.175575  21 N  pz        
   760     -0.175578  31 N  pz              560     -0.160223  23 N  pz        
   432      0.157673  18 N  pz              682      0.157673  28 N  pz        
 
 Vector   99  Occ=1.000000D+00  E=-5.039498D-01
              MO Center=  5.0D+00,  2.7D-01,  1.7D+00, r^2= 1.6D+01
   Bfn.  Coefficient  Atom+Function         Bfn.  Coefficient  Atom+Function  
  ----- ------------  ---------------      ----- ------------  ---------------
   457     -0.218260  19 N  pz              582      0.218260  24 N  pz        
   407      0.215812  17 N  pz              782     -0.215810  32 N  pz        
   507     -0.194510  21 N  pz              757      0.194506  31 N  pz        
   460     -0.179153  19 N  pz              585      0.179153  24 N  pz        
   410      0.172480  17 N  pz              785     -0.172478  32 N  pz        
 
 Vector  100  Occ=1.000000D+00  E=-4.983496D-01
              MO Center=  5.0D+00,  6.6D+00,  1.7D+00, r^2= 4.8D+00
   Bfn.  Coefficient  Atom+Function         Bfn.  Coefficient  Atom+Function  
  ----- ------------  ---------------      ----- ------------  ---------------
   486      0.414709  20 N  px               83     -0.337057   4 B  px        
    80     -0.314443   4 B  px              461      0.272145  19 N  px        
   586      0.272147  24 N  px              900     -0.267108  44 H  s         
   909      0.267106  45 H  s               480      0.239435  20 N  px        
    54      0.216387   3 B  s               179     -0.216401   8 B  s         
 
 Vector  101  Occ=1.000000D+00  E=-4.880323D-01
              MO Center=  5.0D+00, -4.4D-01,  1.7D+00, r^2= 8.0D+00
   Bfn.  Coefficient  Atom+Function         Bfn.  Coefficient  Atom+Function  
  ----- ------------  ---------------      ----- ------------  ---------------
   532      0.300438  22 N  pz              657     -0.300438  27 N  pz        
   535      0.248361  22 N  pz              660     -0.248362  27 N  pz        
   407     -0.212269  17 N  pz              782      0.212269  32 N  pz        
   410     -0.171940  17 N  pz              785      0.171940  32 N  pz        
 
 Vector  102  Occ=1.000000D+00  E=-4.673525D-01
              MO Center=  5.0D+00,  2.4D+00,  1.7D+00, r^2= 1.3D+01
   Bfn.  Coefficient  Atom+Function         Bfn.  Coefficient  Atom+Function  
  ----- ------------  ---------------      ----- ------------  ---------------
   482      0.261618  20 N  pz              485      0.219016  20 N  pz        
   432      0.203038  18 N  pz              682      0.203039  28 N  pz        
   457     -0.179480  19 N  pz              582     -0.179480  24 N  pz        
   435      0.170849  18 N  pz              685      0.170849  28 N  pz        
   407     -0.162150  17 N  pz              782     -0.162150  32 N  pz        
 
 Vector  103  Occ=1.000000D+00  E=-4.609688D-01
              MO Center=  5.0D+00,  1.3D+00,  1.7D+00, r^2= 9.7D+00
   Bfn.  Coefficient  Atom+Function         Bfn.  Coefficient  Atom+Function  
  ----- ------------  ---------------      ----- ------------  ---------------
   557      0.332813  23 N  pz              560      0.279066  23 N  pz        
   482      0.165727  20 N  pz              407      0.164428  17 N  pz        
   782      0.164427  32 N  pz        
 
 Vector  104  Occ=1.000000D+00  E=-4.569859D-01
              MO Center=  5.0D+00,  1.6D+00,  1.7D+00, r^2= 1.0D+01
   Bfn.  Coefficient  Atom+Function         Bfn.  Coefficient  Atom+Function  
  ----- ------------  ---------------      ----- ------------  ---------------
   457     -0.238090  19 N  pz              582      0.238089  24 N  pz        
   432      0.230683  18 N  pz              682     -0.230685  28 N  pz        
   460     -0.199972  19 N  pz              585      0.199971  24 N  pz        
   435      0.195816  18 N  pz              685     -0.195817  28 N  pz        
 
 Vector  105  Occ=0.000000D+00  E=-1.158711D-01
              MO Center=  5.0D+00, -8.3D+00,  1.7D+00, r^2= 9.8D+00
   Bfn.  Coefficient  Atom+Function         Bfn.  Coefficient  Atom+Function  
  ----- ------------  ---------------      ----- ------------  ---------------
   304      3.122862  13 B  s               204     -0.988894   9 B  s         
   329     -0.988629  14 B  s               479      0.969367  20 N  s         
   629      0.810943  26 N  s               312      0.782588  13 B  py        
   237      0.688156  10 B  py              212      0.684283   9 B  py        
   337      0.684167  14 B  py              554      0.666509  23 N  s         
 
 Vector  106  Occ=0.000000D+00  E=-8.333051D-02
              MO Center=  5.0D+00, -7.6D+00,  1.7D+00, r^2= 1.7D+01
   Bfn.  Coefficient  Atom+Function         Bfn.  Coefficient  Atom+Function  
  ----- ------------  ---------------      ----- ------------  ---------------
   204      3.909739   9 B  s               329     -3.909537  14 B  s         
   830      1.415192  36 H  s               839     -1.415206  37 H  s         
   211      1.210079   9 B  px              336      1.209989  14 B  px        
   604     -1.058711  25 N  s               729      1.058675  30 N  s         
   212     -1.021135   9 B  py              337      1.021052  14 B  py        
 
 Vector  107  Occ=0.000000D+00  E=-6.659450D-02
              MO Center=  5.0D+00, -7.1D+00,  1.7D+00, r^2= 1.7D+01
   Bfn.  Coefficient  Atom+Function         Bfn.  Coefficient  Atom+Function  
  ----- ------------  ---------------      ----- ------------  ---------------
   313      2.188713  13 B  pz              213     -0.959379   9 B  pz        
   338     -0.959380  14 B  pz              113      0.660827   5 B  pz        
   363      0.660827  15 B  pz              238      0.595188  10 B  pz        
   138     -0.488518   6 B  pz              263     -0.488517  11 B  pz        
   613     -0.362272  25 N  pz              738     -0.362271  30 N  pz        
 
 Vector  108  Occ=0.000000D+00  E=-6.436044D-02
              MO Center=  5.0D+00, -6.5D+00,  1.7D+00, r^2= 2.3D+01
   Bfn.  Coefficient  Atom+Function         Bfn.  Coefficient  Atom+Function  
  ----- ------------  ---------------      ----- ------------  ---------------
   821      2.113473  35 H  s               848      2.113498  38 H  s         
   830     -1.706642  36 H  s               839     -1.706635  37 H  s         
   479     -1.488432  20 N  s               529     -1.252992  22 N  s         
   654     -1.253079  27 N  s               304      1.236065  13 B  s         
   604     -1.216631  25 N  s               729     -1.216608  30 N  s         
 
 Vector  109  Occ=0.000000D+00  E=-4.600380D-02
              MO Center=  5.0D+00, -5.2D+00,  1.7D+00, r^2= 3.5D+01
   Bfn.  Coefficient  Atom+Function         Bfn.  Coefficient  Atom+Function  
  ----- ------------  ---------------      ----- ------------  ---------------
   204      5.502081   9 B  s               329     -5.501898  14 B  s         
   830     -2.890114  36 H  s               839      2.890082  37 H  s         
   104      2.755704   5 B  s               354     -2.755847  15 B  s         
   236      2.361549  10 B  px              636      2.043951  26 N  px        
   404     -1.903633  17 N  s               779      1.903640  32 N  s         
 
 Vector  110  Occ=0.000000D+00  E=-4.445595D-02
              MO Center=  5.0D+00, -6.0D+00,  1.7D+00, r^2= 2.3D+01
   Bfn.  Coefficient  Atom+Function         Bfn.  Coefficient  Atom+Function  
  ----- ------------  ---------------      ----- ------------  ---------------
   312      4.629784  13 B  py              504      4.499087  21 N  s         
   754      4.499289  31 N  s               821      4.096861  35 H  s         
   848      4.096841  38 H  s               554      4.056651  23 N  s         
   303     -3.485328  13 B  s               604      3.307984  25 N  s         
   729      3.307903  30 N  s               104     -2.959555   5 B  s         
 
 Vector  111  Occ=0.000000D+00  E=-3.205608D-02
              MO Center=  5.0D+00, -3.9D+00,  1.7D+00, r^2= 3.7D+01
   Bfn.  Coefficient  Atom+Function         Bfn.  Coefficient  Atom+Function  
  ----- ------------  ---------------      ----- ------------  ---------------
   312      3.743046  13 B  py              479     -3.102879  20 N  s         
   821     -2.846965  35 H  s               848     -2.846986  38 H  s         
   830      2.723872  36 H  s               839      2.724064  37 H  s         
   104     -2.624404   5 B  s               354     -2.624798  15 B  s         
   504     -2.587942  21 N  s               754     -2.588126  31 N  s         
 
 Vector  112  Occ=0.000000D+00  E=-2.649632D-02
              MO Center=  5.0D+00, -3.3D+00,  1.7D+00, r^2= 3.0D+01
   Bfn.  Coefficient  Atom+Function         Bfn.  Coefficient  Atom+Function  
  ----- ------------  ---------------      ----- ------------  ---------------
   238      2.153029  10 B  pz              213     -1.941597   9 B  pz        
   338     -1.941601  14 B  pz              313      1.656739  13 B  pz        
   138     -0.911198   6 B  pz              263     -0.911196  11 B  pz        
   638      0.561367  26 N  pz              513      0.508519  21 N  pz        
   763      0.508520  31 N  pz              163      0.491063   7 B  pz        
 
 Vector  113  Occ=0.000000D+00  E=-2.605658D-02
              MO Center=  5.0D+00, -5.6D+00,  1.7D+00, r^2= 3.8D+01
   Bfn.  Coefficient  Atom+Function         Bfn.  Coefficient  Atom+Function  
  ----- ------------  ---------------      ----- ------------  ---------------
   304     15.249448  13 B  s               312      9.753759  13 B  py        
   204     -7.294050   9 B  s               329     -7.292216  14 B  s         
   212      5.576455   9 B  py              337      5.575831  14 B  py        
   229     -4.583151  10 B  s               237      4.285107  10 B  py        
   604     -3.943363  25 N  s               729     -3.944361  30 N  s         
 
 Vector  114  Occ=0.000000D+00  E=-2.378604D-02
              MO Center=  5.0D+00, -4.6D+00,  1.7D+00, r^2= 2.8D+01
   Bfn.  Coefficient  Atom+Function         Bfn.  Coefficient  Atom+Function  
  ----- ------------  ---------------      ----- ------------  ---------------
   213      3.041095   9 B  pz              338     -3.041094  14 B  pz        
   113     -0.826425   5 B  pz              363      0.826418  15 B  pz        
   513     -0.756563  21 N  pz              763      0.756562  31 N  pz        
    13      0.474886   1 B  pz              388     -0.474884  16 B  pz        
   613     -0.337971  25 N  pz              738      0.337970  30 N  pz        
 
 Vector  115  Occ=0.000000D+00  E=-1.874815D-02
              MO Center=  5.0D+00, -2.5D+00,  1.7D+00, r^2= 5.9D+01
   Bfn.  Coefficient  Atom+Function         Bfn.  Coefficient  Atom+Function  
  ----- ------------  ---------------      ----- ------------  ---------------
   830      3.663620  36 H  s               839     -3.663788  37 H  s         
     4      3.568557   1 B  s               379     -3.568574  16 B  s         
   204     -2.871871   9 B  s               329      2.872029  14 B  s         
   404     -2.695837  17 N  s               779      2.696038  32 N  s         
    11      2.426265   1 B  px              386      2.426311  16 B  px        
 
 Vector  116  Occ=0.000000D+00  E=-1.382538D-02
              MO Center=  5.0D+00, -3.0D+00,  1.7D+00, r^2= 5.7D+01
   Bfn.  Coefficient  Atom+Function         Bfn.  Coefficient  Atom+Function  
  ----- ------------  ---------------      ----- ------------  ---------------
   304     12.651291  13 B  s               875     -4.441201  41 H  s         
   938     -4.440830  48 H  s                11     -3.631775   1 B  px        
   386      3.631576  16 B  px              237      3.445114  10 B  py        
   629      2.841972  26 N  s               604     -2.463990  25 N  s         
   729     -2.464615  30 N  s               704     -2.440969  29 N  s         
 
 Vector  117  Occ=0.000000D+00  E=-7.335264D-03
              MO Center=  5.0D+00, -4.3D+00,  1.7D+00, r^2= 3.6D+01
   Bfn.  Coefficient  Atom+Function         Bfn.  Coefficient  Atom+Function  
  ----- ------------  ---------------      ----- ------------  ---------------
   311      8.563995  13 B  px              821      8.338558  35 H  s         
   848     -8.337995  38 H  s               204      4.170838   9 B  s         
   329     -4.166635  14 B  s               211      3.276303   9 B  px        
   336      3.275737  14 B  px              812      3.244219  34 H  s         
   857     -3.243483  39 H  s               830     -2.754727  36 H  s         
 
 Vector  118  Occ=0.000000D+00  E=-6.936611D-03
              MO Center=  5.0D+00, -8.4D-02,  1.7D+00, r^2= 5.3D+01
   Bfn.  Coefficient  Atom+Function         Bfn.  Coefficient  Atom+Function  
  ----- ------------  ---------------      ----- ------------  ---------------
   204      9.194502   9 B  s               329      9.195019  14 B  s         
   312     -8.490003  13 B  py              554     -7.773291  23 N  s         
   629     -7.338614  26 N  s               479     -4.991680  20 N  s         
   304     -4.545066  13 B  s               454     -4.284974  19 N  s         
   579     -4.285278  24 N  s               529     -4.225620  22 N  s         
 
 Vector  119  Occ=0.000000D+00  E=-3.844436D-03
              MO Center=  5.0D+00,  1.0D+00,  1.7D+00, r^2= 4.1D+01
   Bfn.  Coefficient  Atom+Function         Bfn.  Coefficient  Atom+Function  
  ----- ------------  ---------------      ----- ------------  ---------------
   238      2.205526  10 B  pz              213     -1.735963   9 B  pz        
   338     -1.735956  14 B  pz              313      1.107121  13 B  pz        
   163      0.961230   7 B  pz              138     -0.826625   6 B  pz        
   263     -0.826620  11 B  pz              538     -0.404920  22 N  pz        
   663     -0.404920  27 N  pz              113      0.397526   5 B  pz        
 
 Vector  120  Occ=0.000000D+00  E= 3.110229D-04
              MO Center=  5.0D+00,  7.3D-01,  1.7D+00, r^2= 6.9D+01
   Bfn.  Coefficient  Atom+Function         Bfn.  Coefficient  Atom+Function  
  ----- ------------  ---------------      ----- ------------  ---------------
   821      4.303950  35 H  s               848     -4.304261  38 H  s         
   104      3.664097   5 B  s               354     -3.663815  15 B  s         
   830      3.582881  36 H  s               839     -3.582607  37 H  s         
   211      3.361350   9 B  px              336      3.361512  14 B  px        
    54     -3.304136   3 B  s               179      3.303995   8 B  s         
 
 Vector  121  Occ=0.000000D+00  E= 1.015805D-03
              MO Center=  5.0D+00, -3.9D-01,  1.7D+00, r^2= 4.4D+01
   Bfn.  Coefficient  Atom+Function         Bfn.  Coefficient  Atom+Function  
[...]
   138      2.421413   6 B  pz              263      2.421428  11 B  pz        
   113     -2.312851   5 B  pz              363     -2.312863  15 B  pz        
   213      2.072358   9 B  pz              338      2.072366  14 B  pz        
   163     -2.030989   7 B  pz              122      1.891987   5 B  dxz       
 
 Vector  331  Occ=0.000000D+00  E= 5.019855D-01
              MO Center=  5.0D+00, -1.1D+00,  1.7D+00, r^2= 3.1D+01
   Bfn.  Coefficient  Atom+Function         Bfn.  Coefficient  Atom+Function  
  ----- ------------  ---------------      ----- ------------  ---------------
   504     12.191327  21 N  s               754    -12.198986  31 N  s         
   604    -10.657445  25 N  s               729     10.660410  30 N  s         
   145      9.165734   6 B  dxx             270     -9.165738  11 B  dxx       
   236      8.827103  10 B  px              171      8.355837   7 B  dxy       
   220     -8.366786   9 B  dxx             345      8.368066  14 B  dxx       
 

 center of mass
 --------------
 x =   9.46371063 y =  -0.18953147 z =   3.14696128

 moments of inertia (a.u.)
 ------------------
       19155.010955393758          -0.000574376282          -0.000751488398
          -0.000574376282        6226.010879148279           0.000403643828
          -0.000751488398           0.000403643828       25381.021834494957
 
  Mulliken analysis of the total density
  --------------------------------------

    Atom       Charge   Shell Charges
 -----------   ------   -------------------------------------------------------
    1 B    5     5.86   2.01  0.61  0.59  0.22  1.54  0.62 -0.00  0.24  0.04
    2 B    5     5.95   2.01  0.61  0.55  0.08  1.53  0.77  0.04  0.25  0.12
    3 B    5     5.73   2.01  0.61  0.54  0.09  1.52  0.64 -0.04  0.24  0.12
    4 B    5     6.35   2.01  0.61  0.75  0.01  1.48  1.33  0.08  0.11 -0.02
    5 B    5     4.13   2.01  0.60  0.08  0.03  1.57 -0.35 -0.08  0.41 -0.14
    6 B    5     4.15   2.01  0.60  0.14 -0.12  1.56 -0.24 -0.06  0.42 -0.17
    7 B    5     4.09   2.01  0.60 -0.04 -0.12  1.56 -0.22 -0.11  0.41 -0.01
    8 B    5     5.73   2.01  0.61  0.54  0.09  1.52  0.64 -0.04  0.24  0.12
    9 B    5     4.09   2.01  0.60  0.14 -0.04  1.58 -0.38 -0.04  0.41 -0.19
   10 B    5     4.31   2.01  0.60  0.19  0.03  1.57 -0.26 -0.15  0.43 -0.10
   11 B    5     4.15   2.01  0.60  0.14 -0.12  1.56 -0.24 -0.06  0.42 -0.17
   12 B    5     5.95   2.01  0.61  0.55  0.08  1.53  0.77  0.04  0.25  0.12
   13 B    5     4.33   2.01  0.59  0.11  0.10  1.61 -0.34 -0.01  0.36 -0.11
   14 B    5     4.09   2.01  0.60  0.14 -0.04  1.58 -0.38 -0.04  0.41 -0.19
   15 B    5     4.13   2.01  0.60  0.08  0.03  1.57 -0.35 -0.08  0.41 -0.14
   16 B    5     5.86   2.01  0.61  0.59  0.22  1.54  0.62 -0.00  0.24  0.04
   17 N    7     7.21   2.01  0.71  0.52  0.31  2.44  1.25 -0.02  0.05 -0.07
   18 N    7     7.15   2.01  0.71  0.52  0.40  2.45  1.30 -0.19  0.06 -0.09
   19 N    7     7.05   2.01  0.71  0.51  0.23  2.45  1.29 -0.11  0.06 -0.09
   20 N    7     6.67   2.01  0.71  0.52  0.18  2.44  1.33 -0.46  0.06 -0.11
   21 N    7     7.38   2.01  0.71  0.52  0.36  2.45  1.24  0.11  0.05 -0.06
   22 N    7     7.37   2.01  0.70  0.52  0.23  2.46  1.26  0.22  0.05 -0.07
   23 N    7     7.45   2.01  0.71  0.52  0.28  2.46  1.24  0.25  0.06 -0.08
   24 N    7     7.05   2.01  0.71  0.51  0.23  2.45  1.29 -0.11  0.06 -0.09
   25 N    7     7.27   2.01  0.72  0.52  0.25  2.43  1.24  0.13  0.05 -0.07
   26 N    7     7.38   2.01  0.70  0.53  0.33  2.45  1.28  0.10  0.05 -0.07
   27 N    7     7.37   2.01  0.70  0.52  0.23  2.46  1.26  0.22  0.05 -0.07
   28 N    7     7.15   2.01  0.71  0.52  0.40  2.45  1.30 -0.19  0.06 -0.09
   29 N    7     6.53   2.01  0.76  0.53 -0.06  2.34  0.97  0.05  0.03 -0.10
   30 N    7     7.27   2.01  0.72  0.52  0.25  2.43  1.24  0.13  0.05 -0.07
   31 N    7     7.38   2.01  0.71  0.52  0.36  2.45  1.24  0.11  0.05 -0.06
   32 N    7     7.21   2.01  0.71  0.52  0.31  2.44  1.25 -0.02  0.05 -0.07
   33 H    1     1.25   0.76  0.38  0.05  0.05  0.01
   34 H    1     1.26   0.76  0.41  0.03  0.06  0.01
   35 H    1     1.25   0.75  0.40  0.03  0.06  0.02
   36 H    1     0.98   0.72  0.22  0.00  0.05 -0.01
   37 H    1     0.98   0.72  0.22  0.00  0.05 -0.01
   38 H    1     1.25   0.75  0.40  0.03  0.06  0.02
   39 H    1     1.26   0.76  0.41  0.03  0.06  0.01
   40 H    1     1.25   0.76  0.38  0.05  0.05  0.01
   41 H    1     0.41   0.78 -0.30 -0.05  0.02 -0.04
   42 H    1     0.45   0.78 -0.39  0.09  0.02 -0.04
   43 H    1     0.45   0.78 -0.34  0.01  0.02 -0.03
   44 H    1     0.54   0.77 -0.24 -0.02  0.02  0.01
   45 H    1     0.54   0.77 -0.24 -0.02  0.02  0.01
   46 H    1     0.45   0.78 -0.34  0.01  0.02 -0.03
   47 H    1     0.45   0.78 -0.39  0.09  0.02 -0.04
   48 H    1     0.41   0.78 -0.30 -0.05  0.02 -0.04
 
  Mulliken analysis of the alpha density
  --------------------------------------

    Atom       Charge   Shell Charges
 -----------   ------   -------------------------------------------------------
    1 B    5     2.93   1.00  0.30  0.29  0.11  0.77  0.31 -0.00  0.12  0.02
    2 B    5     2.98   1.00  0.31  0.27  0.04  0.77  0.39  0.02  0.12  0.06
    3 B    5     2.86   1.00  0.30  0.27  0.05  0.76  0.32 -0.02  0.12  0.06
    4 B    5     3.17   1.00  0.31  0.37  0.00  0.74  0.66  0.04  0.06 -0.01
    5 B    5     2.06   1.00  0.30  0.04  0.01  0.79 -0.18 -0.04  0.20 -0.07
    6 B    5     2.08   1.00  0.30  0.07 -0.06  0.78 -0.12 -0.03  0.21 -0.09
    7 B    5     2.04   1.00  0.30 -0.02 -0.06  0.78 -0.11 -0.05  0.21 -0.00
    8 B    5     2.86   1.00  0.30  0.27  0.05  0.76  0.32 -0.02  0.12  0.06
    9 B    5     2.04   1.00  0.30  0.07 -0.02  0.78 -0.19 -0.02  0.20 -0.09
   10 B    5     2.15   1.00  0.30  0.09  0.01  0.78 -0.13 -0.07  0.21 -0.05
   11 B    5     2.08   1.00  0.30  0.07 -0.06  0.78 -0.12 -0.03  0.21 -0.09
   12 B    5     2.98   1.00  0.31  0.27  0.04  0.77  0.39  0.02  0.12  0.06
   13 B    5     2.08   1.00  0.29  0.05  0.05  0.76 -0.19 -0.01  0.19 -0.07
   14 B    5     2.04   1.00  0.30  0.07 -0.02  0.78 -0.19 -0.02  0.20 -0.09
   15 B    5     2.06   1.00  0.30  0.04  0.01  0.79 -0.18 -0.04  0.20 -0.07
   16 B    5     2.93   1.00  0.30  0.29  0.11  0.77  0.31 -0.00  0.12  0.02
   17 N    7     3.60   1.00  0.36  0.26  0.16  1.22  0.62 -0.01  0.02 -0.03
   18 N    7     3.58   1.00  0.35  0.26  0.20  1.22  0.65 -0.10  0.03 -0.04
   19 N    7     3.53   1.00  0.35  0.26  0.11  1.23  0.65 -0.05  0.03 -0.05
   20 N    7     3.33   1.00  0.35  0.26  0.09  1.22  0.67 -0.23  0.03 -0.06
   21 N    7     3.69   1.00  0.36  0.26  0.18  1.23  0.62  0.05  0.02 -0.03
   22 N    7     3.69   1.00  0.35  0.26  0.11  1.23  0.63  0.11  0.03 -0.04
   23 N    7     3.73   1.00  0.35  0.26  0.14  1.23  0.62  0.13  0.03 -0.04
   24 N    7     3.53   1.00  0.35  0.26  0.11  1.23  0.65 -0.05  0.03 -0.05
   25 N    7     3.69   1.00  0.36  0.26  0.12  1.26  0.64  0.06  0.02 -0.04
   26 N    7     3.71   1.00  0.35  0.27  0.16  1.24  0.65  0.05  0.03 -0.04
   27 N    7     3.69   1.00  0.35  0.26  0.11  1.23  0.63  0.11  0.03 -0.04
   28 N    7     3.58   1.00  0.35  0.26  0.20  1.22  0.65 -0.10  0.03 -0.04
   29 N    7     3.82   1.00  0.40  0.28 -0.03  1.49  0.69  0.04  0.01 -0.05
   30 N    7     3.69   1.00  0.36  0.26  0.12  1.26  0.64  0.06  0.02 -0.04
   31 N    7     3.69   1.00  0.36  0.26  0.18  1.23  0.62  0.05  0.02 -0.03
   32 N    7     3.60   1.00  0.36  0.26  0.16  1.22  0.62 -0.01  0.02 -0.03
   33 H    1     0.63   0.38  0.19  0.02  0.03  0.00
   34 H    1     0.63   0.38  0.21  0.01  0.03  0.01
   35 H    1     0.62   0.37  0.20  0.01  0.03  0.01
   36 H    1     0.45   0.34  0.10 -0.00  0.03 -0.01
   37 H    1     0.45   0.34  0.10 -0.00  0.03 -0.01
   38 H    1     0.62   0.37  0.20  0.01  0.03  0.01
   39 H    1     0.63   0.38  0.21  0.01  0.03  0.01
   40 H    1     0.63   0.38  0.19  0.02  0.03  0.00
   41 H    1     0.21   0.39 -0.15 -0.02  0.01 -0.02
   42 H    1     0.23   0.39 -0.20  0.04  0.01 -0.02
   43 H    1     0.22   0.39 -0.17  0.01  0.01 -0.01
   44 H    1     0.27   0.39 -0.12 -0.01  0.01  0.01
   45 H    1     0.27   0.39 -0.12 -0.01  0.01  0.01
   46 H    1     0.22   0.39 -0.17  0.01  0.01 -0.01
   47 H    1     0.23   0.39 -0.20  0.04  0.01 -0.02
   48 H    1     0.21   0.39 -0.15 -0.02  0.01 -0.02
 
   Mulliken analysis of the beta density
   -------------------------------------

    Atom       Charge   Shell Charges
 -----------   ------   -------------------------------------------------------
    1 B    5     2.93   1.00  0.30  0.29  0.11  0.77  0.31 -0.00  0.12  0.02
    2 B    5     2.98   1.00  0.31  0.27  0.04  0.77  0.39  0.02  0.12  0.06
    3 B    5     2.86   1.00  0.30  0.27  0.05  0.76  0.32 -0.02  0.12  0.06
    4 B    5     3.17   1.00  0.31  0.37  0.00  0.74  0.66  0.04  0.06 -0.01
    5 B    5     2.06   1.00  0.30  0.04  0.01  0.79 -0.18 -0.04  0.20 -0.07
    6 B    5     2.08   1.00  0.30  0.07 -0.06  0.78 -0.12 -0.03  0.21 -0.09
    7 B    5     2.04   1.00  0.30 -0.02 -0.06  0.78 -0.11 -0.05  0.21 -0.00
    8 B    5     2.86   1.00  0.30  0.27  0.05  0.76  0.32 -0.02  0.12  0.06
    9 B    5     2.05   1.00  0.30  0.07 -0.02  0.80 -0.19 -0.02  0.20 -0.10
   10 B    5     2.16   1.00  0.30  0.10  0.01  0.78 -0.13 -0.07  0.21 -0.05
   11 B    5     2.08   1.00  0.30  0.07 -0.06  0.78 -0.12 -0.03  0.21 -0.09
   12 B    5     2.98   1.00  0.31  0.27  0.04  0.77  0.39  0.02  0.12  0.06
   13 B    5     2.25   1.00  0.30  0.06  0.05  0.85 -0.14 -0.00  0.17 -0.04
   14 B    5     2.05   1.00  0.30  0.07 -0.02  0.80 -0.19 -0.02  0.20 -0.10
   15 B    5     2.06   1.00  0.30  0.04  0.01  0.79 -0.18 -0.04  0.20 -0.07
   16 B    5     2.93   1.00  0.30  0.29  0.11  0.77  0.31 -0.00  0.12  0.02
   17 N    7     3.60   1.00  0.36  0.26  0.16  1.22  0.62 -0.01  0.02 -0.03
   18 N    7     3.58   1.00  0.35  0.26  0.20  1.22  0.65 -0.10  0.03 -0.04
   19 N    7     3.53   1.00  0.35  0.26  0.11  1.23  0.65 -0.05  0.03 -0.05
   20 N    7     3.33   1.00  0.35  0.26  0.09  1.22  0.67 -0.23  0.03 -0.06
   21 N    7     3.69   1.00  0.36  0.26  0.18  1.22  0.62  0.05  0.02 -0.03
   22 N    7     3.68   1.00  0.35  0.26  0.11  1.23  0.63  0.11  0.03 -0.04
   23 N    7     3.73   1.00  0.35  0.26  0.14  1.23  0.62  0.13  0.03 -0.04
   24 N    7     3.53   1.00  0.35  0.26  0.11  1.23  0.65 -0.05  0.03 -0.05
   25 N    7     3.58   1.00  0.36  0.26  0.13  1.18  0.60  0.07  0.02 -0.03
   26 N    7     3.68   1.00  0.35  0.26  0.16  1.21  0.64  0.05  0.03 -0.03
   27 N    7     3.68   1.00  0.35  0.26  0.11  1.23  0.63  0.11  0.03 -0.04
   28 N    7     3.58   1.00  0.35  0.26  0.20  1.22  0.65 -0.10  0.03 -0.04
   29 N    7     2.70   1.00  0.36  0.25 -0.03  0.85  0.28  0.01  0.02 -0.04
   30 N    7     3.58   1.00  0.36  0.26  0.13  1.18  0.60  0.07  0.02 -0.03
   31 N    7     3.69   1.00  0.36  0.26  0.18  1.22  0.62  0.05  0.02 -0.03
   32 N    7     3.60   1.00  0.36  0.26  0.16  1.22  0.62 -0.01  0.02 -0.03
   33 H    1     0.63   0.38  0.19  0.02  0.03  0.00
   34 H    1     0.63   0.38  0.21  0.01  0.03  0.01
   35 H    1     0.63   0.38  0.20  0.01  0.03  0.01
   36 H    1     0.53   0.38  0.12  0.00  0.02 -0.00
   37 H    1     0.53   0.38  0.12  0.00  0.02 -0.00
   38 H    1     0.63   0.38  0.20  0.01  0.03  0.01
   39 H    1     0.63   0.38  0.21  0.01  0.03  0.01
   40 H    1     0.63   0.38  0.19  0.02  0.03  0.00
   41 H    1     0.21   0.39 -0.15 -0.02  0.01 -0.02
   42 H    1     0.23   0.39 -0.20  0.04  0.01 -0.02
   43 H    1     0.22   0.39 -0.17  0.01  0.01 -0.01
   44 H    1     0.27   0.39 -0.12 -0.01  0.01  0.01
   45 H    1     0.27   0.39 -0.12 -0.01  0.01  0.01
   46 H    1     0.22   0.39 -0.17  0.01  0.01 -0.01
   47 H    1     0.23   0.39 -0.20  0.04  0.01 -0.02
   48 H    1     0.21   0.39 -0.15 -0.02  0.01 -0.02
 
   Mulliken analysis of the spin density
   -------------------------------------

    Atom       Charge   Shell Charges
 -----------   ------   -------------------------------------------------------
    1 B    5    -0.00   0.00 -0.00 -0.00 -0.00 -0.00 -0.00 -0.00 -0.00 -0.00
    2 B    5    -0.00  -0.00 -0.00 -0.00 -0.00 -0.00 -0.00  0.00  0.00 -0.00
    3 B    5    -0.00  -0.00 -0.00 -0.00 -0.00 -0.00 -0.00  0.00  0.00 -0.00
    4 B    5    -0.00  -0.00 -0.00 -0.00 -0.00  0.00 -0.00 -0.00  0.00 -0.00
    5 B    5    -0.00   0.00 -0.00 -0.00  0.00 -0.00 -0.00 -0.00  0.00 -0.00
    6 B    5    -0.00  -0.00 -0.00 -0.00 -0.00 -0.00 -0.00  0.00  0.00  0.00
    7 B    5    -0.00  -0.00 -0.00 -0.00 -0.00 -0.00 -0.00 -0.00  0.00  0.00
    8 B    5    -0.00  -0.00 -0.00 -0.00 -0.00 -0.00 -0.00  0.00  0.00 -0.00
    9 B    5    -0.01  -0.00 -0.00 -0.00 -0.00 -0.01 -0.00 -0.00  0.00  0.00
   10 B    5    -0.00  -0.00 -0.00 -0.00 -0.00 -0.00 -0.00 -0.00  0.00 -0.00
   11 B    5    -0.00  -0.00 -0.00 -0.00 -0.00 -0.00 -0.00  0.00  0.00  0.00
   12 B    5    -0.00  -0.00 -0.00 -0.00 -0.00 -0.00 -0.00  0.00  0.00 -0.00
   13 B    5    -0.17  -0.00 -0.02 -0.00  0.01 -0.10 -0.05 -0.00  0.02 -0.02
   14 B    5    -0.01  -0.00 -0.00 -0.00 -0.00 -0.01 -0.00 -0.00  0.00  0.00
   15 B    5    -0.00   0.00 -0.00 -0.00  0.00 -0.00 -0.00 -0.00  0.00 -0.00
   16 B    5    -0.00   0.00 -0.00 -0.00 -0.00 -0.00 -0.00 -0.00 -0.00 -0.00
   17 N    7    -0.00   0.00  0.00 -0.00 -0.00 -0.00  0.00  0.00 -0.00 -0.00
   18 N    7     0.00  -0.00  0.00  0.00  0.00  0.00  0.00 -0.00 -0.00 -0.00
   19 N    7     0.00  -0.00  0.00  0.00  0.00  0.00  0.00 -0.00 -0.00 -0.00
   20 N    7     0.00  -0.00  0.00  0.00 -0.00  0.00  0.00 -0.00 -0.00 -0.00
   21 N    7     0.01  -0.00  0.00  0.00  0.00  0.00  0.00  0.00 -0.00 -0.00
   22 N    7     0.00  -0.00  0.00  0.00  0.00  0.00  0.00 -0.00 -0.00 -0.00
   23 N    7     0.00  -0.00  0.00  0.00  0.00  0.00  0.00 -0.00 -0.00 -0.00
   24 N    7     0.00  -0.00  0.00  0.00  0.00  0.00  0.00 -0.00 -0.00 -0.00
   25 N    7     0.10  -0.00  0.01  0.00 -0.01  0.08  0.04 -0.01 -0.00 -0.01
   26 N    7     0.03  -0.00  0.00  0.00 -0.00  0.02  0.01 -0.00 -0.00 -0.00
   27 N    7     0.00  -0.00  0.00  0.00  0.00  0.00  0.00 -0.00 -0.00 -0.00
   28 N    7     0.00  -0.00  0.00  0.00  0.00  0.00  0.00 -0.00 -0.00 -0.00
   29 N    7     1.12  -0.00  0.04  0.03 -0.01  0.64  0.41  0.03 -0.01 -0.01
   30 N    7     0.10  -0.00  0.01  0.00 -0.01  0.08  0.04 -0.01 -0.00 -0.01
   31 N    7     0.01  -0.00  0.00  0.00  0.00  0.00  0.00  0.00 -0.00 -0.00
   32 N    7    -0.00   0.00  0.00 -0.00 -0.00 -0.00  0.00  0.00 -0.00 -0.00
   33 H    1     0.00  -0.00  0.00  0.00 -0.00  0.00
   34 H    1    -0.00  -0.00 -0.00  0.00  0.00 -0.00
   35 H    1    -0.01  -0.01 -0.00 -0.00  0.00 -0.00
   36 H    1    -0.07  -0.05 -0.03 -0.00  0.01 -0.01
   37 H    1    -0.07  -0.05 -0.03 -0.00  0.01 -0.01
   38 H    1    -0.01  -0.01 -0.00 -0.00  0.00 -0.00
   39 H    1    -0.00  -0.00 -0.00  0.00  0.00 -0.00
   40 H    1     0.00  -0.00  0.00  0.00 -0.00  0.00
   41 H    1     0.00   0.00  0.00 -0.00 -0.00 -0.00
   42 H    1     0.00   0.00  0.00 -0.00 -0.00 -0.00
   43 H    1     0.00   0.00  0.00 -0.00 -0.00  0.00
   44 H    1     0.00  -0.00  0.00  0.00  0.00  0.00
   45 H    1     0.00  -0.00  0.00  0.00  0.00  0.00
   46 H    1     0.00   0.00  0.00 -0.00 -0.00  0.00
   47 H    1     0.00   0.00  0.00 -0.00 -0.00 -0.00
   48 H    1     0.00   0.00  0.00 -0.00 -0.00 -0.00
 
       Multipole analysis of the density wrt the origin
       ------------------------------------------------
 
     L   x y z        total         alpha         beta         nuclear
     -   - - -        -----         -----         ----         -------
     0   0 0 0      1.000000   -104.000000   -103.000000    208.000000
 
     1   1 0 0      9.463704   -984.225916   -974.762208   1968.451828
     1   0 1 0    -13.454641     24.623784     11.564871    -49.643296
     1   0 0 1      3.146965   -327.283974   -324.137006    654.567946
 
     2   2 0 0    -26.108318 -11014.324182 -10923.824921  21912.040785
     2   1 1 0   -127.330871    233.032129    109.446377   -469.809376
     2   1 0 1     29.781993  -3097.321028  -3067.539042   6194.642064
     2   0 2 0     29.347532  -5062.723388  -4888.141695   9980.212615
     2   0 1 1    -42.341335     77.490158     36.394167   -156.225660
     2   0 0 2   -124.614233  -1097.725259  -1086.788951   2059.899978
 

 Task  times  cpu:     1566.3s     wall:     1560.0s
 
 
                                NWChem Input Module
                                -------------------
 
 
 Summary of allocated global arrays
-----------------------------------
  No active global arrays



                         GA Statistics for process    0
                         ------------------------------

       create   destroy   get      put      acc     scatter   gather  read&inc
calls:  877      877     1.04e+04 5863     6091      131        0      447     
number of processes/call 4.98e+00 5.15e+00 3.48e+00 0.00e+00 0.00e+00
bytes total:             1.13e+09 6.52e+08 1.94e+08 5.76e+02 0.00e+00 3.58e+03
bytes remote:            1.07e+09 6.36e+08 1.75e+08 -3.17e+03 0.00e+00 0.00e+00
Max memory consumed for GA by this process: 880072 bytes
 
MA_summarize_allocated_blocks: starting scan ...
MA_summarize_allocated_blocks: scan completed: 0 heap blocks, 0 stack blocks
MA usage statistics:

	allocation statistics:
					      heap	     stack
					      ----	     -----
	current number of blocks	         0	         0
	maximum number of blocks	        16	        14
	current total bytes		         0	         0
	maximum total bytes		    630344	  83738184
	maximum total K-bytes		       631	     83739
	maximum total M-bytes		         1	        84
 
 
                                     CITATION
                                     --------
                Please cite the following reference when publishing
                           results obtained with NWChem:
 
                 M. Valiev, E.J. Bylaska, N. Govind, K. Kowalski,
              T.P. Straatsma, H.J.J. van Dam, D. Wang, J. Nieplocha,
                        E. Apra, T.L. Windus, W.A. de Jong
                 "NWChem: a comprehensive and scalable open-source
                  solution for large scale molecular simulations"
                      Comput. Phys. Commun. 181, 1477 (2010)
                           doi:10.1016/j.cpc.2010.04.018
 
                                      AUTHORS
                                      -------
          E. Apra, E. J. Bylaska, W. A. de Jong, N. Govind, K. Kowalski,
       T. P. Straatsma, M. Valiev, H. J. J. van Dam, D. Wang, T. L. Windus,
        J. Hammond, J. Autschbach, K. Bhaskaran-Nair, J. Brabec, K. Lopata,
    S. A. Fischer, S. Krishnamoorthy, M. Jacquelin, W. Ma, M. Klemm, O. Villa,
      Y. Chen, V. Anisimov, F. Aquino, S. Hirata, M. T. Hackler, V. Konjkov,
            D. Mejia-Rodriguez, T. Risthaus, M. Malagoli, A. Marenich,
   A. Otero-de-la-Roza, J. Mullin, P. Nichols, R. Peverati, J. Pittner, Y. Zhao,
        P.-D. Fan, A. Fonari, M. J. Williamson, R. J. Harrison, J. R. Rehr,
      M. Dupuis, D. Silverstein, D. M. A. Smith, J. Nieplocha, V. Tipparaju,
    M. Krishnan, B. E. Van Kuiken, A. Vazquez-Mayagoitia, L. Jensen, M. Swart,
      Q. Wu, T. Van Voorhis, A. A. Auer, M. Nooijen, L. D. Crosby, E. Brown,
      G. Cisneros, G. I. Fann, H. Fruchtl, J. Garza, K. Hirao, R. A. Kendall,
      J. A. Nichols, K. Tsemekhman, K. Wolinski, J. Anchell, D. E. Bernholdt,
      P. Borowski, T. Clark, D. Clerc, H. Dachsel, M. J. O. Deegan, K. Dyall,
    D. Elwood, E. Glendening, M. Gutowski, A. C. Hess, J. Jaffe, B. G. Johnson,
     J. Ju, R. Kobayashi, R. Kutteh, Z. Lin, R. Littlefield, X. Long, B. Meng,
      T. Nakajima, S. Niu, L. Pollack, M. Rosing, K. Glaesemann, G. Sandrone,
      M. Stave, H. Taylor, G. Thomas, J. H. van Lenthe, A. T. Wong, Z. Zhang.

 Total times  cpu:     1566.4s     wall:     1560.2s
Job finished on bc4u17n1 at Wed Jan  5 18:45:11 CST 2022
