 vasp.5.4.4.18Apr17-6-g9f103f2a35 (build May 01 2020 14:57:12) complex          
  
 executed on             LinuxIFC date 2020.11.07  20:18:38
 running on  192 total cores
 distrk:  each k-point on   48 cores,    4 groups
 distr:  one band on NCORES_PER_BAND=  12 cores,    4 groups


--------------------------------------------------------------------------------------------------------


 INCAR:
 POTCAR:    PAW_PBE B 06Sep2000                   
 POTCAR:    PAW_PBE N 08Apr2002                   

 ----------------------------------------------------------------------------- 
|                                                                             |
|           W    W    AA    RRRRR   N    N  II  N    N   GGGG   !!!           |
|           W    W   A  A   R    R  NN   N  II  NN   N  G    G  !!!           |
|           W    W  A    A  R    R  N N  N  II  N N  N  G       !!!           |
|           W WW W  AAAAAA  RRRRR   N  N N  II  N  N N  G  GGG   !            |
|           WW  WW  A    A  R   R   N   NN  II  N   NN  G    G                |
|           W    W  A    A  R    R  N    N  II  N    N   GGGG   !!!           |
|                                                                             |
|      You have enabled k-point parallelism (KPAR>1).                         |
|      This developmental code was originally  written by Paul Kent at ORNL,  |
|      and carefully double checked in Vienna.                                |
|      GW as well as linear response parallelism added by Martijn Marsman     |
|      and Georg Kresse.                                                      |
|      Carefully verify results versus KPAR=1.                                |
|      Report problems to Paul Kent and Vienna.                               |
|                                                                             |
 ----------------------------------------------------------------------------- 

 POTCAR:    PAW_PBE B 06Sep2000                   
   VRHFIN =B: s2p1                                                              
   LEXCH  = PE                                                                  
   EATOM  =    71.1703 eV,    5.2309 Ry                                         
                                                                                
   TITEL  = PAW_PBE B 06Sep2000                                                 
   LULTRA =        F    use ultrasoft PP ?                                      
   IUNSCR =        1    unscreen: 0-lin 1-nonlin 2-no                           
   RPACOR =    1.200    partial core radius                                     
   POMASS =   10.811; ZVAL   =    3.000    mass and valenz                      
   RCORE  =    1.700    outmost cutoff radius                                   
   RWIGS  =    1.710; RWIGS  =    0.905    wigner-seitz radius (au A)           
   ENMAX  =  318.614; ENMIN  =  238.960 eV                                      
   ICORE  =        2    local potential                                         
   LCOR   =        T    correct aug charges                                     
   LPAW   =        T    paw PP                                                  
   EAUG   =  535.514                                                            
   DEXC   =    0.000                                                            
   RMAX   =    1.732    core radius for proj-oper                               
   RAUG   =    1.300    factor for augmentation sphere                          
   RDEP   =    1.757    radius for radial grids                                 
   RDEPT  =    1.436    core radius for aug-charge                              
                                                                                
   Atomic configuration                                                         
    4 entries                                                                   
     n  l   j            E        occ.                                          
     1  0  0.50      -180.5896   2.0000                                         
     2  0  0.50        -9.4431   2.0000                                         
     2  1  0.50        -3.6068   1.0000                                         
     3  2  1.50        -4.0817   0.0000                                         
   Description                                                                  
     l       E           TYP  RCUT    TYP  RCUT                                 
     0     -9.4430752     23  1.500                                             
     0      0.8675899     23  1.500                                             
     1     -3.6067955     23  1.700                                             
     1      6.1086146     23  1.700                                             
     2     -4.0817478      7  1.700                                             
  local pseudopotential read in
  partial core-charges read in
  partial kinetic energy density read in
  atomic valenz-charges read in
  non local Contribution for L=           0  read in
    real space projection operators read in
  non local Contribution for L=           0  read in
    real space projection operators read in
  non local Contribution for L=           1  read in
    real space projection operators read in
  non local Contribution for L=           1  read in
    real space projection operators read in
    PAW grid and wavefunctions read in
 
   number of l-projection  operators is LMAX  =           4
   number of lm-projection operators is LMMAX =           8
 
 POTCAR:    PAW_PBE N 08Apr2002                   
   VRHFIN =N: s2p3                                                              
   LEXCH  = PE                                                                  
   EATOM  =   264.5486 eV,   19.4438 Ry                                         
                                                                                
   TITEL  = PAW_PBE N 08Apr2002                                                 
   LULTRA =        F    use ultrasoft PP ?                                      
   IUNSCR =        1    unscreen: 0-lin 1-nonlin 2-no                           
   RPACOR =    1.200    partial core radius                                     
   POMASS =   14.001; ZVAL   =    5.000    mass and valenz                      
   RCORE  =    1.500    outmost cutoff radius                                   
   RWIGS  =    1.400; RWIGS  =    0.741    wigner-seitz radius (au A)           
   ENMAX  =  400.000; ENMIN  =  300.000 eV                                      
   ICORE  =        2    local potential                                         
   LCOR   =        T    correct aug charges                                     
   LPAW   =        T    paw PP                                                  
   EAUG   =  627.112                                                            
   DEXC   =    0.000                                                            
   RMAX   =    1.529    core radius for proj-oper                               
   RAUG   =    1.300    factor for augmentation sphere                          
   RDEP   =    1.514    radius for radial grids                                 
   RDEPT  =    1.338    core radius for aug-charge                              
                                                                                
   Atomic configuration                                                         
    4 entries                                                                   
     n  l   j            E        occ.                                          
     1  0  0.50      -384.7179   2.0000                                         
     2  0  0.50       -18.5828   2.0000                                         
     2  1  0.50        -7.0898   3.0000                                         
     3  2  1.50        -6.8029   0.0000                                         
   Description                                                                  
     l       E           TYP  RCUT    TYP  RCUT                                 
     0    -18.5828119     23  1.200                                             
     0    -13.5018863     23  1.200                                             
     1     -7.0897853     23  1.500                                             
     1      9.5240782     23  1.500                                             
     2     -6.8029130      7  1.500                                             
  local pseudopotential read in
  partial core-charges read in
  partial kinetic energy density read in
  atomic valenz-charges read in
  non local Contribution for L=           0  read in
    real space projection operators read in
  non local Contribution for L=           0  read in
    real space projection operators read in
  non local Contribution for L=           1  read in
    real space projection operators read in
  non local Contribution for L=           1  read in
    real space projection operators read in
    PAW grid and wavefunctions read in
 
   number of l-projection  operators is LMAX  =           4
   number of lm-projection operators is LMMAX =           8
 
 Optimization of the real space projectors (new method)

 maximal supplied QI-value         = 22.11
 optimisation between [QCUT,QGAM] = [ 11.94, 23.88] = [ 39.92,159.67] Ry 
 Optimized for a Real-space Cutoff    1.18 Angstroem

   l    n(q)    QCUT    max X(q) W(low)/X(q) W(high)/X(q)  e(spline) 
   0      8    11.939    53.033    0.11E-03    0.34E-03    0.60E-07
   0      8    11.939    34.740    0.11E-03    0.34E-03    0.59E-07
   1      8    11.939    30.949    0.22E-03    0.20E-03    0.17E-06
   1      8    11.939    19.518    0.20E-03    0.18E-03    0.16E-06
 Optimization of the real space projectors (new method)

 maximal supplied QI-value         = 25.13
 optimisation between [QCUT,QGAM] = [ 11.81, 23.88] = [ 39.08,159.64] Ry 
 Optimized for a Real-space Cutoff    1.41 Angstroem

   l    n(q)    QCUT    max X(q) W(low)/X(q) W(high)/X(q)  e(spline) 
   0     10    11.813    79.467    0.48E-04    0.30E-04    0.67E-06
   0     10    11.813    66.151    0.47E-04    0.30E-04    0.67E-06
   1     10    11.813    20.169    0.11E-03    0.17E-03    0.11E-05
   1     10    11.813    14.454    0.11E-03    0.17E-03    0.11E-05
  PAW_PBE B 06Sep2000                   :
 energy of atom  1       EATOM=  -71.1703
 kinetic energy error for atom=    0.0009 (will be added to EATOM!!)
  PAW_PBE N 08Apr2002                   :
 energy of atom  2       EATOM= -264.5486
 kinetic energy error for atom=    0.0116 (will be added to EATOM!!)
 
 
 POSCAR: B N                                     
  positions in direct lattice
  velocities in cartesian coordinates

 METAGGA = SCAN     LMAXTAU =  6    LMIXTAU =  F

 exchange correlation table for  LEXCH =        8
   RHO(1)=    0.500       N(1)  =     2000
   RHO(2)=  100.500       N(2)  =     4000
 


--------------------------------------------------------------------------------------------------------


 ion  position               nearest neighbor table
   1  0.167  0.083  0.500-  20 1.45  21 1.45  17 1.45
   2  0.167  0.333  0.500-  17 1.45  22 1.45  18 1.45
   3  0.167  0.583  0.500-  18 1.45  23 1.45  19 1.45
   4  0.167  0.833  0.500-  19 1.45  24 1.45  20 1.45
   5  0.417  0.083  0.500-  24 1.45  25 1.45  21 1.45
   6  0.417  0.333  0.500-  21 1.45  26 1.45  22 1.45
   7  0.417  0.583  0.500-  22 1.45  27 1.45  23 1.45
   8  0.417  0.833  0.500-  23 1.45  28 1.45  24 1.45
   9  0.667  0.083  0.500-  28 1.45  29 1.45  25 1.45
  10  0.667  0.333  0.500-  25 1.45  30 1.45  26 1.45
  11  0.667  0.583  0.500-  26 1.45  31 1.45  27 1.45
  12  0.667  0.833  0.500-  27 1.45  32 1.45  28 1.45
  13  0.917  0.083  0.500-  17 1.45  32 1.45  29 1.45
  14  0.917  0.333  0.500-  18 1.45  29 1.45  30 1.45
  15  0.917  0.583  0.500-  19 1.45  30 1.45  31 1.45
  16  0.917  0.833  0.500-  20 1.45  31 1.45  32 1.45
  17  0.083  0.167  0.500-   2 1.45  13 1.45   1 1.45
  18  0.083  0.417  0.500-   3 1.45  14 1.45   2 1.45
  19  0.083  0.667  0.500-   4 1.45  15 1.45   3 1.45
  20  0.083  0.917  0.500-   1 1.45  16 1.45   4 1.45
  21  0.333  0.167  0.500-   1 1.45   6 1.45   5 1.45
  22  0.333  0.417  0.500-   2 1.45   7 1.45   6 1.45
  23  0.333  0.667  0.500-   3 1.45   8 1.45   7 1.45
  24  0.333  0.917  0.500-   4 1.45   5 1.45   8 1.45
  25  0.583  0.167  0.500-   5 1.45  10 1.45   9 1.45
  26  0.583  0.417  0.500-   6 1.45  11 1.45  10 1.45
  27  0.583  0.667  0.500-   7 1.45  12 1.45  11 1.45
  28  0.583  0.917  0.500-   8 1.45   9 1.45  12 1.45
  29  0.833  0.167  0.500-   9 1.45  14 1.45  13 1.45
  30  0.833  0.417  0.500-  10 1.45  15 1.45  14 1.45
  31  0.833  0.667  0.500-  11 1.45  16 1.45  15 1.45
  32  0.833  0.917  0.500-  12 1.45  13 1.45  16 1.45
 
  LATTYP: Found a hexagonal cell.
 ALAT       =    10.0487671536
 C/A-ratio  =     3.4944251219
  
  Lattice vectors:
  
 A1 = (   5.0243667045,  -8.7024973730,   0.0000000000)
 A2 = (   5.0243667045,   8.7024973730,   0.0000000000)
 A3 = (   0.0000000000,   0.0000000000,  35.1146643856)


Analysis of symmetry for initial positions (statically):
=====================================================================
 Subroutine PRICEL returns following result:
 
  Warning from LATTYP: Got some problem with cell dimensions!
  Tried to take original basis but could not verify dimensions!
  LATTYP: Found a hexagonal cell.
 ALAT       =     2.5121833522
 C/A-ratio  =    13.9777474261
  
  Lattice vectors:
  
 A1 = (   2.5121833522,   0.0000000000,   0.0000000000)
 A2 = (  -1.2560916761,  -2.1756243432,   0.0000000000)
 A3 = (   0.0000000000,   0.0000000000, -35.1146643856)
 
  16 primitive cells build up your supercell.
 

 Routine SETGRP: Setting up the symmetry group for a 
 hexagonal supercell.


 Subroutine GETGRP returns: Found 12 space group operations
 (whereof 12 operations were pure point group operations)
 out of a pool of 24 trial point group operations.


The static configuration has the point symmetry D_3h.


Analysis of symmetry for dynamics (positions and initial velocities):
=====================================================================
 Subroutine PRICEL returns following result:
 
  Warning from LATTYP: Got some problem with cell dimensions!
  Tried to take original basis but could not verify dimensions!
  LATTYP: Found a hexagonal cell.
 ALAT       =     2.5121833522
 C/A-ratio  =    13.9777474261
  
  Lattice vectors:
  
 A1 = (   2.5121833522,   0.0000000000,   0.0000000000)
 A2 = (  -1.2560916761,  -2.1756243432,   0.0000000000)
 A3 = (   0.0000000000,   0.0000000000, -35.1146643856)
 
  16 primitive cells build up your supercell.
 

 Routine SETGRP: Setting up the symmetry group for a 
 hexagonal supercell.


 Subroutine GETGRP returns: Found 12 space group operations
 (whereof 12 operations were pure point group operations)
 out of a pool of 24 trial point group operations.


The dynamic configuration has the point symmetry D_3h.


Analysis of constrained symmetry for selective dynamics:
=====================================================================
 Subroutine PRICEL returns following result:
 
  Warning from LATTYP: Got some problem with cell dimensions!
  Tried to take original basis but could not verify dimensions!
  LATTYP: Found a hexagonal cell.
 ALAT       =     2.5121833522
 C/A-ratio  =    13.9777474261
  
  Lattice vectors:
  
 A1 = (   2.5121833522,   0.0000000000,   0.0000000000)
 A2 = (  -1.2560916761,  -2.1756243432,   0.0000000000)
 A3 = (   0.0000000000,   0.0000000000, -35.1146643856)
 
  16 primitive cells build up your supercell.
 

 Routine SETGRP: Setting up the symmetry group for a 
 hexagonal supercell.


 Subroutine GETGRP returns: Found 12 space group operations
 (whereof 12 operations were pure point group operations)
 out of a pool of 24 trial point group operations.


The constrained configuration has the point symmetry D_3h.


Analysis of structural, dynamic, and magnetic symmetry:
=====================================================================
 Subroutine PRICEL returns following result:
 
  Warning from LATTYP: Got some problem with cell dimensions!
  Tried to take original basis but could not verify dimensions!
  LATTYP: Found a hexagonal cell.
 ALAT       =     2.5121833522
 C/A-ratio  =    13.9777474261
  
  Lattice vectors:
  
 A1 = (   2.5121833522,   0.0000000000,   0.0000000000)
 A2 = (  -1.2560916761,  -2.1756243432,   0.0000000000)
 A3 = (   0.0000000000,   0.0000000000, -35.1146643856)
 
  16 primitive cells build up your supercell.
 

 Routine SETGRP: Setting up the symmetry group for a 
 hexagonal supercell.


 Subroutine GETGRP returns: Found 12 space group operations
 (whereof 12 operations were pure point group operations)
 out of a pool of 24 trial point group operations.


The magnetic configuration has the point symmetry D_3h.


 Subroutine INISYM returns: Found 12 space group operations
 (whereof 12 operations are pure point group operations),
 and found    16 'primitive' translations

 
 
 KPOINTS: K-Point Grid                            

Automatic generation of k-mesh.
Space group operators:
 irot       det(A)        alpha          n_x          n_y          n_z        tau_x        tau_y        tau_z
    1     1.000000     0.000000     1.000000     0.000000     0.000000     0.000000     0.000000     0.000000
    2    -1.000000    60.000000     0.000000     0.000000    -1.000000     0.000000     0.000000     0.000000
    3     1.000000   120.000000     0.000000     0.000000    -1.000000     0.000000     0.000000     0.000000
    4    -1.000000   180.000000     0.000000     0.000000     1.000000     0.000000     0.000000     0.000000
    5     1.000000   120.000000     0.000000     0.000000     1.000000     0.000000     0.000000     0.000000
    6    -1.000000    60.000000     0.000000     0.000000     1.000000     0.000000     0.000000     0.000000
    7    -1.000000   180.000000     0.500002    -0.866024     0.000000     0.000000     0.000000     0.000000
    8     1.000000   180.000000     0.000000     1.000000     0.000000     0.000000     0.000000     0.000000
    9    -1.000000   180.000000    -0.500002    -0.866024     0.000000     0.000000     0.000000     0.000000
   10     1.000000   180.000000     0.866026     0.499998     0.000000     0.000000     0.000000     0.000000
   11    -1.000000   180.000000     1.000000     0.000000     0.000000     0.000000     0.000000     0.000000
   12     1.000000   180.000000     0.866026    -0.499998     0.000000     0.000000     0.000000     0.000000
 
 Subroutine IBZKPT returns following result:
 ===========================================
 
 Found      6 irreducible k-points:
 
 Following reciprocal coordinates:
            Coordinates               Weight
  0.125000  0.125000  0.000000     48.000000
  0.375000  0.125000  0.000000     96.000000
 -0.375000  0.125000  0.000000     96.000000
 -0.125000  0.125000  0.000000     48.000000
  0.375000  0.375000  0.000000     48.000000
 -0.375000  0.375000  0.000000     48.000000
 
 Following cartesian coordinates:
            Coordinates               Weight
  0.024879  0.000000  0.000000     48.000000
  0.049758 -0.014364  0.000000     96.000000
 -0.024879  0.028727  0.000000     96.000000
  0.000000  0.014364  0.000000     48.000000
  0.074636  0.000000  0.000000     48.000000
  0.000000  0.043091  0.000000     48.000000
 


--------------------------------------------------------------------------------------------------------




 Dimension of arrays:
   k-points           NKPTS =      6   k-points in BZ     NKDIM =      6   number of bands    NBANDS=    100
   number of dos      NEDOS =   1200   number of ions     NIONS =     32
   non local maximal  LDIM  =      4   non local SUM 2l+1 LMDIM =      8
   total plane-waves  NPLWV = ******
   max r-space proj   IRMAX =   6598   max aug-charges    IRDMAX=   8974
   dimension x,y,z NGX =    80 NGY =   80 NGZ =  270
   dimension x,y,z NGXF=   160 NGYF=  160 NGZF=  540
   support grid    NGXF=   160 NGYF=  160 NGZF=  540
   ions per type =              16  16
   NGX,Y,Z   is equivalent  to a cutoff of  13.24, 13.24, 12.78 a.u.
   NGXF,Y,Z  is equivalent  to a cutoff of  26.47, 26.47, 25.57 a.u.

 SYSTEM =  SiC                                     
 POSCAR =  B N                                     

 Startparameter for this run:
   NWRITE =      2    write-flag & timer
   PREC   = accura    normal or accurate (medium, high low for compatibility)
   ISTART =      0    job   : 0-new  1-cont  2-samecut
   ICHARG =      2    charge: 1-file 2-atom 10-const
   ISPIN  =      2    spin polarized calculation?
   LNONCOLLINEAR =      F non collinear calculations
   LSORBIT =      F    spin-orbit coupling
   INIWAV =      1    electr: 0-lowe 1-rand  2-diag
   LASPH  =      T    aspherical Exc in radial PAW
   METAGGA=      F    non-selfconsistent MetaGGA calc.

 Electronic Relaxation 1
   ENCUT  =  550.0 eV  40.42 Ry    6.36 a.u.  19.22 19.22 67.15*2*pi/ulx,y,z
   ENINI  =  550.0     initial cutoff
   ENAUG  =  627.1 eV  augmentation charge cutoff
   NELM   =    100;   NELMIN=  2; NELMDL= -5     # of ELM steps 
   EDIFF  = 0.1E-04   stopping-criterion for ELM
   LREAL  =      T    real-space projection
   NLSPLINE    = F    spline interpolate recip. space projectors
   LCOMPAT=      F    compatible to vasp.4.4
   GGA_COMPAT  = T    GGA compatible to vasp.4.4-vasp.4.6
   LMAXPAW     = -100 max onsite density
   LMAXMIX     =    2 max onsite mixed and CHGCAR
   VOSKOWN=      0    Vosko Wilk Nusair interpolation
   ROPT   =   -0.00025  -0.00025
 Ionic relaxation
   EDIFFG = -.2E-01   stopping-criterion for IOM
   NSW    =    500    number of steps for IOM
   NBLOCK =      1;   KBLOCK =    500    inner block; outer block 
   IBRION =      2    ionic relax: 0-MD 1-quasi-New 2-CG
   NFREE  =      1    steps in history (QN), initial steepest desc. (CG)
   ISIF   =      2    stress and relaxation
   IWAVPR =     11    prediction:  0-non 1-charg 2-wave 3-comb
   ISYM   =      2    0-nonsym 1-usesym 2-fastsym
   LCORR  =      T    Harris-Foulkes like correction to forces

   POTIM  = 0.5000    time-step for ionic-motion
   TEIN   =    0.0    initial temperature
   TEBEG  =    0.0;   TEEND  =   0.0 temperature during run
   SMASS  =  -3.00    Nose mass-parameter (am)
   estimated Nose-frequenzy (Omega)   =  0.10E-29 period in steps =****** mass=  -0.231E-26a.u.
   SCALEE = 1.0000    scale energy and forces
   NPACO  =    256;   APACO  = 16.0  distance and # of slots for P.C.
   PSTRESS=    0.0 pullay stress

  Mass of Ions in am
   POMASS =  10.81 14.00
  Ionic Valenz
   ZVAL   =   3.00  5.00
  Atomic Wigner-Seitz radii
   RWIGS  =  -1.00 -1.00
  virtual crystal weights 
   VCA    =   1.00  1.00
   NELECT =     128.0000    total number of electrons
   NUPDOWN=      -1.0000    fix difference up-down

 DOS related values:
   EMIN   =  10.00;   EMAX   =-10.00  energy-range for DOS
   EFERMI =   0.00
   ISMEAR =     0;   SIGMA  =   0.05  broadening in eV -4-tet -1-fermi 0-gaus

 Electronic relaxation 2 (details)
   IALGO  =     68    algorithm
   LDIAG  =      T    sub-space diagonalisation (order eigenvalues)
   LSUBROT=      F    optimize rotation matrix (better conditioning)
   TURBO    =      0    0=normal 1=particle mesh
   IRESTART =      0    0=no restart 2=restart with 2 vectors
   NREBOOT  =      0    no. of reboots
   NMIN     =      0    reboot dimension
   EREF     =   0.00    reference energy to select bands
   IMIX   =      4    mixing-type and parameters
     AMIX     =   0.40;   BMIX     =  1.00
     AMIX_MAG =   1.60;   BMIX_MAG =  1.00
     AMIN     =   0.10
     WC   =   100.;   INIMIX=   1;  MIXPRE=   1;  MAXMIX= -45

 Intra band minimization:
   WEIMIN = 0.0010     energy-eigenvalue tresh-hold
   EBREAK =  0.25E-07  absolut break condition
   DEPER  =   0.30     relativ break condition  

   TIME   =   0.40     timestep for ELM

  volume/ion in A,a.u.               =      95.96       647.58
  Fermi-wavevector in a.u.,A,eV,Ry     =   0.567628  1.072661  4.383813  0.322201
  Thomas-Fermi vector in A             =   1.606518
 
 Write flags
   LWAVE        =      T    write WAVECAR
   LDOWNSAMPLE  =      F    k-point downsampling of WAVECAR
   LCHARG       =      F    write CHGCAR
   LVTOT        =      F    write LOCPOT, total local potential
   LVHAR        =      T    write LOCPOT, Hartree potential only
   LELF         =      F    write electronic localiz. function (ELF)
   LORBIT       =     11    0 simple, 1 ext, 2 COOP (PROOUT), +10 PAW based schemes


 Dipole corrections
   LMONO  =      F    monopole corrections only (constant potential shift)
   LDIPOL =      F    correct potential (dipole corrections)
   IDIPOL =      0    1-x, 2-y, 3-z, 4-all directions 
   EPSILON=  1.0000000 bulk dielectric constant

 Exchange correlation treatment:
   GGA     =    --    GGA type
   LEXCH   =     8    internal setting for exchange type
   VOSKOWN=      0    Vosko Wilk Nusair interpolation
   LHFCALC =     F    Hartree Fock is set to
   LHFONE  =     F    Hartree Fock one center treatment
   AEXX    =    0.0000 exact exchange contribution

 Linear response parameters
   LEPSILON=     F    determine dielectric tensor
   LRPA    =     F    only Hartree local field effects (RPA)
   LNABLA  =     F    use nabla operator in PAW spheres
   LVEL    =     F    velocity operator in full k-point grid
   LINTERFAST=   F  fast interpolation
   KINTER  =     0    interpolate to denser k-point grid
   CSHIFT  =0.1000    complex shift for real part using Kramers Kronig
   OMEGAMAX=  -1.0    maximum frequency
   DEG_THRESHOLD= 0.2000000E-02 threshold for treating states as degnerate
   RTIME   =   -0.100 relaxation time in fs
  (WPLASMAI=    0.000 imaginary part of plasma frequency in eV, 0.658/RTIME)
   DFIELD  = 0.0000000 0.0000000 0.0000000 field for delta impulse in time
 
 Orbital magnetization related:
   ORBITALMAG=     F  switch on orbital magnetization
   LCHIMAG   =     F  perturbation theory with respect to B field
   DQ        =  0.001000  dq finite difference perturbation B field
   LLRAUG    =     F  two centre corrections for induced B field

 Solvation model:
   LSOL    =     T         switch on solvation model
   EB_K    = 78.400000     relative permittivity of the bulk solvent
   SIGMA_K =  0.600000     width of the dielectric cavity
   NC_K    =  0.002500     cutoff charge density
   TAU     =  0.000000     cavity surface tension
   LAMBDA_D_K    =  3.040000     Debye length in Angstroms
   LRHOB     =     F     write boundcharge  density
   LRHOION     =     F     write ioniccharge density



--------------------------------------------------------------------------------------------------------


 conjugate gradient relaxation of ions
   using selective dynamics as specified on POSCAR
 charge density and potential will be updated during run
 spin polarized calculation
 RMM-DIIS sequential band-by-band and
  variant of blocked Davidson during initial phase
 perform sub-space diagonalisation
    before iterative eigenvector-optimisation
 modified Broyden-mixing scheme, WC =      100.0
 initial mixing is a Kerker type mixing with AMIX =  0.4000 and BMIX =      1.0000
 Hartree-type preconditioning will be used
 using additional bands           36
 real space projection scheme for non local part
 use partial core corrections
 calculate Harris-corrections to forces 
   (improved forces if not selfconsistent)
 use gradient corrections 
 use of overlap-Matrix (Vanderbilt PP)
 Gauss-broadening in eV      SIGMA  =   0.05


--------------------------------------------------------------------------------------------------------


  energy-cutoff  :      550.00
  volume of cell :     3070.74
      direct lattice vectors                 reciprocal lattice vectors
     5.024366704 -8.702497373  0.000000000     0.099515029 -0.057454772  0.000000000
     5.024366704  8.702497373  0.000000000     0.099515029  0.057454772  0.000000000
     0.000000000  0.000000000 35.114664386     0.000000000  0.000000000  0.028478131

  length of vectors
    10.048767154 10.048767154 35.114664386     0.114909929  0.114909929  0.028478131


 
 k-points in units of 2pi/SCALE and weight: K-Point Grid                            
   0.02487876  0.00000000  0.00000000       0.125
   0.04975751 -0.01436369  0.00000000       0.250
  -0.02487876  0.02872739  0.00000000       0.250
   0.00000000  0.01436369  0.00000000       0.125
   0.07463627  0.00000000  0.00000000       0.125
   0.00000000  0.04309108  0.00000000       0.125
 
 k-points in reciprocal lattice and weights: K-Point Grid                            
   0.12500000  0.12500000  0.00000000       0.125
   0.37500000  0.12500000  0.00000000       0.250
  -0.37500000  0.12500000  0.00000000       0.250
  -0.12500000  0.12500000  0.00000000       0.125
   0.37500000  0.37500000  0.00000000       0.125
  -0.37500000  0.37500000  0.00000000       0.125
 
 position of ions in fractional coordinates (direct lattice) 
   0.16666715  0.08333385  0.50000000
   0.16666715  0.33333385  0.50000000
   0.16666715  0.58333385  0.50000000
   0.16666715  0.83333385  0.50000000
   0.41666715  0.08333385  0.50000000
   0.41666715  0.33333385  0.50000000
   0.41666715  0.58333385  0.50000000
   0.41666715  0.83333385  0.50000000
   0.66666715  0.08333385  0.50000000
   0.66666715  0.33333385  0.50000000
   0.66666715  0.58333385  0.50000000
   0.66666715  0.83333385  0.50000000
   0.91666715  0.08333385  0.50000000
   0.91666715  0.33333385  0.50000000
   0.91666715  0.58333385  0.50000000
   0.91666715  0.83333385  0.50000000
   0.08333385  0.16666715  0.50000000
   0.08333385  0.41666715  0.50000000
   0.08333385  0.66666715  0.50000000
   0.08333385  0.91666715  0.50000000
   0.33333385  0.16666715  0.50000000
   0.33333385  0.41666715  0.50000000
   0.33333385  0.66666715  0.50000000
   0.33333385  0.91666715  0.50000000
   0.58333385  0.16666715  0.50000000
   0.58333385  0.41666715  0.50000000
   0.58333385  0.66666715  0.50000000
   0.58333385  0.91666715  0.50000000
   0.83333385  0.16666715  0.50000000
   0.83333385  0.41666715  0.50000000
   0.83333385  0.66666715  0.50000000
   0.83333385  0.91666715  0.50000000
 
 position of ions in cartesian coordinates  (Angst):
   1.25609669 -0.72520776 17.55733219
   2.51218837  1.45041658 17.55733219
   3.76828004  3.62604092 17.55733219
   5.02437172  5.80166527 17.55733219
   2.51218837 -2.90083211 17.55733219
   3.76828004 -0.72520776 17.55733219
   5.02437172  1.45041658 17.55733219
   6.28046340  3.62604092 17.55733219
   3.76828004 -5.07645645 17.55733219
   5.02437172 -2.90083211 17.55733219
   6.28046340 -0.72520776 17.55733219
   7.53655507  1.45041658 17.55733219
   5.02437172 -7.25208079 17.55733219
   6.28046340 -5.07645645 17.55733219
   7.53655507 -2.90083211 17.55733219
   8.79264675 -0.72520776 17.55733219
   1.25609669  0.72520776 17.55733219
   2.51218837  2.90083211 17.55733219
   3.76828004  5.07645645 17.55733219
   5.02437172  7.25208079 17.55733219
   2.51218837 -1.45041658 17.55733219
   3.76828004  0.72520776 17.55733219
   5.02437172  2.90083211 17.55733219
   6.28046340  5.07645645 17.55733219
   3.76828004 -3.62604092 17.55733219
   5.02437172 -1.45041658 17.55733219
   6.28046340  0.72520776 17.55733219
   7.53655507  2.90083211 17.55733219
   5.02437172 -5.80166527 17.55733219
   6.28046340 -3.62604092 17.55733219
   7.53655507 -1.45041658 17.55733219
   8.79264675  0.72520776 17.55733219
 


--------------------------------------------------------------------------------------------------------


 k-point  1 :   0.1250 0.1250 0.0000  plane waves:   89921
 k-point  2 :   0.3750 0.1250 0.0000  plane waves:   89970
 k-point  3 :  -0.3750 0.1250 0.0000  plane waves:   89943
 k-point  4 :  -0.1250 0.1250 0.0000  plane waves:   89893
 k-point  5 :   0.3750 0.3750 0.0000  plane waves:   89957
 k-point  6 :  -0.3750 0.3750 0.0000  plane waves:   89980

 maximum and minimum number of plane-waves per node :      7532     7460

 maximum number of plane-waves:     89980
 maximum index in each direction: 
   IXMAX=   19   IYMAX=   19   IZMAX=   67
   IXMIN=  -19   IYMIN=  -19   IZMIN=  -67


 real space projection operators:
  total allocation   :      10086.00 KBytes
  max/ min on nodes  :        887.75        767.00


 parallel 3D FFT for wavefunctions:
    minimum data exchange during FFTs selected (reduces bandwidth)
 parallel 3D FFT for charge:
    minimum data exchange during FFTs selected (reduces bandwidth)


 total amount of memory used by VASP MPI-rank0   141465. kBytes
=======================================================================

   base      :      30000. kBytes
   nonlr-proj:       4649. kBytes
   fftplans  :      15595. kBytes
   grid      :      55069. kBytes
   one-center:         18. kBytes
   wavefun   :      36134. kBytes
 
     INWAV:  cpu time    0.0000: real time    0.0000
 Broyden mixing: mesh for mixing (old mesh)
   NGX = 39   NGY = 39   NGZ =135
  (NGX  =160   NGY  =160   NGZ  =540)
  gives a total of 205335 points

 initial charge density was supplied:
 charge density of overlapping atoms calculated
 number of electron     128.0000000 magnetization      32.0000000
 keeping initial charge density in first step


--------------------------------------------------------------------------------------------------------


 Maximum index for non-local projection operator          576
 Maximum index for augmentation-charges          478 (set IRDMAX)


--------------------------------------------------------------------------------------------------------


 First call to EWALD:  gamma=   0.122
 Maximum number of real-space cells 4x 4x 1
 Maximum number of reciprocal cells 2x 2x 6

    FEWALD:  cpu time    0.0161: real time    0.0081


--------------------------------------- Iteration      1(   1)  ---------------------------------------


    POTLOK:  cpu time   11.9280: real time   11.8923
    SETDIJ:  cpu time    0.6396: real time    0.4434
     EDDAV:  cpu time   28.1178: real time   14.2517
       DOS:  cpu time    0.0343: real time    0.0344
    --------------------------------------------
      LOOP:  cpu time   40.7198: real time   26.6219

 eigenvalue-minimisations  :  2896
 total energy-change (2. order) : 0.1201143E+04  (-0.4200155E+04)
 number of electron     128.0000000 magnetization      32.0000000
 augmentation part      128.0000000 magnetization      32.0000000

 Free energy of the ion-electron system (eV)
  ---------------------------------------------------
  alpha Z        PSCENC =        29.66604984
  Ewald energy   TEWEN  =     40912.28177946
  -Hartree energ DENC   =    -44797.23272639
  -exchange      EXHF   =         0.00000000
  -V(xc)+E(xc)   XCENC  =       510.37631511
  PAW double counting   =      3879.76930454    -3929.68670650
  entropy T*S    EENTRO =        -0.02519766
  eigenvalues    EBANDS =      -898.94198459
  atomic energy  EATOM  =      5371.30148350
  Solvation  Ediel_sol  =       123.63480352
  ---------------------------------------------------
  free energy    TOTEN  =      1201.14312082 eV

  energy without entropy =     1201.16831848  energy(sigma->0) =     1201.15571965


--------------------------------------------------------------------------------------------------------




--------------------------------------- Iteration      1(   2)  ---------------------------------------


     EDDAV:  cpu time   33.0621: real time   16.6013
       DOS:  cpu time    0.0016: real time    0.0008
    --------------------------------------------
      LOOP:  cpu time   33.0637: real time   16.6021

 eigenvalue-minimisations  :  3888
 total energy-change (2. order) :-0.1209812E+04  (-0.1084677E+04)
 number of electron     128.0000000 magnetization      32.0000000
 augmentation part      128.0000000 magnetization      32.0000000

 Free energy of the ion-electron system (eV)
  ---------------------------------------------------
  alpha Z        PSCENC =        29.66604984
  Ewald energy   TEWEN  =     40912.28177946
  -Hartree energ DENC   =    -44797.23272639
  -exchange      EXHF   =         0.00000000
  -V(xc)+E(xc)   XCENC  =       510.37631511
  PAW double counting   =      3879.76930454    -3929.68670650
  entropy T*S    EENTRO =        -0.00000000
  eigenvalues    EBANDS =     -2108.77929859
  atomic energy  EATOM  =      5371.30148350
  Solvation  Ediel_sol  =       123.63480352
  ---------------------------------------------------
  free energy    TOTEN  =        -8.66899553 eV

  energy without entropy =       -8.66899553  energy(sigma->0) =       -8.66899553


--------------------------------------------------------------------------------------------------------




--------------------------------------- Iteration      1(   3)  ---------------------------------------


     EDDAV:  cpu time   29.4133: real time   14.7601
       DOS:  cpu time    0.0015: real time    0.0007
    --------------------------------------------
      LOOP:  cpu time   29.4147: real time   14.7609

 eigenvalue-minimisations  :  3240
 total energy-change (2. order) :-0.3372547E+03  (-0.3341751E+03)
 number of electron     128.0000000 magnetization      32.0000000
 augmentation part      128.0000000 magnetization      32.0000000

 Free energy of the ion-electron system (eV)
  ---------------------------------------------------
  alpha Z        PSCENC =        29.66604984
  Ewald energy   TEWEN  =     40912.28177946
  -Hartree energ DENC   =    -44797.23272639
  -exchange      EXHF   =         0.00000000
  -V(xc)+E(xc)   XCENC  =       510.37631511
  PAW double counting   =      3879.76930454    -3929.68670650
  entropy T*S    EENTRO =        -0.00000000
  eigenvalues    EBANDS =     -2446.03394954
  atomic energy  EATOM  =      5371.30148350
  Solvation  Ediel_sol  =       123.63480352
  ---------------------------------------------------
  free energy    TOTEN  =      -345.92364647 eV

  energy without entropy =     -345.92364647  energy(sigma->0) =     -345.92364647


--------------------------------------------------------------------------------------------------------




--------------------------------------- Iteration      1(   4)  ---------------------------------------


     EDDAV:  cpu time   28.1186: real time   14.1141
       DOS:  cpu time    0.0015: real time    0.0008
    --------------------------------------------
      LOOP:  cpu time   28.1200: real time   14.1149

 eigenvalue-minimisations  :  3040
 total energy-change (2. order) :-0.1873768E+02  (-0.1852679E+02)
 number of electron     128.0000000 magnetization      32.0000000
 augmentation part      128.0000000 magnetization      32.0000000

 Free energy of the ion-electron system (eV)
  ---------------------------------------------------
  alpha Z        PSCENC =        29.66604984
  Ewald energy   TEWEN  =     40912.28177946
  -Hartree energ DENC   =    -44797.23272639
  -exchange      EXHF   =         0.00000000
  -V(xc)+E(xc)   XCENC  =       510.37631511
  PAW double counting   =      3879.76930454    -3929.68670650
  entropy T*S    EENTRO =        -0.00000000
  eigenvalues    EBANDS =     -2464.77162722
  atomic energy  EATOM  =      5371.30148350
  Solvation  Ediel_sol  =       123.63480352
  ---------------------------------------------------
  free energy    TOTEN  =      -364.66132415 eV

  energy without entropy =     -364.66132415  energy(sigma->0) =     -364.66132415


--------------------------------------------------------------------------------------------------------




--------------------------------------- Iteration      1(   5)  ---------------------------------------


     EDDAV:  cpu time   28.5727: real time   14.3317
       DOS:  cpu time    0.0015: real time    0.0007
    CHARGE:  cpu time   11.4948: real time    9.5393
    MIXING:  cpu time    0.0762: real time    0.0764
    --------------------------------------------
      LOOP:  cpu time   40.1452: real time   23.9481

 eigenvalue-minimisations  :  3088
 total energy-change (2. order) :-0.3960572E+00  (-0.3948369E+00)
 number of electron     127.9999981 magnetization      30.4115786
 augmentation part        4.6008599 magnetization      30.5463395

 Broyden mixing:
  rms(total) = 0.41022E+01    rms(broyden)= 0.41017E+01
  rms(prec ) = 0.41661E+01
  weight for this iteration     100.00

 Free energy of the ion-electron system (eV)
  ---------------------------------------------------
  alpha Z        PSCENC =        29.66604984
  Ewald energy   TEWEN  =     40912.28177946
  -Hartree energ DENC   =    -44797.23272639
  -exchange      EXHF   =         0.00000000
  -V(xc)+E(xc)   XCENC  =       510.37631511
  PAW double counting   =      3879.76930454    -3929.68670650
  entropy T*S    EENTRO =        -0.00000000
  eigenvalues    EBANDS =     -2465.16768440
  atomic energy  EATOM  =      5371.30148350
  Solvation  Ediel_sol  =       123.63480352
  ---------------------------------------------------
  free energy    TOTEN  =      -365.05738133 eV

  energy without entropy =     -365.05738133  energy(sigma->0) =     -365.05738133


--------------------------------------------------------------------------------------------------------




--------------------------------------- Iteration      1(   6)  ---------------------------------------


    POTLOK:  cpu time   10.9931: real time   11.0203
    SETDIJ:  cpu time    0.5237: real time    0.3272
    EDDIAG:  cpu time    5.2559: real time    2.8706
  RMM-DIIS:  cpu time   32.8362: real time   16.4888
    ORTHCH:  cpu time    0.0970: real time    0.0489
       DOS:  cpu time    0.0022: real time    0.0011
    CHARGE:  cpu time   11.4421: real time    9.4819
    MIXING:  cpu time    0.0746: real time    0.0748
    --------------------------------------------
      LOOP:  cpu time   61.2248: real time   40.3135

 eigenvalue-minimisations  :  2400
 total energy-change (2. order) : 0.9004276E+02  (-0.1073792E+02)
 number of electron     127.9999983 magnetization      28.4207711
 augmentation part        4.1569701 magnetization      28.0159072

 Broyden mixing:
  rms(total) = 0.21528E+01    rms(broyden)= 0.21526E+01
  rms(prec ) = 0.21828E+01
  weight for this iteration     100.00

 eigenvalues of (default mixing * dielectric matrix)
  average eigenvalue GAMMA=   1.1240
  1.1240

 Free energy of the ion-electron system (eV)
  ---------------------------------------------------
  alpha Z        PSCENC =        29.66604984
  Ewald energy   TEWEN  =     40912.28177946
  -Hartree energ DENC   =    -45069.65609129
  -exchange      EXHF   =         0.00000000
  -V(xc)+E(xc)   XCENC  =       564.03878013
  PAW double counting   =      7117.86383085    -7170.70778143
  entropy T*S    EENTRO =        -0.00000000
  eigenvalues    EBANDS =     -2111.39372437
  atomic energy  EATOM  =      5371.30148350
  Solvation  Ediel_sol  =        81.59105549
  ---------------------------------------------------
  free energy    TOTEN  =      -275.01461782 eV

  energy without entropy =     -275.01461782  energy(sigma->0) =     -275.01461782


--------------------------------------------------------------------------------------------------------




--------------------------------------- Iteration      1(   7)  ---------------------------------------


    POTLOK:  cpu time   10.5462: real time   10.5720
    SETDIJ:  cpu time    0.5404: real time    0.3440
    EDDIAG:  cpu time    5.2363: real time    2.8540
  RMM-DIIS:  cpu time   32.4012: real time   16.5814
    ORTHCH:  cpu time    0.0971: real time    0.0487
       DOS:  cpu time    0.0020: real time    0.0010
    CHARGE:  cpu time   11.4644: real time    9.5000
    MIXING:  cpu time    0.0692: real time    0.0693
    --------------------------------------------
      LOOP:  cpu time   60.3569: real time   39.9704

 eigenvalue-minimisations  :  2400
 total energy-change (2. order) :-0.1351504E+02  (-0.3516034E+01)
 number of electron     127.9999986 magnetization      26.9078848
 augmentation part        3.7411093 magnetization      26.3819813

 Broyden mixing:
  rms(total) = 0.14463E+01    rms(broyden)= 0.14462E+01
  rms(prec ) = 0.14555E+01
  weight for this iteration     100.00

 eigenvalues of (default mixing * dielectric matrix)
  average eigenvalue GAMMA=   1.0549
  1.3018  0.8079

 Free energy of the ion-electron system (eV)
  ---------------------------------------------------
  alpha Z        PSCENC =        29.66604984
  Ewald energy   TEWEN  =     40912.28177946
  -Hartree energ DENC   =    -45274.37435299
  -exchange      EXHF   =         0.00000000
  -V(xc)+E(xc)   XCENC  =       565.27163747
  PAW double counting   =     10982.75797820   -11037.80598381
  entropy T*S    EENTRO =        -0.00000000
  eigenvalues    EBANDS =     -1877.77903383
  atomic energy  EATOM  =      5371.30148350
  Solvation  Ediel_sol  =        40.15078285
  ---------------------------------------------------
  free energy    TOTEN  =      -288.52965932 eV

  energy without entropy =     -288.52965932  energy(sigma->0) =     -288.52965932


--------------------------------------------------------------------------------------------------------




--------------------------------------- Iteration      1(   8)  ---------------------------------------


    POTLOK:  cpu time   10.5705: real time   10.5961
    SETDIJ:  cpu time    0.5019: real time    0.3053
    EDDIAG:  cpu time    5.2391: real time    2.8556
  RMM-DIIS:  cpu time   32.2379: real time   16.1604
    ORTHCH:  cpu time    0.0973: real time    0.0488
       DOS:  cpu time    0.0022: real time    0.0011
    CHARGE:  cpu time   11.4258: real time    9.4812
    MIXING:  cpu time    0.0698: real time    0.0700
    --------------------------------------------
      LOOP:  cpu time   60.1445: real time   39.5186

 eigenvalue-minimisations  :  2400
 total energy-change (2. order) :-0.7883039E+00  (-0.4466540E+00)
 number of electron     127.9999986 magnetization      23.7921470
 augmentation part        3.7075682 magnetization      23.3347885

 Broyden mixing:
  rms(total) = 0.10784E+01    rms(broyden)= 0.10784E+01
  rms(prec ) = 0.10838E+01
  weight for this iteration     100.00

 eigenvalues of (default mixing * dielectric matrix)
  average eigenvalue GAMMA=   1.3167
  1.8724  1.3694  0.7084

 Free energy of the ion-electron system (eV)
  ---------------------------------------------------
  alpha Z        PSCENC =        29.66604984
  Ewald energy   TEWEN  =     40912.28177946
  -Hartree energ DENC   =    -45327.66470802
  -exchange      EXHF   =         0.00000000
  -V(xc)+E(xc)   XCENC  =       566.18143048
  PAW double counting   =     12946.88157408   -13002.72622050
  entropy T*S    EENTRO =        -0.00000000
  eigenvalues    EBANDS =     -1807.70725234
  atomic energy  EATOM  =      5371.30148350
  Solvation  Ediel_sol  =        22.46790029
  ---------------------------------------------------
  free energy    TOTEN  =      -289.31796322 eV

  energy without entropy =     -289.31796322  energy(sigma->0) =     -289.31796322


--------------------------------------------------------------------------------------------------------




--------------------------------------- Iteration      1(   9)  ---------------------------------------


    POTLOK:  cpu time   11.0874: real time   11.1147
    SETDIJ:  cpu time    0.5065: real time    0.3100
    EDDIAG:  cpu time    5.2418: real time    2.8594
  RMM-DIIS:  cpu time   32.4948: real time   16.3312
    ORTHCH:  cpu time    0.0962: real time    0.0486
       DOS:  cpu time    0.0023: real time    0.0011
    CHARGE:  cpu time   11.4299: real time    9.4819
    MIXING:  cpu time    0.0656: real time    0.0658
    --------------------------------------------
      LOOP:  cpu time   60.9246: real time   40.2126

 eigenvalue-minimisations  :  2400
 total energy-change (2. order) :-0.1763845E+02  (-0.1130431E+01)
 number of electron     127.9999986 magnetization      22.3423808
 augmentation part        3.7326571 magnetization      21.9862587

 Broyden mixing:
  rms(total) = 0.69846E+00    rms(broyden)= 0.69842E+00
  rms(prec ) = 0.70033E+00
  weight for this iteration     100.00

 eigenvalues of (default mixing * dielectric matrix)
  average eigenvalue GAMMA=   1.3715
  2.6388  1.4251  0.7902  0.6319

 Free energy of the ion-electron system (eV)
  ---------------------------------------------------
  alpha Z        PSCENC =        29.66604984
  Ewald energy   TEWEN  =     40912.28177946
  -Hartree energ DENC   =    -45405.68540692
  -exchange      EXHF   =         0.00000000
  -V(xc)+E(xc)   XCENC  =       556.75593351
  PAW double counting   =     15862.94505718   -15919.38417366
  entropy T*S    EENTRO =        -0.00000000
  eigenvalues    EBANDS =     -1716.92587215
  atomic energy  EATOM  =      5371.30148350
  Solvation  Ediel_sol  =         2.08873476
  ---------------------------------------------------
  free energy    TOTEN  =      -306.95641449 eV

  energy without entropy =     -306.95641449  energy(sigma->0) =     -306.95641449


--------------------------------------------------------------------------------------------------------




--------------------------------------- Iteration      1(  10)  ---------------------------------------


    POTLOK:  cpu time   10.5489: real time   10.5744
    SETDIJ:  cpu time    0.5294: real time    0.3329
    EDDIAG:  cpu time    5.2373: real time    2.8543
  RMM-DIIS:  cpu time   32.4580: real time   16.2912
    ORTHCH:  cpu time    0.0965: real time    0.0488
       DOS:  cpu time    0.0021: real time    0.0011
    CHARGE:  cpu time   11.4401: real time    9.4817
    MIXING:  cpu time    0.0839: real time    0.0841
    --------------------------------------------
      LOOP:  cpu time   60.3961: real time   39.6684

 eigenvalue-minimisations  :  2400
 total energy-change (2. order) :-0.5958224E+01  (-0.3104606E+00)
 number of electron     127.9999987 magnetization      19.7379466
 augmentation part        3.7005478 magnetization      19.4541723

 Broyden mixing:
  rms(total) = 0.60388E+00    rms(broyden)= 0.60385E+00
  rms(prec ) = 0.60539E+00
  weight for this iteration     100.00

 eigenvalues of (default mixing * dielectric matrix)
  average eigenvalue GAMMA=   1.2649
  2.5347  1.5445  0.8142  0.8142  0.6168

 Free energy of the ion-electron system (eV)
  ---------------------------------------------------
  alpha Z        PSCENC =        29.66604984
  Ewald energy   TEWEN  =     40912.28177946
  -Hartree energ DENC   =    -45436.60053239
  -exchange      EXHF   =         0.00000000
  -V(xc)+E(xc)   XCENC  =       553.51597903
  PAW double counting   =     16372.92856214   -16429.66738152
  entropy T*S    EENTRO =        -0.00000000
  eigenvalues    EBANDS =     -1691.26735528
  atomic energy  EATOM  =      5371.30148350
  Solvation  Ediel_sol  =         4.92677666
  ---------------------------------------------------
  free energy    TOTEN  =      -312.91463857 eV

  energy without entropy =     -312.91463857  energy(sigma->0) =     -312.91463857


--------------------------------------------------------------------------------------------------------




--------------------------------------- Iteration      1(  11)  ---------------------------------------


    POTLOK:  cpu time   10.6444: real time   10.6709
    SETDIJ:  cpu time    0.5355: real time    0.3390
    EDDIAG:  cpu time    5.2332: real time    2.8512
  RMM-DIIS:  cpu time   32.4462: real time   16.2647
    ORTHCH:  cpu time    0.0976: real time    0.0489
       DOS:  cpu time    0.0018: real time    0.0009
    CHARGE:  cpu time   11.4463: real time    9.4907
    MIXING:  cpu time    0.0717: real time    0.0719
    --------------------------------------------
      LOOP:  cpu time   60.4766: real time   39.7382

 eigenvalue-minimisations  :  2400
 total energy-change (2. order) :-0.6347904E+01  (-0.4968102E+00)
 number of electron     127.9999987 magnetization      14.0605454
 augmentation part        3.6369120 magnetization      13.8594601

 Broyden mixing:
  rms(total) = 0.48439E+00    rms(broyden)= 0.48433E+00
  rms(prec ) = 0.48537E+00
  weight for this iteration     100.00

 eigenvalues of (default mixing * dielectric matrix)
  average eigenvalue GAMMA=   1.7407
  4.2957  2.6357  1.3206  0.7972  0.7972  0.5979

 Free energy of the ion-electron system (eV)
  ---------------------------------------------------
  alpha Z        PSCENC =        29.66604984
  Ewald energy   TEWEN  =     40912.28177946
  -Hartree energ DENC   =    -45460.38846270
  -exchange      EXHF   =         0.00000000
  -V(xc)+E(xc)   XCENC  =       549.35425267
  PAW double counting   =     15901.24377541   -15957.83510520
  entropy T*S    EENTRO =        -0.00000000
  eigenvalues    EBANDS =     -1694.55293957
  atomic energy  EATOM  =      5371.30148350
  Solvation  Ediel_sol  =        29.66662363
  ---------------------------------------------------
  free energy    TOTEN  =      -319.26254296 eV

  energy without entropy =     -319.26254296  energy(sigma->0) =     -319.26254296


--------------------------------------------------------------------------------------------------------




--------------------------------------- Iteration      1(  12)  ---------------------------------------


    POTLOK:  cpu time   10.8583: real time   10.8851
    SETDIJ:  cpu time    0.5801: real time    0.3837
    EDDIAG:  cpu time    5.2385: real time    2.8561
  RMM-DIIS:  cpu time   32.2861: real time   16.2028
    ORTHCH:  cpu time    0.1340: real time    0.0672
       DOS:  cpu time    0.0017: real time    0.0008
    CHARGE:  cpu time   11.4316: real time    9.4811
    MIXING:  cpu time    0.0704: real time    0.0706
    --------------------------------------------
      LOOP:  cpu time   60.6007: real time   39.9475

 eigenvalue-minimisations  :  2400
 total energy-change (2. order) :-0.5751545E+01  (-0.6497893E+00)
 number of electron     127.9999987 magnetization      12.0854494
 augmentation part        3.6271225 magnetization      11.9999500

 Broyden mixing:
  rms(total) = 0.32197E+00    rms(broyden)= 0.32189E+00
  rms(prec ) = 0.32347E+00
  weight for this iteration     100.00

 eigenvalues of (default mixing * dielectric matrix)
  average eigenvalue GAMMA=   1.7897
  5.5578  2.3144  1.4596  0.9325  0.9325  0.7251  0.6062

 Free energy of the ion-electron system (eV)
  ---------------------------------------------------
  alpha Z        PSCENC =        29.66604984
  Ewald energy   TEWEN  =     40912.28177946
  -Hartree energ DENC   =    -45496.88518574
  -exchange      EXHF   =         0.00000000
  -V(xc)+E(xc)   XCENC  =       543.73111406
  PAW double counting   =     15498.59547282   -15554.72662834
  entropy T*S    EENTRO =        -0.00000000
  eigenvalues    EBANDS =     -1709.46386392
  atomic energy  EATOM  =      5371.30148350
  Solvation  Ediel_sol  =        80.48569079
  ---------------------------------------------------
  free energy    TOTEN  =      -325.01408753 eV

  energy without entropy =     -325.01408753  energy(sigma->0) =     -325.01408753


--------------------------------------------------------------------------------------------------------




--------------------------------------- Iteration      1(  13)  ---------------------------------------


    POTLOK:  cpu time   10.3425: real time   10.3675
    SETDIJ:  cpu time    0.5754: real time    0.3790
    EDDIAG:  cpu time    5.2347: real time    2.8535
  RMM-DIIS:  cpu time   32.6619: real time   16.4368
    ORTHCH:  cpu time    0.0969: real time    0.0489
       DOS:  cpu time    0.0020: real time    0.0010
    CHARGE:  cpu time   11.4290: real time    9.4800
    MIXING:  cpu time    0.0686: real time    0.0688
    --------------------------------------------
      LOOP:  cpu time   60.4110: real time   39.6355

 eigenvalue-minimisations  :  2400
 total energy-change (2. order) : 0.1667516E+00  (-0.7149765E-01)
 number of electron     127.9999987 magnetization       9.8780140
 augmentation part        3.6420199 magnetization       9.8188108

 Broyden mixing:
  rms(total) = 0.25379E+00    rms(broyden)= 0.25377E+00
  rms(prec ) = 0.25443E+00
  weight for this iteration     100.00

 eigenvalues of (default mixing * dielectric matrix)
  average eigenvalue GAMMA=   1.9168
  7.2818  2.3636  1.3987  1.3987  0.8036  0.8036  0.6237  0.6610

 Free energy of the ion-electron system (eV)
  ---------------------------------------------------
  alpha Z        PSCENC =        29.66604984
  Ewald energy   TEWEN  =     40912.28177946
  -Hartree energ DENC   =    -45506.62147387
  -exchange      EXHF   =         0.00000000
  -V(xc)+E(xc)   XCENC  =       544.21429426
  PAW double counting   =     15775.18146014   -15831.46423944
  entropy T*S    EENTRO =        -0.00000000
  eigenvalues    EBANDS =     -1710.65399678
  atomic energy  EATOM  =      5371.30148350
  Solvation  Ediel_sol  =        91.24730695
  ---------------------------------------------------
  free energy    TOTEN  =      -324.84733595 eV

  energy without entropy =     -324.84733595  energy(sigma->0) =     -324.84733595


--------------------------------------------------------------------------------------------------------




--------------------------------------- Iteration      1(  14)  ---------------------------------------


    POTLOK:  cpu time   10.2643: real time   10.2883
    SETDIJ:  cpu time    0.5922: real time    0.3959
    EDDIAG:  cpu time    5.2418: real time    2.8587
  RMM-DIIS:  cpu time   32.3824: real time   16.2319
    ORTHCH:  cpu time    0.0973: real time    0.0488
       DOS:  cpu time    0.0017: real time    0.0008
    CHARGE:  cpu time   11.4448: real time    9.4847
    MIXING:  cpu time    0.0790: real time    0.0792
    --------------------------------------------
      LOOP:  cpu time   60.1035: real time   39.3883

 eigenvalue-minimisations  :  2400
 total energy-change (2. order) : 0.1229767E+01  (-0.4254254E-01)
 number of electron     127.9999987 magnetization       7.3147823
 augmentation part        3.6643359 magnetization       7.2858364

 Broyden mixing:
  rms(total) = 0.21126E+00    rms(broyden)= 0.21125E+00
  rms(prec ) = 0.21205E+00
  weight for this iteration     100.00

 eigenvalues of (default mixing * dielectric matrix)
  average eigenvalue GAMMA=   2.0549
  8.6236  2.5508  1.9562  1.4010  0.9582  0.9582  0.7816  0.6322  0.6322

 Free energy of the ion-electron system (eV)
  ---------------------------------------------------
  alpha Z        PSCENC =        29.66604984
  Ewald energy   TEWEN  =     40912.28177946
  -Hartree energ DENC   =    -45505.00485385
  -exchange      EXHF   =         0.00000000
  -V(xc)+E(xc)   XCENC  =       544.96562109
  PAW double counting   =     15628.14106325   -15684.50891236
  entropy T*S    EENTRO =        -0.00000000
  eigenvalues    EBANDS =     -1726.00290087
  atomic energy  EATOM  =      5371.30148350
  Solvation  Ediel_sol  =       105.54310117
  ---------------------------------------------------
  free energy    TOTEN  =      -323.61756877 eV

  energy without entropy =     -323.61756877  energy(sigma->0) =     -323.61756877


--------------------------------------------------------------------------------------------------------




--------------------------------------- Iteration      1(  15)  ---------------------------------------


    POTLOK:  cpu time   10.5760: real time   10.6023
    SETDIJ:  cpu time    0.5527: real time    0.3563
    EDDIAG:  cpu time    5.2361: real time    2.8537
  RMM-DIIS:  cpu time   32.4094: real time   16.2657
    ORTHCH:  cpu time    0.0969: real time    0.0486
       DOS:  cpu time    0.0023: real time    0.0011
    CHARGE:  cpu time   11.4281: real time    9.4826
    MIXING:  cpu time    0.0778: real time    0.0779
    --------------------------------------------
      LOOP:  cpu time   60.3792: real time   39.6882

 eigenvalue-minimisations  :  2400
 total energy-change (2. order) : 0.2364602E+01  (-0.2829309E-01)
 number of electron     127.9999987 magnetization       5.4502742
 augmentation part        3.6496965 magnetization       5.4446029

 Broyden mixing:
  rms(total) = 0.15351E+00    rms(broyden)= 0.15350E+00
  rms(prec ) = 0.15379E+00
  weight for this iteration     100.00

 eigenvalues of (default mixing * dielectric matrix)
  average eigenvalue GAMMA=   2.1720
  9.8328  3.2299  2.3828  1.2645  1.2645  0.8713  0.8713  0.7553  0.6239  0.6239

 Free energy of the ion-electron system (eV)
  ---------------------------------------------------
  alpha Z        PSCENC =        29.66604984
  Ewald energy   TEWEN  =     40912.28177946
  -Hartree energ DENC   =    -45504.50720942
  -exchange      EXHF   =         0.00000000
  -V(xc)+E(xc)   XCENC  =       547.22645239
  PAW double counting   =     15460.95739798   -15517.42783302
  entropy T*S    EENTRO =        -0.00000000
  eigenvalues    EBANDS =     -1736.97713483
  atomic energy  EATOM  =      5371.30148350
  Solvation  Ediel_sol  =       116.22604771
  ---------------------------------------------------
  free energy    TOTEN  =      -321.25296640 eV

  energy without entropy =     -321.25296640  energy(sigma->0) =     -321.25296640


--------------------------------------------------------------------------------------------------------




--------------------------------------- Iteration      1(  16)  ---------------------------------------


    POTLOK:  cpu time   10.1687: real time   10.1937
    SETDIJ:  cpu time    0.5692: real time    0.3728
    EDDIAG:  cpu time    5.2363: real time    2.8540
  RMM-DIIS:  cpu time   32.2836: real time   16.1837
    ORTHCH:  cpu time    0.0974: real time    0.0488
       DOS:  cpu time    0.0059: real time    0.0030
    CHARGE:  cpu time   11.4198: real time    9.4777
    MIXING:  cpu time    0.0808: real time    0.0810
    --------------------------------------------
      LOOP:  cpu time   59.8616: real time   39.2147

 eigenvalue-minimisations  :  2400
 total energy-change (2. order) : 0.1966179E+01  (-0.1071122E-01)
 number of electron     127.9999987 magnetization       3.2691615
 augmentation part        3.6340151 magnetization       3.2671060

 Broyden mixing:
  rms(total) = 0.12560E+00    rms(broyden)= 0.12559E+00
  rms(prec ) = 0.12610E+00
  weight for this iteration     100.00

 eigenvalues of (default mixing * dielectric matrix)
  average eigenvalue GAMMA=   2.3729
 11.4038  4.4058  2.3970  1.8895  1.1899  0.9642  0.9642  0.9127  0.7435  0.6154
  0.6154

 Free energy of the ion-electron system (eV)
  ---------------------------------------------------
  alpha Z        PSCENC =        29.66604984
  Ewald energy   TEWEN  =     40912.28177946
  -Hartree energ DENC   =    -45503.41119982
  -exchange      EXHF   =         0.00000000
  -V(xc)+E(xc)   XCENC  =       549.22227305
  PAW double counting   =     15515.98017294   -15572.52327170
  entropy T*S    EENTRO =        -0.00000000
  eigenvalues    EBANDS =     -1738.81442018
  atomic energy  EATOM  =      5371.30148350
  Solvation  Ediel_sol  =       117.01034560
  ---------------------------------------------------
  free energy    TOTEN  =      -319.28678732 eV

  energy without entropy =     -319.28678732  energy(sigma->0) =     -319.28678732


--------------------------------------------------------------------------------------------------------




--------------------------------------- Iteration      1(  17)  ---------------------------------------


    POTLOK:  cpu time    9.8961: real time    9.9205
    SETDIJ:  cpu time    0.5540: real time    0.3577
    EDDIAG:  cpu time    5.2396: real time    2.8565
  RMM-DIIS:  cpu time   32.5345: real time   16.3205
    ORTHCH:  cpu time    0.0949: real time    0.0479
       DOS:  cpu time    0.0018: real time    0.0009
    CHARGE:  cpu time   11.4239: real time    9.4777
    MIXING:  cpu time    0.0803: real time    0.0805
    --------------------------------------------
      LOOP:  cpu time   59.8252: real time   39.0622

 eigenvalue-minimisations  :  2400
 total energy-change (2. order) : 0.2311602E+01  (-0.3229436E-02)
 number of electron     127.9999987 magnetization       2.1103936
 augmentation part        3.6416231 magnetization       2.1079104

 Broyden mixing:
  rms(total) = 0.80007E-01    rms(broyden)= 0.80007E-01
  rms(prec ) = 0.80325E-01
  weight for this iteration     100.00

 eigenvalues of (default mixing * dielectric matrix)
  average eigenvalue GAMMA=   2.5633
 13.2808  5.6131  2.5151  2.2655  1.2170  1.2170  0.9259  0.9259  0.8115  0.7486
  0.6195  0.6195

 Free energy of the ion-electron system (eV)
  ---------------------------------------------------
  alpha Z        PSCENC =        29.66604984
  Ewald energy   TEWEN  =     40912.28177946
  -Hartree energ DENC   =    -45494.58100059
  -exchange      EXHF   =         0.00000000
  -V(xc)+E(xc)   XCENC  =       551.31052728
  PAW double counting   =     15639.58507179   -15696.09215251
  entropy T*S    EENTRO =        -0.00000000
  eigenvalues    EBANDS =     -1742.36409861
  atomic energy  EATOM  =      5371.30148350
  Solvation  Ediel_sol  =       111.91715471
  ---------------------------------------------------
  free energy    TOTEN  =      -316.97518512 eV

  energy without entropy =     -316.97518512  energy(sigma->0) =     -316.97518512


--------------------------------------------------------------------------------------------------------




--------------------------------------- Iteration      1(  18)  ---------------------------------------


    POTLOK:  cpu time   10.0457: real time   10.0703
    SETDIJ:  cpu time    0.5442: real time    0.3479
    EDDIAG:  cpu time    5.2354: real time    2.8540
  RMM-DIIS:  cpu time   32.3323: real time   16.2198
    ORTHCH:  cpu time    0.0975: real time    0.0489
       DOS:  cpu time    0.0016: real time    0.0008
    CHARGE:  cpu time   11.4417: real time    9.4769
    MIXING:  cpu time    0.0765: real time    0.0767
    --------------------------------------------
      LOOP:  cpu time   59.7748: real time   39.0954

 eigenvalue-minimisations  :  2400
 total energy-change (2. order) : 0.1183154E+01  (-0.3101316E-02)
 number of electron     127.9999987 magnetization       1.2642056
 augmentation part        3.6524645 magnetization       1.2602475

 Broyden mixing:
  rms(total) = 0.66249E-01    rms(broyden)= 0.66248E-01
  rms(prec ) = 0.66563E-01
  weight for this iteration     100.00

 eigenvalues of (default mixing * dielectric matrix)
  average eigenvalue GAMMA=   2.6376
 14.4448  6.3246  2.7134  2.3430  1.6698  0.9965  0.9965  1.1077  0.9821  0.7352
  0.7222  0.6173  0.6355

 Free energy of the ion-electron system (eV)
  ---------------------------------------------------
  alpha Z        PSCENC =        29.66604984
  Ewald energy   TEWEN  =     40912.28177946
  -Hartree energ DENC   =    -45489.71183811
  -exchange      EXHF   =         0.00000000
  -V(xc)+E(xc)   XCENC  =       552.50954350
  PAW double counting   =     15702.94621089   -15759.41609563
  entropy T*S    EENTRO =        -0.00000000
  eigenvalues    EBANDS =     -1740.65275988
  atomic energy  EATOM  =      5371.30148350
  Solvation  Ediel_sol  =       105.28359542
  ---------------------------------------------------
  free energy    TOTEN  =      -315.79203101 eV

  energy without entropy =     -315.79203101  energy(sigma->0) =     -315.79203101


--------------------------------------------------------------------------------------------------------




--------------------------------------- Iteration      1(  19)  ---------------------------------------


    POTLOK:  cpu time   10.0837: real time   10.1087
    SETDIJ:  cpu time    0.5827: real time    0.3866
    EDDIAG:  cpu time    5.2379: real time    2.8541
  RMM-DIIS:  cpu time   39.9065: real time   20.1393
    ORTHCH:  cpu time    0.0967: real time    0.0487
       DOS:  cpu time    0.0023: real time    0.0011
    CHARGE:  cpu time   11.4251: real time    9.4843
    MIXING:  cpu time    0.0800: real time    0.0802
    --------------------------------------------
      LOOP:  cpu time   67.4149: real time   43.1030

 eigenvalue-minimisations  :  3210
 total energy-change (2. order) : 0.7019419E+00  (-0.4243991E-02)
 number of electron     127.9999987 magnetization       0.4996208
 augmentation part        3.6500122 magnetization       0.4934871

 Broyden mixing:
  rms(total) = 0.44574E-01    rms(broyden)= 0.44574E-01
  rms(prec ) = 0.44696E-01
  weight for this iteration     100.00

 eigenvalues of (default mixing * dielectric matrix)
  average eigenvalue GAMMA=   2.7177
 15.4372  6.9173  3.2217  2.6564  2.0210  1.1924  1.1924  0.9396  0.9396  0.8474
  0.6237  0.6237  0.7301  0.7057

 Free energy of the ion-electron system (eV)
  ---------------------------------------------------
  alpha Z        PSCENC =        29.66604984
  Ewald energy   TEWEN  =     40912.28177946
  -Hartree energ DENC   =    -45488.89631141
  -exchange      EXHF   =         0.00000000
  -V(xc)+E(xc)   XCENC  =       553.35604728
  PAW double counting   =     15655.44210766   -15711.89712626
  entropy T*S    EENTRO =        -0.00000000
  eigenvalues    EBANDS =     -1736.33000653
  atomic energy  EATOM  =      5371.30148350
  Solvation  Ediel_sol  =        99.98588734
  ---------------------------------------------------
  free energy    TOTEN  =      -315.09008913 eV

  energy without entropy =     -315.09008913  energy(sigma->0) =     -315.09008913


--------------------------------------------------------------------------------------------------------




--------------------------------------- Iteration      1(  20)  ---------------------------------------


    POTLOK:  cpu time   10.0445: real time   10.0701
    SETDIJ:  cpu time    0.5475: real time    0.3510
    EDDIAG:  cpu time    5.2369: real time    2.8552
  RMM-DIIS:  cpu time   35.8130: real time   18.0015
    ORTHCH:  cpu time    0.0966: real time    0.0489
       DOS:  cpu time    0.0018: real time    0.0009
    CHARGE:  cpu time   11.4531: real time    9.4933
    MIXING:  cpu time    0.0762: real time    0.0763
    --------------------------------------------
      LOOP:  cpu time   63.2694: real time   40.8972

 eigenvalue-minimisations  :  2783
 total energy-change (2. order) : 0.7542219E+00  (-0.9365498E-02)
 number of electron     127.9999987 magnetization       0.1441796
 augmentation part        3.6439429 magnetization       0.1442004

 Broyden mixing:
  rms(total) = 0.31045E-01    rms(broyden)= 0.31043E-01
  rms(prec ) = 0.31353E-01
  weight for this iteration     100.00

 eigenvalues of (default mixing * dielectric matrix)
  average eigenvalue GAMMA=   2.9537
 17.5184  8.3979  4.6849  2.5639  2.2178  1.4429  1.0481  1.0481  1.0002  1.0002
  0.7690  0.7130  0.6705  0.6151  0.6151

 Free energy of the ion-electron system (eV)
  ---------------------------------------------------
  alpha Z        PSCENC =        29.66604984
  Ewald energy   TEWEN  =     40912.28177946
  -Hartree energ DENC   =    -45488.92460720
  -exchange      EXHF   =         0.00000000
  -V(xc)+E(xc)   XCENC  =       554.15987731
  PAW double counting   =     15569.84289752   -15626.28874077
  entropy T*S    EENTRO =        -0.00000000
  eigenvalues    EBANDS =     -1732.91622560
  atomic energy  EATOM  =      5371.30148350
  Solvation  Ediel_sol  =        96.54161871
  ---------------------------------------------------
  free energy    TOTEN  =      -314.33586724 eV

  energy without entropy =     -314.33586724  energy(sigma->0) =     -314.33586724


--------------------------------------------------------------------------------------------------------




--------------------------------------- Iteration      1(  21)  ---------------------------------------


    POTLOK:  cpu time    9.0607: real time    9.0839
    SETDIJ:  cpu time    0.5706: real time    0.3744
    EDDIAG:  cpu time    5.2351: real time    2.8531
  RMM-DIIS:  cpu time   38.2956: real time   19.3223
    ORTHCH:  cpu time    0.0989: real time    0.0509
       DOS:  cpu time    0.0018: real time    0.0009
    CHARGE:  cpu time   11.4308: real time    9.4825
    MIXING:  cpu time    0.0788: real time    0.0789
    --------------------------------------------
      LOOP:  cpu time   64.7723: real time   41.2469

 eigenvalue-minimisations  :  3041
 total energy-change (2. order) : 0.3658465E+00  (-0.5251577E-02)
 number of electron     127.9999987 magnetization       0.0617134
 augmentation part        3.6452870 magnetization       0.0642041

 Broyden mixing:
  rms(total) = 0.18865E-01    rms(broyden)= 0.18864E-01
  rms(prec ) = 0.19098E-01
  weight for this iteration     100.00

 eigenvalues of (default mixing * dielectric matrix)
  average eigenvalue GAMMA=   2.9690
 18.5963  9.0717  4.9499  2.4362  2.4362  1.6339  1.1268  1.1268  0.9552  0.9552
  0.7943  0.7943  0.7409  0.6146  0.6362  0.6362

 Free energy of the ion-electron system (eV)
  ---------------------------------------------------
  alpha Z        PSCENC =        29.66604984
  Ewald energy   TEWEN  =     40912.28177946
  -Hartree energ DENC   =    -45488.39541326
  -exchange      EXHF   =         0.00000000
  -V(xc)+E(xc)   XCENC  =       554.50352860
  PAW double counting   =     15584.65395291   -15641.11447339
  entropy T*S    EENTRO =        -0.00000000
  eigenvalues    EBANDS =     -1732.45928165
  atomic energy  EATOM  =      5371.30148350
  Solvation  Ediel_sol  =        95.59235329
  ---------------------------------------------------
  free energy    TOTEN  =      -313.97002071 eV

  energy without entropy =     -313.97002071  energy(sigma->0) =     -313.97002071


--------------------------------------------------------------------------------------------------------




--------------------------------------- Iteration      1(  22)  ---------------------------------------


    POTLOK:  cpu time    9.6499: real time    9.6736
    SETDIJ:  cpu time    0.5803: real time    0.3842
    EDDIAG:  cpu time    5.2380: real time    2.8553
  RMM-DIIS:  cpu time   45.2616: real time   22.9134
    ORTHCH:  cpu time    0.0967: real time    0.0488
       DOS:  cpu time    0.0025: real time    0.0013
    CHARGE:  cpu time   11.4909: real time    9.5147
    MIXING:  cpu time    0.0458: real time    0.0459
    --------------------------------------------
      LOOP:  cpu time   72.3656: real time   45.4371

 eigenvalue-minimisations  :  3733
 total energy-change (2. order) :-0.3654398E+01  (-0.3230811E-02)
 number of electron     127.9999992 magnetization       0.0625987
 augmentation part        3.2886377 magnetization       3.6295586

 Broyden mixing:
  rms(total) = 0.57544E+00    rms(broyden)= 0.57479E+00
  rms(prec ) = 0.98086E+00
  weight for this iteration     100.00

 eigenvalues of (default mixing * dielectric matrix)
  average eigenvalue GAMMA=   2.7937
 18.5927  9.0693  4.9465  2.4352  2.4352  1.6345  1.1252  1.1252  0.9568  0.9568
  0.7931  0.7931  0.7414  0.6146  0.6362  0.6362  0.0006

 Free energy of the ion-electron system (eV)
  ---------------------------------------------------
  alpha Z        PSCENC =        29.66604984
  Ewald energy   TEWEN  =     40912.28177946
  -Hartree energ DENC   =    -45488.20976547
  -exchange      EXHF   =         0.00000000
  -V(xc)+E(xc)   XCENC  =       554.60166885
  PAW double counting   =     15615.67303482   -15672.14821077
  entropy T*S    EENTRO =        -0.00928456
  eigenvalues    EBANDS =     -1737.07641201
  atomic energy  EATOM  =      5371.30148350
  Solvation  Ediel_sol  =        96.29523766
  ---------------------------------------------------
  free energy    TOTEN  =      -317.62441869 eV

  energy without entropy =     -317.61513413  energy(sigma->0) =     -317.61977641


--------------------------------------------------------------------------------------------------------




--------------------------------------- Iteration      1(  23)  ---------------------------------------


    POTLOK:  cpu time    9.7687: real time    9.7935
    SETDIJ:  cpu time    0.5135: real time    0.3169
    EDDIAG:  cpu time    5.2372: real time    2.8546
  RMM-DIIS:  cpu time   32.3445: real time   16.2144
    ORTHCH:  cpu time    0.0976: real time    0.0489
       DOS:  cpu time    0.0017: real time    0.0009
    CHARGE:  cpu time   11.4267: real time    9.4786
    MIXING:  cpu time    0.0806: real time    0.0807
    --------------------------------------------
      LOOP:  cpu time   59.4705: real time   38.7885

 eigenvalue-minimisations  :  2402
 total energy-change (2. order) : 0.3799801E+01  (-0.1838191E+00)
 number of electron     127.9999987 magnetization       0.0241541
 augmentation part        3.6405239 magnetization       0.0252968

 Broyden mixing:
  rms(total) = 0.25074E-01    rms(broyden)= 0.13247E-01
  rms(prec ) = 0.13596E-01
  weight for this iteration     100.00
  WARNING: grid for Broyden might be to small

 eigenvalues of (default mixing * dielectric matrix)
  average eigenvalue GAMMA=   2.7746
 19.3168  9.4655  5.1483  2.6574  2.3042  1.7368  1.2141  1.2141  0.9481  0.9481
  0.8807  0.8807  0.7227  0.6728  0.6133  0.6133  0.6063  0.0003

 Free energy of the ion-electron system (eV)
  ---------------------------------------------------
  alpha Z        PSCENC =        29.66604984
  Ewald energy   TEWEN  =     40912.28177946
  -Hartree energ DENC   =    -45488.31747407
  -exchange      EXHF   =         0.00000000
  -V(xc)+E(xc)   XCENC  =       553.67954165
  PAW double counting   =     15615.65147584   -15672.12669232
  entropy T*S    EENTRO =        -0.00000000
  eigenvalues    EBANDS =     -1732.19598963
  atomic energy  EATOM  =      5371.30148350
  Solvation  Ediel_sol  =        96.23520845
  ---------------------------------------------------
  free energy    TOTEN  =      -313.82461727 eV

  energy without entropy =     -313.82461727  energy(sigma->0) =     -313.82461727


--------------------------------------------------------------------------------------------------------




--------------------------------------- Iteration      1(  24)  ---------------------------------------


    POTLOK:  cpu time    9.8455: real time    9.8667
    SETDIJ:  cpu time    0.5188: real time    0.3223
    EDDIAG:  cpu time    5.2397: real time    2.8564
  RMM-DIIS:  cpu time   32.6160: real time   16.3610
    ORTHCH:  cpu time    0.1028: real time    0.0520
       DOS:  cpu time    0.0016: real time    0.0008
    CHARGE:  cpu time   11.4422: real time    9.4833
    MIXING:  cpu time    0.0762: real time    0.0764
    --------------------------------------------
      LOOP:  cpu time   59.8428: real time   39.0188

 eigenvalue-minimisations  :  2403
 total energy-change (2. order) :-0.7491748E-02  (-0.8383163E-02)
 number of electron     127.9999987 magnetization       0.0166709
 augmentation part        3.6494272 magnetization       0.0160354

 Broyden mixing:
  rms(total) = 0.12651E-01    rms(broyden)= 0.11701E-01
  rms(prec ) = 0.12002E-01
  weight for this iteration     100.00

 eigenvalues of (default mixing * dielectric matrix)
  average eigenvalue GAMMA=   2.7722
 19.9123  9.8244  5.3387  2.6166  2.6166  2.1329  1.4262  1.1327  1.1327  0.9096
  0.9096  0.8408  0.7462  0.7337  0.6413  0.6185  0.6185  0.5202  0.0003

 Free energy of the ion-electron system (eV)
  ---------------------------------------------------
  alpha Z        PSCENC =        29.66604984
  Ewald energy   TEWEN  =     40912.28177946
  -Hartree energ DENC   =    -45487.37185567
  -exchange      EXHF   =         0.00000000
  -V(xc)+E(xc)   XCENC  =       554.63102919
  PAW double counting   =     15605.98498293   -15662.45464459
  entropy T*S    EENTRO =        -0.00000000
  eigenvalues    EBANDS =     -1735.44191343
  atomic energy  EATOM  =      5371.30148350
  Solvation  Ediel_sol  =        97.57097976
[...]
  6.821  10.407  -0.000  -0.000   0.000  -0.000  -0.000   0.000
 10.407  15.877  -0.000  -0.000   0.000  -0.000  -0.000   0.000
 -0.000  -0.000  -2.412  -0.000  -0.000  -4.148  -0.000  -0.000
 -0.000  -0.000  -0.000  -2.405  -0.000  -0.000  -4.131  -0.000
  0.000   0.000  -0.000  -0.000  -2.412  -0.000  -0.000  -4.148
 -0.000  -0.000  -4.148  -0.000  -0.000  -6.931  -0.000  -0.000
 -0.000  -0.000  -0.000  -4.131  -0.000  -0.000  -6.894  -0.000
  0.000   0.000  -0.000  -0.000  -4.148  -0.000  -0.000  -6.931
 total augmentation occupancy for first ion, spin component:           1
  4.483  -1.363  -0.000  -0.000  -0.000  -0.000   0.000  -0.000
 -1.363   0.441   0.000   0.000  -0.000  -0.000   0.000   0.000
 -0.000   0.000   5.135   0.000  -0.000  -1.592  -0.000  -0.000
 -0.000   0.000   0.000   1.671   0.000  -0.000  -0.444  -0.000
 -0.000  -0.000  -0.000   0.000   5.135  -0.000  -0.000  -1.592
 -0.000  -0.000  -1.592  -0.000  -0.000   0.509  -0.000   0.000
  0.000   0.000  -0.000  -0.444  -0.000  -0.000   0.119   0.000
 -0.000   0.000  -0.000  -0.000  -1.592   0.000   0.000   0.509
 total augmentation occupancy for first ion, spin component:           2
  0.000  -0.000  -0.000  -0.000  -0.000  -0.000   0.000   0.000
 -0.000   0.000   0.000  -0.000  -0.000  -0.000   0.000   0.000
 -0.000   0.000   0.000   0.000  -0.000  -0.000  -0.000   0.000
 -0.000  -0.000   0.000  -0.000  -0.000  -0.000   0.000  -0.000
 -0.000  -0.000  -0.000  -0.000   0.000   0.000   0.000  -0.000
 -0.000  -0.000  -0.000  -0.000   0.000   0.000   0.000   0.000
  0.000   0.000  -0.000   0.000   0.000   0.000  -0.000  -0.000
  0.000   0.000   0.000  -0.000  -0.000   0.000  -0.000   0.000


------------------------ aborting loop because EDIFF is reached ----------------------------------------


 


 total charge     
 
# of ion       s       p       d       tot
------------------------------------------
    1        0.744   1.394   0.000   2.138
    2        0.744   1.394   0.000   2.138
    3        0.744   1.394   0.000   2.138
    4        0.744   1.394   0.000   2.138
    5        0.744   1.394   0.000   2.138
    6        0.744   1.394   0.000   2.138
    7        0.744   1.394   0.000   2.138
    8        0.744   1.394   0.000   2.138
    9        0.744   1.394   0.000   2.138
   10        0.744   1.394   0.000   2.138
   11        0.744   1.394   0.000   2.138
   12        0.744   1.394   0.000   2.138
   13        0.744   1.394   0.000   2.138
   14        0.744   1.394   0.000   2.138
   15        0.744   1.394   0.000   2.138
   16        0.744   1.394   0.000   2.138
   17        1.238   2.823   0.000   4.061
   18        1.238   2.823   0.000   4.061
   19        1.238   2.823   0.000   4.061
   20        1.238   2.823   0.000   4.061
   21        1.238   2.823   0.000   4.061
   22        1.238   2.823   0.000   4.061
   23        1.238   2.823   0.000   4.061
   24        1.238   2.823   0.000   4.061
   25        1.238   2.823   0.000   4.061
   26        1.238   2.823   0.000   4.061
   27        1.238   2.823   0.000   4.061
   28        1.238   2.823   0.000   4.061
   29        1.238   2.823   0.000   4.061
   30        1.238   2.823   0.000   4.061
   31        1.238   2.823   0.000   4.061
   32        1.238   2.823   0.000   4.061
--------------------------------------------------
tot         31.714  67.461   0.000  99.175
 


 magnetization (x)
 
# of ion       s       p       d       tot
------------------------------------------
    1        0.000   0.000   0.000   0.000
    2        0.000   0.000   0.000   0.000
    3        0.000   0.000   0.000   0.000
    4        0.000   0.000   0.000   0.000
    5        0.000   0.000   0.000   0.000
    6        0.000   0.000   0.000   0.000
    7        0.000   0.000   0.000   0.000
    8        0.000   0.000   0.000   0.000
    9        0.000   0.000   0.000   0.000
   10        0.000   0.000   0.000   0.000
   11        0.000   0.000   0.000   0.000
   12        0.000   0.000   0.000   0.000
   13        0.000   0.000   0.000   0.000
   14        0.000   0.000   0.000   0.000
   15        0.000   0.000   0.000   0.000
   16        0.000   0.000   0.000   0.000
   17       -0.000   0.000   0.000  -0.000
   18       -0.000   0.000   0.000  -0.000
   19       -0.000   0.000   0.000  -0.000
   20       -0.000   0.000   0.000  -0.000
   21       -0.000   0.000   0.000  -0.000
   22       -0.000   0.000   0.000  -0.000
   23       -0.000   0.000   0.000  -0.000
   24       -0.000   0.000   0.000  -0.000
   25       -0.000   0.000   0.000  -0.000
   26       -0.000   0.000   0.000  -0.000
   27       -0.000   0.000   0.000  -0.000
   28       -0.000   0.000   0.000  -0.000
   29       -0.000   0.000   0.000  -0.000
   30       -0.000   0.000   0.000  -0.000
   31       -0.000   0.000   0.000  -0.000
   32       -0.000   0.000   0.000  -0.000
--------------------------------------------------
tot         -0.000   0.000   0.000   0.000
 
    CHARGE:  cpu time    1.7704: real time    1.1755
    FORLOC:  cpu time    0.1194: real time    0.0598
    FORNL :  cpu time    1.8535: real time    1.7214
    STRESS:  cpu time   58.8049: real time   50.0629
    FORCOR:  cpu time    0.7572: real time    0.7589
    FORHAR:  cpu time    0.1019: real time    0.1022
    MIXING:  cpu time    3.0268: real time    3.0338
    OFIELD:  cpu time    0.0001: real time    0.0001

  FORCE on cell =-STRESS in cart. coord.  units (eV):
  Direction    XX          YY          ZZ          XY          YZ          ZX
  --------------------------------------------------------------------------------------
  Alpha Z    29.66605    29.66605    29.66605
  Ewald   45257.64045 45257.63517-49602.99917     0.00000     0.00000    -0.00000
  Hartree 45019.46952 45019.47001-44550.40740     0.00023    -0.00000    -0.00000
  E(xc)    -513.57183  -513.57185  -518.93656     0.02357     0.00000    -0.00000
  Local  -91631.84173-91631.84618 92555.28161     0.00363    -0.00000     0.00000
  n-local  -239.38224  -239.38128  -238.00097    -0.06302    -0.00000     0.00000
  augment    16.83133    16.83167    19.84618     0.00002    -0.00000     0.00000
  Kinetic  2049.75667  2049.75202  2305.24648     0.82835     0.00000    -0.00000
  Fock        0.00000     0.00000     0.00000     0.00000     0.00000     0.00000
  -------------------------------------------------------------------------------------
  Total     -11.43803   -11.43814    -0.30378     0.00000     0.00000    -0.00000
  in kB      -5.96785    -5.96791    -0.15850     0.00000     0.00000    -0.00000
  external pressure =       -4.03 kB  Pullay stress =        0.00 kB


 VOLUME and BASIS-vectors are now :
 -----------------------------------------------------------------------------
  energy-cutoff  :      550.00
  volume of cell :     3070.74
      direct lattice vectors                 reciprocal lattice vectors
     5.024366704 -8.702497373  0.000000000     0.099515029 -0.057454772  0.000000000
     5.024366704  8.702497373  0.000000000     0.099515029  0.057454772  0.000000000
     0.000000000  0.000000000 35.114664386     0.000000000  0.000000000  0.028478131

  length of vectors
    10.048767154 10.048767154 35.114664386     0.114909929  0.114909929  0.028478131


 FORCES acting on ions
    electron-ion (+dipol)            ewald-force                    non-local-force                 convergence-correction
 -----------------------------------------------------------------------------------------------
   0.141E-03 -.502E-03 -.214E-09   -.320E-13 0.777E-03 -.164E-18   0.960E-19 -.242E-18 -.517E-25   -.191E-08 0.358E-08 0.532E-12
   0.141E-03 -.502E-03 -.213E-09   -.320E-13 0.777E-03 -.482E-18   -.384E-17 0.823E-18 -.672E-24   -.191E-08 0.358E-08 0.531E-12
   0.141E-03 -.502E-03 -.215E-09   -.224E-13 0.777E-03 -.174E-18   -.333E-17 -.132E-17 0.258E-24   -.191E-08 0.358E-08 0.532E-12
   0.141E-03 -.502E-03 -.214E-09   0.000E+00 0.777E-03 0.854E-19   0.418E-17 -.195E-17 -.414E-24   -.191E-08 0.358E-08 0.532E-12
   0.141E-03 -.502E-03 -.215E-09   -.202E-13 0.777E-03 -.269E-18   0.373E-17 0.174E-17 -.349E-24   -.191E-08 0.358E-08 0.529E-12
   0.141E-03 -.502E-03 -.217E-09   -.217E-13 0.777E-03 -.589E-18   0.115E-17 0.608E-19 -.129E-25   -.191E-08 0.358E-08 0.529E-12
   0.141E-03 -.502E-03 -.214E-09   0.000E+00 0.777E-03 -.250E-18   -.375E-17 -.871E-18 0.207E-24   -.191E-08 0.358E-08 0.529E-12
   0.141E-03 -.502E-03 -.215E-09   -.533E-14 0.777E-03 0.606E-19   -.121E-17 0.169E-17 0.646E-25   -.191E-08 0.358E-08 0.529E-12
   0.141E-03 -.502E-03 -.212E-09   -.134E-13 0.777E-03 0.168E-18   -.935E-18 0.182E-17 0.465E-24   -.191E-08 0.358E-08 0.527E-12
   0.141E-03 -.502E-03 -.209E-09   -.135E-13 0.777E-03 -.198E-18   0.201E-17 -.216E-19 0.207E-24   -.191E-08 0.358E-08 0.527E-12
   0.141E-03 -.502E-03 -.213E-09   -.711E-14 0.777E-03 0.206E-18   0.689E-18 0.551E-18 -.155E-24   -.191E-08 0.358E-08 0.527E-12
   0.141E-03 -.502E-03 -.209E-09   0.000E+00 0.777E-03 0.518E-18   -.378E-17 -.638E-18 -.284E-24   -.191E-08 0.358E-08 0.527E-12
   0.141E-03 -.502E-03 -.250E-09   0.142E-13 0.777E-03 0.291E-18   -.304E-17 -.505E-19 0.414E-24   -.191E-08 0.358E-08 0.530E-12
   0.141E-03 -.502E-03 -.246E-09   0.195E-13 0.777E-03 -.145E-18   -.176E-17 0.273E-18 0.646E-25   -.191E-08 0.358E-08 0.529E-12
   0.141E-03 -.502E-03 -.246E-09   0.444E-14 0.777E-03 0.274E-18   0.356E-17 -.992E-18 -.258E-25   -.191E-08 0.358E-08 0.530E-12
   0.141E-03 -.502E-03 -.246E-09   0.209E-15 0.777E-03 0.584E-18   0.342E-18 -.829E-18 -.103E-24   -.191E-08 0.358E-08 0.530E-12
   -.305E-02 0.483E-03 0.451E-10   0.284E-13 -.777E-03 -.226E-18   -.278E-18 0.142E-18 0.372E-23   0.157E-07 -.123E-09 0.897E-12
   -.305E-02 0.483E-03 0.452E-10   0.142E-13 -.777E-03 -.524E-18   0.478E-18 0.238E-18 0.124E-22   0.157E-07 -.123E-09 0.897E-12
   -.305E-02 0.483E-03 0.452E-10   0.284E-13 -.777E-03 0.168E-18   0.659E-18 0.927E-18 -.372E-23   0.157E-07 -.123E-09 0.898E-12
   -.305E-02 0.483E-03 0.453E-10   0.142E-13 -.777E-03 0.530E-18   -.618E-18 -.183E-18 0.827E-24   0.157E-07 -.123E-09 0.897E-12
   -.305E-02 0.483E-03 0.141E-10   0.533E-14 -.777E-03 -.777E-18   0.694E-20 -.126E-18 0.105E-22   0.157E-07 -.123E-09 0.893E-12
   -.305E-02 0.483E-03 0.140E-10   0.542E-14 -.777E-03 -.106E-17   -.244E-18 -.549E-18 0.538E-23   0.157E-07 -.123E-09 0.894E-12
   -.305E-02 0.483E-03 0.141E-10   0.355E-13 -.777E-03 -.338E-18   0.905E-18 -.107E-18 0.143E-22   0.157E-07 -.123E-09 0.893E-12
   -.305E-02 0.483E-03 0.142E-10   0.110E-13 -.777E-03 -.154E-18   0.330E-18 -.359E-18 -.558E-23   0.157E-07 -.123E-09 0.893E-12
   -.305E-02 0.483E-03 0.304E-10   -.234E-13 -.777E-03 -.155E-18   0.146E-17 0.108E-17 -.362E-23   0.157E-07 -.123E-09 0.886E-12
   -.305E-02 0.483E-03 0.303E-10   0.533E-14 -.777E-03 -.399E-18   0.386E-18 -.393E-18 0.827E-23   0.157E-07 -.123E-09 0.887E-12
   -.305E-02 0.483E-03 0.303E-10   0.355E-13 -.777E-03 0.299E-18   -.298E-18 -.103E-18 -.662E-23   0.157E-07 -.123E-09 0.888E-12
   -.305E-02 0.483E-03 0.306E-10   0.107E-13 -.777E-03 0.498E-18   0.941E-18 0.194E-19 0.579E-23   0.157E-07 -.123E-09 0.889E-12
   -.305E-02 0.483E-03 0.809E-10   -.142E-13 -.777E-03 0.216E-18   0.891E-18 -.725E-18 0.476E-23   0.157E-07 -.123E-09 0.890E-12
   -.305E-02 0.483E-03 0.805E-10   -.614E-14 -.777E-03 0.953E-19   0.671E-18 0.407E-18 -.212E-23   0.157E-07 -.123E-09 0.889E-12
   -.305E-02 0.483E-03 0.808E-10   0.355E-14 -.777E-03 0.862E-18   -.548E-18 -.108E-18 0.744E-23   0.157E-07 -.123E-09 0.891E-12
   -.305E-02 0.483E-03 0.808E-10   -.173E-13 -.777E-03 0.105E-17   -.931E-18 -.962E-18 0.858E-23   0.157E-07 -.123E-09 0.892E-12
 -----------------------------------------------------------------------------------------------
   -.472E-01 -.493E-03 0.898E-08   0.731E-14 0.168E-13 0.578E-33   -.207E-17 -.758E-18 0.599E-22   0.220E-06 0.553E-07 0.227E-10
 
 
 POSITION                                       TOTAL-FORCE (eV/Angst)
 -----------------------------------------------------------------------------------
      1.25610     -0.72521     17.55733         0.000000      0.000000      0.000000
      2.51219      1.45042     17.55733         0.000000      0.000000     -0.000000
      3.76828      3.62604     17.55733         0.000000      0.000000     -0.000000
      5.02437      5.80167     17.55733         0.000000      0.000000     -0.000000
      2.51219     -2.90083     17.55733         0.000000      0.000000     -0.000000
      3.76828     -0.72521     17.55733         0.000000      0.000000      0.000000
      5.02437      1.45042     17.55733         0.000000      0.000000     -0.000000
      6.28046      3.62604     17.55733         0.000000      0.000000      0.000000
      3.76828     -5.07646     17.55733         0.000000      0.000000     -0.000000
      5.02437     -2.90083     17.55733         0.000000      0.000000     -0.000000
      6.28046     -0.72521     17.55733         0.000000      0.000000      0.000000
      7.53656      1.45042     17.55733         0.000000      0.000000     -0.000000
      5.02437     -7.25208     17.55733         0.000000      0.000000     -0.000000
      6.28046     -5.07646     17.55733         0.000000      0.000000     -0.000000
      7.53656     -2.90083     17.55733         0.000000      0.000000     -0.000000
      8.79265     -0.72521     17.55733         0.000000      0.000000      0.000000
      1.25610      0.72521     17.55733        -0.000000      0.000000     -0.000000
      2.51219      2.90083     17.55733        -0.000000     -0.000000      0.000000
      3.76828      5.07646     17.55733        -0.000000      0.000000      0.000000
      5.02437      7.25208     17.55733        -0.000000      0.000000     -0.000000
      2.51219     -1.45042     17.55733         0.000000     -0.000000     -0.000000
      3.76828      0.72521     17.55733        -0.000000      0.000000      0.000000
      5.02437      2.90083     17.55733        -0.000000     -0.000000     -0.000000
      6.28046      5.07646     17.55733        -0.000000      0.000000      0.000000
      3.76828     -3.62604     17.55733        -0.000000      0.000000      0.000000
      5.02437     -1.45042     17.55733        -0.000000      0.000000     -0.000000
      6.28046      0.72521     17.55733        -0.000000     -0.000000      0.000000
      7.53656      2.90083     17.55733        -0.000000     -0.000000     -0.000000
      5.02437     -5.80167     17.55733        -0.000000      0.000000     -0.000000
      6.28046     -3.62604     17.55733        -0.000000     -0.000000     -0.000000
      7.53656     -1.45042     17.55733        -0.000000     -0.000000     -0.000000
      8.79265      0.72521     17.55733         0.000000     -0.000000      0.000000
 -----------------------------------------------------------------------------------
    total drift:                               -0.047152     -0.000492      0.000000


--------------------------------------------------------------------------------------------------------



  FREE ENERGIE OF THE ION-ELECTRON SYSTEM (eV)
  ---------------------------------------------------
  free  energy   TOTEN  =      -313.82915090 eV

  energy  without entropy=     -313.82915090  energy(sigma->0) =     -313.82915090
 


--------------------------------------------------------------------------------------------------------


    POTLOK:  cpu time    7.8217: real time    7.6414


--------------------------------------------------------------------------------------------------------




--------------------------------------------------------------------------------------------------------


  
 reached required accuracy - stopping structural energy minimisation
 writing wavefunctions
     LOOP+:  cpu time 1959.8698: real time 1275.0517
    4ORBIT:  cpu time    0.0000: real time    0.0000
 


 total charge     
 
# of ion       s       p       d       tot
------------------------------------------
    1        0.744   1.394   0.000   2.138
    2        0.744   1.394   0.000   2.138
    3        0.744   1.394   0.000   2.138
    4        0.744   1.394   0.000   2.138
    5        0.744   1.394   0.000   2.138
    6        0.744   1.394   0.000   2.138
    7        0.744   1.394   0.000   2.138
    8        0.744   1.394   0.000   2.138
    9        0.744   1.394   0.000   2.138
   10        0.744   1.394   0.000   2.138
   11        0.744   1.394   0.000   2.138
   12        0.744   1.394   0.000   2.138
   13        0.744   1.394   0.000   2.138
   14        0.744   1.394   0.000   2.138
   15        0.744   1.394   0.000   2.138
   16        0.744   1.394   0.000   2.138
   17        1.238   2.823   0.000   4.061
   18        1.238   2.823   0.000   4.061
   19        1.238   2.823   0.000   4.061
   20        1.238   2.823   0.000   4.061
   21        1.238   2.823   0.000   4.061
   22        1.238   2.823   0.000   4.061
   23        1.238   2.823   0.000   4.061
   24        1.238   2.823   0.000   4.061
   25        1.238   2.823   0.000   4.061
   26        1.238   2.823   0.000   4.061
   27        1.238   2.823   0.000   4.061
   28        1.238   2.823   0.000   4.061
   29        1.238   2.823   0.000   4.061
   30        1.238   2.823   0.000   4.061
   31        1.238   2.823   0.000   4.061
   32        1.238   2.823   0.000   4.061
--------------------------------------------------
tot         31.714  67.461   0.000  99.175
 


 magnetization (x)
 
# of ion       s       p       d       tot
------------------------------------------
    1        0.000   0.000   0.000   0.000
    2        0.000   0.000   0.000   0.000
    3        0.000   0.000   0.000   0.000
    4        0.000   0.000   0.000   0.000
    5        0.000   0.000   0.000   0.000
    6        0.000   0.000   0.000   0.000
    7        0.000   0.000   0.000   0.000
    8        0.000   0.000   0.000   0.000
    9        0.000   0.000   0.000   0.000
   10        0.000   0.000   0.000   0.000
   11        0.000   0.000   0.000   0.000
   12        0.000   0.000   0.000   0.000
   13        0.000   0.000   0.000   0.000
   14        0.000   0.000   0.000   0.000
   15        0.000   0.000   0.000   0.000
   16        0.000   0.000   0.000   0.000
   17       -0.000   0.000   0.000  -0.000
   18       -0.000   0.000   0.000  -0.000
   19       -0.000   0.000   0.000  -0.000
   20       -0.000   0.000   0.000  -0.000
   21       -0.000   0.000   0.000  -0.000
   22       -0.000   0.000   0.000  -0.000
   23       -0.000   0.000   0.000  -0.000
   24       -0.000   0.000   0.000  -0.000
   25       -0.000   0.000   0.000  -0.000
   26       -0.000   0.000   0.000  -0.000
   27       -0.000   0.000   0.000  -0.000
   28       -0.000   0.000   0.000  -0.000
   29       -0.000   0.000   0.000  -0.000
   30       -0.000   0.000   0.000  -0.000
   31       -0.000   0.000   0.000  -0.000
   32       -0.000   0.000   0.000  -0.000
--------------------------------------------------
tot         -0.000   0.000   0.000   0.000
 

 total amount of memory used by VASP MPI-rank0   141465. kBytes
=======================================================================

   base      :      30000. kBytes
   nonlr-proj:       4649. kBytes
   fftplans  :      15595. kBytes
   grid      :      55069. kBytes
   one-center:         18. kBytes
   wavefun   :      36134. kBytes
 
  
  
 General timing and accounting informations for this job:
 ========================================================
  
                  Total CPU time used (sec):     2147.722
                            User time (sec):     2014.055
                          System time (sec):      133.667
                         Elapsed time (sec):     1379.256
  
                   Maximum memory used (kb):      836364.
                   Average memory used (kb):           0.
  
                          Minor page faults:       768249
                          Major page faults:            0
                 Voluntary context switches:        12723
