 vasp.5.4.4.18Apr17-6-g9f103f2a35 (build May 01 2020 14:57:12) complex          
  
 executed on             LinuxIFC date 2021.12.09  22:21:42
 running on   96 total cores
 distrk:  each k-point on   96 cores,    1 groups
 distr:  one band on NCORES_PER_BAND=  24 cores,    4 groups


--------------------------------------------------------------------------------------------------------


 INCAR:
 POTCAR:    PAW_PBE B 06Sep2000                   
 POTCAR:    PAW_PBE N 08Apr2002                   
 POTCAR:    PAW_PBE C 08Apr2002                   
 POTCAR:    PAW_PBE F 08Apr2002                   
 POTCAR:    PAW_PBE O 08Apr2002                   

 ----------------------------------------------------------------------------- 
|                                                                             |
|           W    W    AA    RRRRR   N    N  II  N    N   GGGG   !!!           |
|           W    W   A  A   R    R  NN   N  II  NN   N  G    G  !!!           |
|           W    W  A    A  R    R  N N  N  II  N N  N  G       !!!           |
|           W WW W  AAAAAA  RRRRR   N  N N  II  N  N N  G  GGG   !            |
|           WW  WW  A    A  R   R   N   NN  II  N   NN  G    G                |
|           W    W  A    A  R    R  N    N  II  N    N   GGGG   !!!           |
|                                                                             |
|      For optimal performance we recommend to set                            |
|        NCORE= 4 - approx SQRT( number of cores)                             |
|      NCORE specifies how many cores store one orbital (NPAR=cpu/NCORE).     |
|      This setting can  greatly improve the performance of VASP for DFT.     |
|      The default,   NCORE=1            might be grossly inefficient         |
|      on modern multi-core architectures or massively parallel machines.     |
|      Do your own testing !!!!                                               |
|      Unfortunately you need to use the default for GW and RPA calculations. |
|      (for HF NCORE is supported but not extensively tested yet)             |
|                                                                             |
 ----------------------------------------------------------------------------- 


 ----------------------------------------------------------------------------- 
|                                                                             |
|  ADVICE TO THIS USER RUNNING 'VASP/VAMP'   (HEAR YOUR MASTER'S VOICE ...):  |
|                                                                             |
|      You have switched on vdW-DFT.                                          |
|      This routine was written and supplied by Jiri Klimes.                  |
|      We recommed that you carefully read and cite the following             |
|      publication                                                            |
|      J. Klimes, D.R. Bowler, A. Michelides                                  |
|        J. Phys.: Cond Matt. 22 022201 (2010)                                |
|      J. Klimes, D.R. Bowler, A. Michelides                                  |
|        Phys. Rev. B. 83, 195131 (2011)                                      |
|      and references therein.                                                |
|                                                                             |
 ----------------------------------------------------------------------------- 

 POTCAR:    PAW_PBE B 06Sep2000                   
   VRHFIN =B: s2p1                                                              
   LEXCH  = PE                                                                  
   EATOM  =    71.1703 eV,    5.2309 Ry                                         
                                                                                
   TITEL  = PAW_PBE B 06Sep2000                                                 
   LULTRA =        F    use ultrasoft PP ?                                      
   IUNSCR =        1    unscreen: 0-lin 1-nonlin 2-no                           
   RPACOR =    1.200    partial core radius                                     
   POMASS =   10.811; ZVAL   =    3.000    mass and valenz                      
   RCORE  =    1.700    outmost cutoff radius                                   
   RWIGS  =    1.710; RWIGS  =    0.905    wigner-seitz radius (au A)           
   ENMAX  =  318.614; ENMIN  =  238.960 eV                                      
   ICORE  =        2    local potential                                         
   LCOR   =        T    correct aug charges                                     
   LPAW   =        T    paw PP                                                  
   EAUG   =  535.514                                                            
   DEXC   =    0.000                                                            
   RMAX   =    1.732    core radius for proj-oper                               
   RAUG   =    1.300    factor for augmentation sphere                          
   RDEP   =    1.757    radius for radial grids                                 
   RDEPT  =    1.436    core radius for aug-charge                              
                                                                                
   Atomic configuration                                                         
    4 entries                                                                   
     n  l   j            E        occ.                                          
     1  0  0.50      -180.5896   2.0000                                         
     2  0  0.50        -9.4431   2.0000                                         
     2  1  0.50        -3.6068   1.0000                                         
     3  2  1.50        -4.0817   0.0000                                         
   Description                                                                  
     l       E           TYP  RCUT    TYP  RCUT                                 
     0     -9.4430752     23  1.500                                             
     0      0.8675899     23  1.500                                             
     1     -3.6067955     23  1.700                                             
     1      6.1086146     23  1.700                                             
     2     -4.0817478      7  1.700                                             
  local pseudopotential read in
  partial core-charges read in
  partial kinetic energy density read in
  atomic valenz-charges read in
  non local Contribution for L=           0  read in
    real space projection operators read in
  non local Contribution for L=           0  read in
    real space projection operators read in
  non local Contribution for L=           1  read in
    real space projection operators read in
  non local Contribution for L=           1  read in
    real space projection operators read in
    PAW grid and wavefunctions read in
 
   number of l-projection  operators is LMAX  =           4
   number of lm-projection operators is LMMAX =           8
 
 POTCAR:    PAW_PBE N 08Apr2002                   
   VRHFIN =N: s2p3                                                              
   LEXCH  = PE                                                                  
   EATOM  =   264.5486 eV,   19.4438 Ry                                         
                                                                                
   TITEL  = PAW_PBE N 08Apr2002                                                 
   LULTRA =        F    use ultrasoft PP ?                                      
   IUNSCR =        1    unscreen: 0-lin 1-nonlin 2-no                           
   RPACOR =    1.200    partial core radius                                     
   POMASS =   14.001; ZVAL   =    5.000    mass and valenz                      
   RCORE  =    1.500    outmost cutoff radius                                   
   RWIGS  =    1.400; RWIGS  =    0.741    wigner-seitz radius (au A)           
   ENMAX  =  400.000; ENMIN  =  300.000 eV                                      
   ICORE  =        2    local potential                                         
   LCOR   =        T    correct aug charges                                     
   LPAW   =        T    paw PP                                                  
   EAUG   =  627.112                                                            
   DEXC   =    0.000                                                            
   RMAX   =    1.529    core radius for proj-oper                               
   RAUG   =    1.300    factor for augmentation sphere                          
   RDEP   =    1.514    radius for radial grids                                 
   RDEPT  =    1.338    core radius for aug-charge                              
                                                                                
   Atomic configuration                                                         
    4 entries                                                                   
     n  l   j            E        occ.                                          
     1  0  0.50      -384.7179   2.0000                                         
     2  0  0.50       -18.5828   2.0000                                         
     2  1  0.50        -7.0898   3.0000                                         
     3  2  1.50        -6.8029   0.0000                                         
   Description                                                                  
     l       E           TYP  RCUT    TYP  RCUT                                 
     0    -18.5828119     23  1.200                                             
     0    -13.5018863     23  1.200                                             
     1     -7.0897853     23  1.500                                             
     1      9.5240782     23  1.500                                             
     2     -6.8029130      7  1.500                                             
  local pseudopotential read in
  partial core-charges read in
  partial kinetic energy density read in
  atomic valenz-charges read in
  non local Contribution for L=           0  read in
    real space projection operators read in
  non local Contribution for L=           0  read in
    real space projection operators read in
  non local Contribution for L=           1  read in
    real space projection operators read in
  non local Contribution for L=           1  read in
    real space projection operators read in
    PAW grid and wavefunctions read in
 
   number of l-projection  operators is LMAX  =           4
   number of lm-projection operators is LMMAX =           8
 
 POTCAR:    PAW_PBE C 08Apr2002                   
   VRHFIN =C: s2p2                                                              
   LEXCH  = PE                                                                  
   EATOM  =   147.1560 eV,   10.8157 Ry                                         
                                                                                
   TITEL  = PAW_PBE C 08Apr2002                                                 
   LULTRA =        F    use ultrasoft PP ?                                      
   IUNSCR =        1    unscreen: 0-lin 1-nonlin 2-no                           
   RPACOR =    1.200    partial core radius                                     
   POMASS =   12.011; ZVAL   =    4.000    mass and valenz                      
   RCORE  =    1.500    outmost cutoff radius                                   
   RWIGS  =    1.630; RWIGS  =    0.863    wigner-seitz radius (au A)           
   ENMAX  =  400.000; ENMIN  =  300.000 eV                                      
   ICORE  =        2    local potential                                         
   LCOR   =        T    correct aug charges                                     
   LPAW   =        T    paw PP                                                  
   EAUG   =  644.873                                                            
   DEXC   =    0.000                                                            
   RMAX   =    1.529    core radius for proj-oper                               
   RAUG   =    1.300    factor for augmentation sphere                          
   RDEP   =    1.501    radius for radial grids                                 
   RDEPT  =    1.300    core radius for aug-charge                              
                                                                                
   Atomic configuration                                                         
    4 entries                                                                   
     n  l   j            E        occ.                                          
     1  0  0.50      -273.3789   2.0000                                         
     2  0  0.50       -13.7508   2.0000                                         
     2  1  0.50        -5.2854   2.0000                                         
     3  2  1.50        -5.4423   0.0000                                         
   Description                                                                  
     l       E           TYP  RCUT    TYP  RCUT                                 
     0    -13.7508458     23  1.200                                             
     0     -8.2022199     23  1.200                                             
     1     -5.2854383     23  1.500                                             
     1     34.0145650     23  1.500                                             
     2     -5.4423304      7  1.500                                             
  local pseudopotential read in
  partial core-charges read in
  partial kinetic energy density read in
  atomic valenz-charges read in
  non local Contribution for L=           0  read in
    real space projection operators read in
  non local Contribution for L=           0  read in
    real space projection operators read in
  non local Contribution for L=           1  read in
    real space projection operators read in
  non local Contribution for L=           1  read in
    real space projection operators read in
    PAW grid and wavefunctions read in
 
   number of l-projection  operators is LMAX  =           4
   number of lm-projection operators is LMMAX =           8
 
 POTCAR:    PAW_PBE F 08Apr2002                   
   VRHFIN =F: s2p5                                                              
   LEXCH  = PE                                                                  
   EATOM  =   659.6475 eV,   48.4827 Ry                                         
                                                                                
   TITEL  = PAW_PBE F 08Apr2002                                                 
   LULTRA =        F    use ultrasoft PP ?                                      
   IUNSCR =        1    unscreen: 0-lin 1-nonlin 2-no                           
   RPACOR =    1.200    partial core radius                                     
   POMASS =   18.998; ZVAL   =    7.000    mass and valenz                      
   RCORE  =    1.520    outmost cutoff radius                                   
   RWIGS  =    1.500; RWIGS  =    0.794    wigner-seitz radius (au A)           
   ENMAX  =  400.000; ENMIN  =  300.000 eV                                      
   ICORE  =        2    local potential                                         
   LCOR   =        T    correct aug charges                                     
   LPAW   =        T    paw PP                                                  
   EAUG   =  613.614                                                            
   RMAX   =    1.555    core radius for proj-oper                               
   RAUG   =    1.300    factor for augmentation sphere                          
   RDEP   =    1.539    radius for radial grids                                 
   RDEPT  =    1.299    core radius for aug-charge                              
                                                                                
   Atomic configuration                                                         
    4 entries                                                                   
     n  l   j            E        occ.                                          
     1  0  0.50      -663.3661   2.0000                                         
     2  0  0.50       -29.8995   2.0000                                         
     2  1  0.50       -11.1114   5.0000                                         
     3  2  1.50       -10.8847   0.0000                                         
   Description                                                                  
     l       E           TYP  RCUT    TYP  RCUT                                 
     0    -29.8995018     23  1.200                                             
     0     -9.5240782     23  1.200                                             
     1    -11.1113914     23  1.520                                             
     1      1.3605826     23  1.520                                             
     2    -10.8846608      7  1.500                                             
  local pseudopotential read in
  partial core-charges read in
  partial kinetic energy density read in
  atomic valenz-charges read in
  non local Contribution for L=           0  read in
    real space projection operators read in
  non local Contribution for L=           0  read in
    real space projection operators read in
  non local Contribution for L=           1  read in
    real space projection operators read in
  non local Contribution for L=           1  read in
    real space projection operators read in
    PAW grid and wavefunctions read in
 
   number of l-projection  operators is LMAX  =           4
   number of lm-projection operators is LMMAX =           8
 
 POTCAR:    PAW_PBE O 08Apr2002                   
   VRHFIN =O: s2p4                                                              
   LEXCH  = PE                                                                  
   EATOM  =   432.3788 eV,   31.7789 Ry                                         
                                                                                
   TITEL  = PAW_PBE O 08Apr2002                                                 
   LULTRA =        F    use ultrasoft PP ?                                      
   IUNSCR =        1    unscreen: 0-lin 1-nonlin 2-no                           
   RPACOR =    1.200    partial core radius                                     
   POMASS =   16.000; ZVAL   =    6.000    mass and valenz                      
   RCORE  =    1.520    outmost cutoff radius                                   
   RWIGS  =    1.550; RWIGS  =    0.820    wigner-seitz radius (au A)           
   ENMAX  =  400.000; ENMIN  =  300.000 eV                                      
   ICORE  =        2    local potential                                         
   LCOR   =        T    correct aug charges                                     
   LPAW   =        T    paw PP                                                  
   EAUG   =  605.392                                                            
   DEXC   =    0.000                                                            
   RMAX   =    1.553    core radius for proj-oper                               
   RAUG   =    1.300    factor for augmentation sphere                          
   RDEP   =    1.550    radius for radial grids                                 
   RDEPT  =    1.329    core radius for aug-charge                              
                                                                                
   Atomic configuration                                                         
    4 entries                                                                   
     n  l   j            E        occ.                                          
     1  0  0.50      -514.6923   2.0000                                         
     2  0  0.50       -23.9615   2.0000                                         
     2  1  0.50        -9.0305   4.0000                                         
     3  2  1.50        -9.5241   0.0000                                         
   Description                                                                  
     l       E           TYP  RCUT    TYP  RCUT                                 
     0    -23.9615318     23  1.200                                             
     0     -9.5240782     23  1.200                                             
     1     -9.0304911     23  1.520                                             
     1      8.1634956     23  1.520                                             
     2     -9.5240782      7  1.500                                             
  local pseudopotential read in
  partial core-charges read in
  partial kinetic energy density read in
  kinetic energy density of atom read in
  atomic valenz-charges read in
  non local Contribution for L=           0  read in
    real space projection operators read in
  non local Contribution for L=           0  read in
    real space projection operators read in
  non local Contribution for L=           1  read in
    real space projection operators read in
  non local Contribution for L=           1  read in
    real space projection operators read in
    PAW grid and wavefunctions read in
 
   number of l-projection  operators is LMAX  =           4
   number of lm-projection operators is LMMAX =           8
 
 Optimization of the real space projectors (new method)

 maximal supplied QI-value         = 22.11
 optimisation between [QCUT,QGAM] = [ 11.94, 23.88] = [ 39.92,159.67] Ry 
 Optimized for a Real-space Cutoff    1.18 Angstroem

   l    n(q)    QCUT    max X(q) W(low)/X(q) W(high)/X(q)  e(spline) 
   0      8    11.939    53.033    0.11E-03    0.34E-03    0.60E-07
   0      8    11.939    34.740    0.11E-03    0.34E-03    0.59E-07
   1      8    11.939    30.949    0.22E-03    0.20E-03    0.17E-06
   1      8    11.939    19.518    0.20E-03    0.18E-03    0.16E-06
 Optimization of the real space projectors (new method)

 maximal supplied QI-value         = 25.13
 optimisation between [QCUT,QGAM] = [ 11.81, 23.88] = [ 39.08,159.64] Ry 
 Optimized for a Real-space Cutoff    1.41 Angstroem

   l    n(q)    QCUT    max X(q) W(low)/X(q) W(high)/X(q)  e(spline) 
   0     10    11.813    79.467    0.48E-04    0.30E-04    0.67E-06
   0     10    11.813    66.151    0.47E-04    0.30E-04    0.67E-06
   1     10    11.813    20.169    0.11E-03    0.17E-03    0.11E-05
   1     10    11.813    14.454    0.11E-03    0.17E-03    0.11E-05
 Optimization of the real space projectors (new method)

 maximal supplied QI-value         = 25.13
 optimisation between [QCUT,QGAM] = [ 11.81, 23.88] = [ 39.08,159.64] Ry 
 Optimized for a Real-space Cutoff    1.18 Angstroem

   l    n(q)    QCUT    max X(q) W(low)/X(q) W(high)/X(q)  e(spline) 
   0      8    11.813   115.676    0.10E-03    0.16E-03    0.35E-06
   0      8    11.813    87.132    0.10E-03    0.16E-03    0.35E-06
   1      8    11.813     4.429    0.16E-03    0.13E-04    0.22E-06
   1      8    11.813     2.733    0.13E-03    0.10E-04    0.18E-06
 Optimization of the real space projectors (new method)

 maximal supplied QI-value         = 24.76
 optimisation between [QCUT,QGAM] = [ 11.88, 24.01] = [ 39.54,161.47] Ry 
 Optimized for a Real-space Cutoff    1.18 Angstroem

   l    n(q)    QCUT    max X(q) W(low)/X(q) W(high)/X(q)  e(spline) 
   0      8    11.883    14.049    0.56E-04    0.86E-04    0.22E-06
   0      8    11.883     8.945    0.81E-04    0.11E-03    0.30E-06
   1      8    11.883     7.086    0.16E-03    0.15E-04    0.31E-06
   1      8    11.883     6.747    0.15E-03    0.14E-04    0.28E-06
 Optimization of the real space projectors (new method)

 maximal supplied QI-value         = 24.76
 optimisation between [QCUT,QGAM] = [ 11.88, 24.01] = [ 39.54,161.47] Ry 
 Optimized for a Real-space Cutoff    1.18 Angstroem

   l    n(q)    QCUT    max X(q) W(low)/X(q) W(high)/X(q)  e(spline) 
   0      8    11.883    20.381    0.86E-04    0.11E-03    0.31E-06
   0      8    11.883    15.268    0.94E-04    0.12E-03    0.33E-06
   1      8    11.883     5.964    0.19E-03    0.18E-04    0.33E-06
   1      8    11.883     5.382    0.17E-03    0.20E-04    0.29E-06
  PAW_PBE B 06Sep2000                   :
 energy of atom  1       EATOM=  -71.1703
 kinetic energy error for atom=    0.0009 (will be added to EATOM!!)
  PAW_PBE N 08Apr2002                   :
 energy of atom  2       EATOM= -264.5486
 kinetic energy error for atom=    0.0116 (will be added to EATOM!!)
  PAW_PBE C 08Apr2002                   :
 energy of atom  3       EATOM= -147.1560
 kinetic energy error for atom=    0.0066 (will be added to EATOM!!)
  PAW_PBE F 08Apr2002                   :
 energy of atom  4       EATOM= -659.6475
 kinetic energy error for atom=    0.0296 (will be added to EATOM!!)
  PAW_PBE O 08Apr2002                   :
 energy of atom  5       EATOM= -432.3788
 kinetic energy error for atom=    0.0194 (will be added to EATOM!!)
 
 
 POSCAR: B N C F O                               
  positions in direct lattice
  velocities in cartesian coordinates

 METAGGA = SCAN     LMAXTAU =  6    LMIXTAU =  F

 exchange correlation table for  LEXCH =        8
   RHO(1)=    0.500       N(1)  =     2000
   RHO(2)=  100.500       N(2)  =     4000
 


--------------------------------------------------------------------------------------------------------


 ion  position               nearest neighbor table
   1  0.111  0.056  0.500-  37 1.45  43 1.45  42 1.45
   2  0.111  0.222  0.500-  38 1.45  44 1.45  37 1.45
   3  0.111  0.389  0.500-  45 1.45  38 1.45  39 1.45
   4  0.111  0.556  0.500-  46 1.45  39 1.45  40 1.45
   5  0.111  0.722  0.500-  40 1.45  47 1.45  41 1.45
   6  0.111  0.889  0.500-  48 1.45  41 1.45  42 1.45
   7  0.278  0.056  0.500-  49 1.45  43 1.45  48 1.45
   8  0.278  0.222  0.500-  44 1.45  50 1.45  43 1.45
   9  0.278  0.389  0.500-  45 1.45  51 1.45  44 1.45
  10  0.278  0.556  0.500-  52 1.45  45 1.45  46 1.45
  11  0.278  0.722  0.500-  53 1.45  46 1.45  47 1.45
  12  0.278  0.889  0.500-  54 1.45  47 1.45  48 1.45
  13  0.444  0.056  0.500-  55 1.45  54 1.45  49 1.45
  14  0.444  0.222  0.500-  50 1.45  56 1.45  49 1.45
  15  0.444  0.389  0.499-  51 1.45  57 1.45  50 1.45
  16  0.444  0.556  0.499-  52 1.45  58 1.45  51 1.45
  17  0.444  0.722  0.500-  52 1.45  59 1.45  53 1.45
  18  0.444  0.889  0.500-  53 1.45  60 1.45  54 1.45
  19  0.611  0.055  0.500-  60 1.45  61 1.45  55 1.45
  20  0.611  0.222  0.500-  62 1.45  56 1.45  55 1.45
  21  0.611  0.389  0.499-  57 1.45  63 1.45  56 1.45
  22  0.611  0.556  0.499-  58 1.45  57 1.45  64 1.45
  23  0.611  0.722  0.500-  58 1.45  59 1.45  65 1.45
  24  0.611  0.889  0.500-  59 1.45  66 1.45  60 1.45
  25  0.778  0.056  0.500-  66 1.45  67 1.45  61 1.45
  26  0.778  0.222  0.500-  68 1.45  62 1.45  61 1.45
  27  0.778  0.389  0.500-  69 1.45  62 1.45  63 1.45
  28  0.778  0.556  0.500-  64 1.45  63 1.45  70 1.45
  29  0.778  0.722  0.500-  64 1.45  65 1.45  71 1.45
  30  0.778  0.889  0.500-  65 1.45  66 1.45  72 1.45
  31  0.944  0.056  0.500-  67 1.45  37 1.45  72 1.45
  32  0.944  0.222  0.500-  38 1.45  67 1.45  68 1.45
  33  0.944  0.389  0.500-  39 1.45  68 1.45  69 1.45
  34  0.944  0.556  0.500-  40 1.45  70 1.45  69 1.45
  35  0.944  0.722  0.500-  70 1.45  71 1.45  41 1.45
  36  0.944  0.889  0.500-  72 1.45  71 1.45  42 1.45
  37  0.056  0.111  0.500-   1 1.45  31 1.45   2 1.45
  38  0.056  0.278  0.500-   2 1.45  32 1.45   3 1.45
  39  0.056  0.444  0.500-  33 1.45   4 1.45   3 1.45
  40  0.056  0.611  0.500-   5 1.45  34 1.45   4 1.45
  41  0.056  0.778  0.500-  35 1.45   6 1.45   5 1.45
  42  0.056  0.944  0.500-   1 1.45  36 1.45   6 1.45
  43  0.222  0.111  0.500-   7 1.45   1 1.45   8 1.45
  44  0.222  0.278  0.500-   8 1.45   2 1.45   9 1.45
  45  0.222  0.444  0.500-   3 1.45   9 1.45  10 1.45
  46  0.222  0.611  0.500-   4 1.45  11 1.45  10 1.45
  47  0.222  0.778  0.500-   5 1.45  12 1.45  11 1.45
  48  0.222  0.944  0.500-   6 1.45   7 1.45  12 1.45
  49  0.389  0.111  0.500-   7 1.45  13 1.45  14 1.45
  50  0.389  0.278  0.499-  14 1.45   8 1.45  15 1.45
  51  0.389  0.444  0.499-  15 1.45   9 1.45  16 1.45
  52  0.389  0.611  0.499-  10 1.45  17 1.45  16 1.45
  53  0.389  0.778  0.500-  18 1.45  11 1.45  17 1.45
  54  0.389  0.944  0.500-  12 1.45  13 1.45  18 1.45
  55  0.556  0.111  0.500-  13 1.45  20 1.45  19 1.45
  56  0.556  0.278  0.500-  14 1.45  20 1.45  21 1.45
  57  0.556  0.444  0.498-  21 1.45  15 1.45  22 1.45
  58  0.556  0.611  0.499-  22 1.45  23 1.45  16 1.45
  59  0.556  0.778  0.500-  24 1.45  23 1.45  17 1.45
  60  0.556  0.944  0.500-  18 1.45  19 1.45  24 1.45
  61  0.722  0.111  0.500-  19 1.45  25 1.45  26 1.45
  62  0.722  0.278  0.500-  20 1.45  27 1.45  26 1.45
  63  0.722  0.444  0.500-  28 1.45  27 1.45  21 1.45
  64  0.722  0.611  0.499-  28 1.45  29 1.45  22 1.45
  65  0.722  0.778  0.500-  29 1.45  30 1.45  23 1.45
  66  0.722  0.944  0.500-  30 1.45  25 1.45  24 1.45
  67  0.889  0.111  0.500-  31 1.45  25 1.45  32 1.45
  68  0.889  0.278  0.500-  26 1.45  32 1.45  33 1.45
  69  0.889  0.444  0.500-  27 1.45  34 1.45  33 1.45
  70  0.889  0.611  0.500-  35 1.45  34 1.45  28 1.45
  71  0.889  0.778  0.500-  36 1.45  35 1.45  29 1.45
  72  0.889  0.944  0.500-  36 1.45  31 1.45  30 1.45
  73  0.545  0.469  0.605-  76 1.34  78 1.35  77 1.35  74 1.53
  74  0.494  0.515  0.629-  79 1.37  80 1.37  73 1.53  75 1.55
  75  0.438  0.560  0.605-  82 1.25  81 1.25  74 1.55
  76  0.616  0.540  0.582-  73 1.34
  77  0.591  0.431  0.627-  73 1.35
  78  0.475  0.392  0.583-  73 1.35
  79  0.427  0.439  0.653-  74 1.37
  80  0.569  0.588  0.651-  74 1.37
  81  0.492  0.651  0.596-  75 1.25
  82  0.346  0.499  0.598-  75 1.25
 
  LATTYP: Found a hexagonal cell.
 ALAT       =    15.0731507304
 C/A-ratio  =     2.3296167479
  
  Lattice vectors:
  
 A1 = (   7.5365500567, -13.0537460594,   0.0000000000)
 A2 = (   7.5365500567,  13.0537460594,   0.0000000000)
 A3 = (   0.0000000000,   0.0000000000,  35.1146643856)


Analysis of symmetry for initial positions (statically):
=====================================================================
 Subroutine PRICEL returns:
 Original cell was already a primitive cell.
 

 Routine SETGRP: Setting up the symmetry group for a 
 hexagonal supercell.


 Subroutine GETGRP returns: Found  1 space group operations
 (whereof  1 operations were pure point group operations)
 out of a pool of 24 trial point group operations.


The static configuration has the point symmetry C_1 .


Analysis of symmetry for dynamics (positions and initial velocities):
=====================================================================
 Subroutine PRICEL returns:
 Original cell was already a primitive cell.
 

 Routine SETGRP: Setting up the symmetry group for a 
 hexagonal supercell.


 Subroutine GETGRP returns: Found  1 space group operations
 (whereof  1 operations were pure point group operations)
 out of a pool of 24 trial point group operations.


The dynamic configuration has the point symmetry C_1 .


Analysis of constrained symmetry for selective dynamics:
=====================================================================
 Subroutine PRICEL returns:
 Original cell was already a primitive cell.
 

 Routine SETGRP: Setting up the symmetry group for a 
 hexagonal supercell.


 Subroutine GETGRP returns: Found  1 space group operations
 (whereof  1 operations were pure point group operations)
 out of a pool of 24 trial point group operations.


The constrained configuration has the point symmetry C_1 .


Analysis of structural, dynamic, and magnetic symmetry:
=====================================================================
 Subroutine PRICEL returns:
 Original cell was already a primitive cell.
 

 Routine SETGRP: Setting up the symmetry group for a 
 hexagonal supercell.


 Subroutine GETGRP returns: Found  1 space group operations
 (whereof  1 operations were pure point group operations)
 out of a pool of 24 trial point group operations.


The magnetic configuration has the point symmetry C_1 .


 Subroutine INISYM returns: Found  1 space group operations
 (whereof  1 operations are pure point group operations),
 and found     1 'primitive' translations

 
 
 KPOINTS: K-Point Grid                            

Automatic generation of k-mesh.
Space group operators:
 irot       det(A)        alpha          n_x          n_y          n_z        tau_x        tau_y        tau_z
    1     1.000000     0.000000     1.000000     0.000000     0.000000     0.000000     0.000000     0.000000
 
 Subroutine IBZKPT returns following result:
 ===========================================
 
 Found      5 irreducible k-points:
 
 Following reciprocal coordinates:
            Coordinates               Weight
  0.000000  0.000000  0.000000      1.000000
  0.333333  0.000000  0.000000      2.000000
  0.000000  0.333333  0.000000      2.000000
  0.333333  0.333333  0.000000      2.000000
 -0.333333  0.333333  0.000000      2.000000
 
 Following cartesian coordinates:
            Coordinates               Weight
  0.000000  0.000000  0.000000      1.000000
  0.022114 -0.012768  0.000000      2.000000
  0.022114  0.012768  0.000000      2.000000
  0.044229  0.000000  0.000000      2.000000
  0.000000  0.025535  0.000000      2.000000
 


--------------------------------------------------------------------------------------------------------




 Dimension of arrays:
   k-points           NKPTS =      5   k-points in BZ     NKDIM =      5   number of bands    NBANDS=    256
   number of dos      NEDOS =   1200   number of ions     NIONS =     82
   non local maximal  LDIM  =      4   non local SUM 2l+1 LMDIM =      8
   total plane-waves  NPLWV = ******
   max r-space proj   IRMAX =   6598   max aug-charges    IRDMAX=   8974
   dimension x,y,z NGX =   120 NGY =  120 NGZ =  270
   dimension x,y,z NGXF=   240 NGYF=  240 NGZF=  540
   support grid    NGXF=   240 NGYF=  240 NGZF=  540
   ions per type =              36  36   3   5   2
   NGX,Y,Z   is equivalent  to a cutoff of  13.24, 13.24, 12.78 a.u.
   NGXF,Y,Z  is equivalent  to a cutoff of  26.47, 26.47, 25.57 a.u.

 SYSTEM =  SiC                                     
 POSCAR =  B N C F O                               

 Startparameter for this run:
   NWRITE =      2    write-flag & timer
   PREC   = accura    normal or accurate (medium, high low for compatibility)
   ISTART =      0    job   : 0-new  1-cont  2-samecut
   ICHARG =      2    charge: 1-file 2-atom 10-const
   ISPIN  =      2    spin polarized calculation?
   LNONCOLLINEAR =      F non collinear calculations
   LSORBIT =      F    spin-orbit coupling
   INIWAV =      1    electr: 0-lowe 1-rand  2-diag
   LASPH  =      T    aspherical Exc in radial PAW
   METAGGA=      F    non-selfconsistent MetaGGA calc.

 Electronic Relaxation 1
   ENCUT  =  550.0 eV  40.42 Ry    6.36 a.u.  28.82 28.82 67.15*2*pi/ulx,y,z
   ENINI  =  550.0     initial cutoff
   ENAUG  =  644.9 eV  augmentation charge cutoff
   NELM   =    100;   NELMIN=  2; NELMDL= -5     # of ELM steps 
   EDIFF  = 0.1E-04   stopping-criterion for ELM
   LREAL  =      T    real-space projection
   NLSPLINE    = F    spline interpolate recip. space projectors
   LCOMPAT=      F    compatible to vasp.4.4
   GGA_COMPAT  = T    GGA compatible to vasp.4.4-vasp.4.6
   LMAXPAW     = -100 max onsite density
   LMAXMIX     =    2 max onsite mixed and CHGCAR
   VOSKOWN=      0    Vosko Wilk Nusair interpolation
   ROPT   =   -0.00025  -0.00025  -0.00025  -0.00025
   ROPT   =   -0.00025
 Ionic relaxation
   EDIFFG = -.5E-01   stopping-criterion for IOM
   NSW    =    500    number of steps for IOM
   NBLOCK =      1;   KBLOCK =    500    inner block; outer block 
   IBRION =      2    ionic relax: 0-MD 1-quasi-New 2-CG
   NFREE  =      1    steps in history (QN), initial steepest desc. (CG)
   ISIF   =      2    stress and relaxation
   IWAVPR =     11    prediction:  0-non 1-charg 2-wave 3-comb
   ISYM   =      2    0-nonsym 1-usesym 2-fastsym
   LCORR  =      T    Harris-Foulkes like correction to forces

   POTIM  = 0.5000    time-step for ionic-motion
   TEIN   =    0.0    initial temperature
   TEBEG  =    0.0;   TEEND  =   0.0 temperature during run
   SMASS  =  -3.00    Nose mass-parameter (am)
   estimated Nose-frequenzy (Omega)   =  0.10E-29 period in steps =****** mass=  -0.519E-26a.u.
   SCALEE = 1.0000    scale energy and forces
   NPACO  =    256;   APACO  = 16.0  distance and # of slots for P.C.
   PSTRESS=    0.0 pullay stress

  Mass of Ions in am
   POMASS =  10.81 14.00 12.01 19.00 16.00
  Ionic Valenz
   ZVAL   =   3.00  5.00  4.00  7.00  6.00
  Atomic Wigner-Seitz radii
   RWIGS  =  -1.00 -1.00 -1.00 -1.00 -1.00
  virtual crystal weights 
   VCA    =   1.00  1.00  1.00  1.00  1.00
   NELECT =     347.0000    total number of electrons
   NUPDOWN=      -1.0000    fix difference up-down

 DOS related values:
   EMIN   =  10.00;   EMAX   =-10.00  energy-range for DOS
   EFERMI =   0.00
   ISMEAR =     0;   SIGMA  =   0.05  broadening in eV -4-tet -1-fermi 0-gaus

 Electronic relaxation 2 (details)
   IALGO  =     68    algorithm
   LDIAG  =      T    sub-space diagonalisation (order eigenvalues)
   LSUBROT=      F    optimize rotation matrix (better conditioning)
   TURBO    =      0    0=normal 1=particle mesh
   IRESTART =      0    0=no restart 2=restart with 2 vectors
   NREBOOT  =      0    no. of reboots
   NMIN     =      0    reboot dimension
   EREF     =   0.00    reference energy to select bands
   IMIX   =      4    mixing-type and parameters
     AMIX     =   0.40;   BMIX     =  1.00
     AMIX_MAG =   1.60;   BMIX_MAG =  1.00
     AMIN     =   0.10
     WC   =   100.;   INIMIX=   1;  MIXPRE=   1;  MAXMIX= -45

 Intra band minimization:
   WEIMIN = 0.0010     energy-eigenvalue tresh-hold
   EBREAK =  0.98E-08  absolut break condition
   DEPER  =   0.30     relativ break condition  

   TIME   =   0.40     timestep for ELM

  volume/ion in A,a.u.               =      84.26       568.60
  Fermi-wavevector in a.u.,A,eV,Ry     =   0.604008  1.141409  4.963752  0.364825
  Thomas-Fermi vector in A             =   1.657201
 
 Write flags
   LWAVE        =      T    write WAVECAR
   LDOWNSAMPLE  =      F    k-point downsampling of WAVECAR
   LCHARG       =      F    write CHGCAR
   LVTOT        =      F    write LOCPOT, total local potential
   LVHAR        =      T    write LOCPOT, Hartree potential only
   LELF         =      F    write electronic localiz. function (ELF)
   LORBIT       =     11    0 simple, 1 ext, 2 COOP (PROOUT), +10 PAW based schemes


 Dipole corrections
   LMONO  =      F    monopole corrections only (constant potential shift)
   LDIPOL =      F    correct potential (dipole corrections)
   IDIPOL =      0    1-x, 2-y, 3-z, 4-all directions 
   EPSILON=  1.0000000 bulk dielectric constant

 Exchange correlation treatment:
   GGA     =    --    GGA type
   LEXCH   =     8    internal setting for exchange type
   VOSKOWN=      0    Vosko Wilk Nusair interpolation
   LHFCALC =     F    Hartree Fock is set to
   LHFONE  =     F    Hartree Fock one center treatment
   AEXX    =    0.0000 exact exchange contribution

 vdW DFT:
   LUSE_VDW   =     T    switch on vdW DFT
   Zab_VDW    =-.8491    correlation parameter
   PARAM1     =0.1234
   PARAM2     =1.0000
   PARAM3     =0.0000
   -- rVV10 --
   BPARAM     =15.7000
   CPARAM     = 0.0093

 Linear response parameters
   LEPSILON=     F    determine dielectric tensor
   LRPA    =     F    only Hartree local field effects (RPA)
   LNABLA  =     F    use nabla operator in PAW spheres
   LVEL    =     F    velocity operator in full k-point grid
   LINTERFAST=   F  fast interpolation
   KINTER  =     0    interpolate to denser k-point grid
   CSHIFT  =0.1000    complex shift for real part using Kramers Kronig
   OMEGAMAX=  -1.0    maximum frequency
   DEG_THRESHOLD= 0.2000000E-02 threshold for treating states as degnerate
   RTIME   =   -0.100 relaxation time in fs
  (WPLASMAI=    0.000 imaginary part of plasma frequency in eV, 0.658/RTIME)
   DFIELD  = 0.0000000 0.0000000 0.0000000 field for delta impulse in time
 
 Orbital magnetization related:
   ORBITALMAG=     F  switch on orbital magnetization
   LCHIMAG   =     F  perturbation theory with respect to B field
   DQ        =  0.001000  dq finite difference perturbation B field
   LLRAUG    =     F  two centre corrections for induced B field

 Solvation model:
   LSOL    =     T         switch on solvation model
   EB_K    = 78.400000     relative permittivity of the bulk solvent
   SIGMA_K =  0.600000     width of the dielectric cavity
   NC_K    =  0.002500     cutoff charge density
   TAU     =  0.000000     cavity surface tension
   LAMBDA_D_K    =  3.040000     Debye length in Angstroms
   LRHOB     =     F     write boundcharge  density
   LRHOION     =     F     write ioniccharge density



--------------------------------------------------------------------------------------------------------


 conjugate gradient relaxation of ions
   using selective dynamics as specified on POSCAR
 charge density and potential will be updated during run
 spin polarized calculation
 RMM-DIIS sequential band-by-band and
  variant of blocked Davidson during initial phase
 perform sub-space diagonalisation
    before iterative eigenvector-optimisation
 modified Broyden-mixing scheme, WC =      100.0
 initial mixing is a Kerker type mixing with AMIX =  0.4000 and BMIX =      1.0000
 Hartree-type preconditioning will be used
 using additional bands           82
 real space projection scheme for non local part
 use partial core corrections
 calculate Harris-corrections to forces 
   (improved forces if not selfconsistent)
 use gradient corrections 
 use of overlap-Matrix (Vanderbilt PP)
 Gauss-broadening in eV      SIGMA  =   0.05


--------------------------------------------------------------------------------------------------------


  energy-cutoff  :      550.00
  volume of cell :     6909.18
      direct lattice vectors                 reciprocal lattice vectors
     7.536550057-13.053746059  0.000000000     0.066343353 -0.038303181  0.000000000
     7.536550057 13.053746059  0.000000000     0.066343353  0.038303181  0.000000000
     0.000000000  0.000000000 35.114664386     0.000000000  0.000000000  0.028478131

  length of vectors
    15.073150730 15.073150730 35.114664386     0.076606620  0.076606620  0.028478131


 
 k-points in units of 2pi/SCALE and weight: K-Point Grid                            
   0.00000000  0.00000000  0.00000000       0.111
   0.02211445 -0.01276773  0.00000000       0.222
   0.02211445  0.01276773  0.00000000       0.222
   0.04422890  0.00000000  0.00000000       0.222
   0.00000000  0.02553545  0.00000000       0.222
 
 k-points in reciprocal lattice and weights: K-Point Grid                            
   0.00000000  0.00000000  0.00000000       0.111
   0.33333333  0.00000000  0.00000000       0.222
   0.00000000  0.33333333  0.00000000       0.222
   0.33333333  0.33333333  0.00000000       0.222
  -0.33333333  0.33333333  0.00000000       0.222
 
 position of ions in fractional coordinates (direct lattice) 
   0.11109099  0.05556822  0.50017427
   0.11111986  0.22224479  0.50019155
   0.11114989  0.38889429  0.50001238
   0.11113311  0.55554573  0.50019287
   0.11110145  0.72220228  0.50013432
   0.11108908  0.88888573  0.50003343
   0.27775168  0.05554499  0.50007253
   0.27778365  0.22224311  0.50000408
   0.27784582  0.38894371  0.49985421
   0.27785105  0.55551267  0.49985905
   0.27777557  0.72215770  0.50024876
   0.27775166  0.88884998  0.50014400
   0.44439776  0.05550679  0.50017775
   0.44440721  0.22221688  0.49976684
   0.44446083  0.38890381  0.49893716
   0.44442421  0.55556197  0.49930687
   0.44442768  0.72207834  0.49989548
   0.44439212  0.88879081  0.50023190
   0.61104856  0.05549303  0.50015760
   0.61106622  0.22220266  0.50010387
   0.61106730  0.38890900  0.49918579
   0.61107558  0.55552701  0.49869242
   0.61099874  0.72209802  0.49970448
   0.61104449  0.88878154  0.50005040
   0.77773068  0.05551576  0.50005081
   0.77773927  0.22220213  0.50010597
   0.77775662  0.38889143  0.50006823
   0.77775416  0.55557310  0.49953920
   0.77772621  0.72218328  0.49972989
   0.77770920  0.88882456  0.50014129
   0.94440926  0.05554956  0.50012450
   0.94443022  0.22222237  0.50002722
   0.94443857  0.38889289  0.50012512
   0.94444091  0.55556203  0.50012911
   0.94442538  0.72222376  0.49996587
   0.94440334  0.88888100  0.50010126
   0.05553079  0.11111834  0.50021570
   0.05553706  0.27776806  0.50008074
   0.05554802  0.44442892  0.50010105
   0.05555105  0.61109585  0.50022018
   0.05553983  0.77777039  0.50001354
   0.05552623  0.94444704  0.50009473
   0.22220584  0.11111326  0.50016905
   0.22223350  0.27779425  0.50018610
   0.22220891  0.44439783  0.49980306
   0.22222243  0.61106055  0.50020204
   0.22220962  0.77773747  0.50021573
   0.22219692  0.94442591  0.50004377
   0.38886065  0.11109026  0.50006692
   0.38887863  0.27777462  0.49949303
   0.38892950  0.44442400  0.49924764
   0.38886176  0.61105828  0.49936384
   0.38887173  0.77770038  0.50024775
   0.38885445  0.94439043  0.50022933
   0.55550779  0.11107826  0.50023890
   0.55552421  0.27777692  0.49974470
   0.55555732  0.44442152  0.49833423
   0.55554117  0.61103625  0.49902296
   0.55553476  0.77772327  0.49980566
   0.55550275  0.94438099  0.50015851
   0.72216959  0.11107777  0.50006461
   0.72218153  0.27776806  0.50021255
   0.72219382  0.44444879  0.49964524
   0.72221117  0.61110443  0.49909644
   0.72215747  0.77771620  0.50000323
   0.72217404  0.94439973  0.50011778
   0.88884837  0.11110189  0.50000894
   0.88885769  0.27777021  0.50004237
   0.88886739  0.44444434  0.50021516
   0.88887498  0.61111152  0.49992423
   0.88885716  0.77776894  0.49998342
   0.88883869  0.94442651  0.50018465
   0.54491380  0.46852337  0.60451730
   0.49360173  0.51486858  0.62873367
   0.43769041  0.55974461  0.60528672
   0.61648955  0.53975319  0.58155727
   0.59099525  0.43066149  0.62667338
   0.47521477  0.39160713  0.58284109
   0.42739940  0.43881571  0.65259321
   0.56893766  0.58838381  0.65096381
   0.49160611  0.65112281  0.59557103
   0.34565626  0.49931897  0.59828951
 
 position of ions in cartesian coordinates  (Angst):
   1.25603553 -0.72478012 17.56345156
   2.51241942  1.45059666 17.56405833
   3.76860801  3.62560480 17.55776686
   5.02445841  5.80124949 17.56410487
   6.28023522  7.97715502 17.56204885
   7.53636021 10.15316004 17.55850621
   2.51190699 -2.90062971 17.55987909
   3.76847670 -0.72501202 17.55747561
   5.02529270  1.45024365 17.55221293
   6.28068738  3.62452428 17.55238279
   7.53604714  5.80085148 17.56606748
   8.79215171  7.97712228 17.56238885
   3.76755568 -5.07648402 17.56357387
   5.02404581 -2.90041614 17.54914470
   6.28069432 -0.72522722 17.52001108
   7.53644586  1.45076413 17.53299308
   8.79143103  3.62438125 17.55366196
  10.04759996  5.80106765 17.56547536
   5.02342406 -7.25208075 17.56286638
   6.27997264 -5.07612611 17.56097961
   7.53637137 -2.89999803 17.52874140
   8.79215880 -0.72511687 17.51141707
  10.04695046  1.45026189 17.54695527
  11.30351393  3.62550901 17.55910211
   6.27980352 -9.42761022 17.55911640
   7.53610845 -7.25184070 17.56105333
   8.79250144 -5.07614743 17.55972813
  10.04868760 -2.90029519 17.54115148
  11.30414293 -0.72504335 17.54784720
  12.55991507  1.45047164 17.56229350
   7.53623969-11.60294875 17.56170404
   8.79253558 -9.42751790 17.55828801
  10.04871926 -7.25195215 17.56172579
  11.30484721 -5.07632613 17.56186568
  12.56078469 -2.90056357 17.55613370
  13.81663922 -0.72477452 17.56088794
   1.25595950  0.72562566 17.56490638
   2.51197069  2.90094707 17.56016722
   3.76810118  5.07635255 17.56088055
   5.02421776  7.25194082 17.56506380
   6.28028417  9.42781433 17.55780758
   7.53634859 11.60374643 17.56065859
   2.51207603 -1.45017435 17.56326849
   3.76848417  0.72527589 17.56386692
   5.02391512  2.90039772 17.55041669
   6.28007887  5.07579416 17.56442672
   7.53615130  7.25171936 17.56490755
   8.79231135  9.42779393 17.55886901
   3.76790507 -3.62594421 17.55968220
   5.02426558 -1.45032344 17.53953017
   6.28061037  0.72441112 17.53091344
   7.53594748  2.90049699 17.53499376
   8.79192915  5.07567041 17.56603175
  10.04806678  7.25182560 17.56538498
   5.02375913 -5.80147029 17.56572099
   6.28021571 -3.62564257 17.54836753
   7.53639053 -1.45073850 17.49883940
   8.79196912  0.72441863 17.52302384
  10.04816584  2.90039235 17.55050793
  11.30394888  5.07631788 17.56289834
   6.27981037 -7.97703744 17.55960108
   7.53617015 -5.80126069 17.56479586
   8.79246038 -3.62561309 17.54487475
  10.04859971 -1.45035915 17.52560404
  11.30387299  0.72524953 17.55744548
  12.56021663  2.90087776 17.56146794
   7.53617522-10.15250508 17.55764605
   8.79234961 -7.97698073 17.55881997
  10.04857060 -5.80138569 17.56488757
  11.30472332 -3.62585360 17.55467157
  12.56061101 -1.45011745 17.55675004
  13.81649492  0.72562932 17.56381628
   7.63781993 -0.99718121 21.22742205
   7.60038699  0.27761207 22.07777171
   7.51721892  1.59326446 21.25443996
   8.71408128 -1.00169695 20.42118843
   7.69976709 -2.09295618 22.00542549
   6.53284665 -1.09139283 20.46626917
   6.52827347  0.14902560 22.91559166
   8.72221117  0.25384512 22.85837567
   8.61223367  2.08229044 20.91327691
   6.36819817  2.00587404 21.00873540
 


--------------------------------------------------------------------------------------------------------


 k-point  1 :   0.0000 0.0000 0.0000  plane waves:  202395
 k-point  2 :   0.3333 0.0000 0.0000  plane waves:  202358
 k-point  3 :   0.0000 0.3333 0.0000  plane waves:  202358
 k-point  4 :   0.3333 0.3333 0.0000  plane waves:  202335
 k-point  5 :  -0.3333 0.3333 0.0000  plane waves:  202358

 maximum and minimum number of plane-waves per node :      8479     8400

 maximum number of plane-waves:    202395
 maximum index in each direction: 
   IXMAX=   29   IYMAX=   28   IZMAX=   67
   IXMIN=  -29   IYMIN=  -29   IZMIN=  -67


 real space projection operators:
  total allocation   :      25038.00 KBytes
  max/ min on nodes  :       1056.44       1031.75


 parallel 3D FFT for wavefunctions:
    minimum data exchange during FFTs selected (reduces bandwidth)
 parallel 3D FFT for charge:
    minimum data exchange during FFTs selected (reduces bandwidth)


 total amount of memory used by VASP MPI-rank0   215030. kBytes
=======================================================================

   base      :      30000. kBytes
   nonlr-proj:      10480. kBytes
   fftplans  :      17498. kBytes
   grid      :      70152. kBytes
   one-center:         24. kBytes
   wavefun   :      86876. kBytes
 
     INWAV:  cpu time    0.0000: real time    0.0000
 Broyden mixing: mesh for mixing (old mesh)
   NGX = 57   NGY = 57   NGZ =135
  (NGX  =240   NGY  =240   NGZ  =540)
  gives a total of 438615 points

 initial charge density was supplied:
 charge density of overlapping atoms calculated
 number of electron     347.0000000 magnetization      82.0000000
 keeping initial charge density in first step


--------------------------------------------------------------------------------------------------------


 Maximum index for non-local projection operator          371
 Maximum index for augmentation-charges          388 (set IRDMAX)


--------------------------------------------------------------------------------------------------------


 First call to EWALD:  gamma=   0.093
 Maximum number of real-space cells 4x 4x 2
 Maximum number of reciprocal cells 2x 2x 5

    FEWALD:  cpu time    0.0054: real time    0.0282


--------------------------------------- Iteration      1(   1)  ---------------------------------------


    POTLOK:  cpu time   34.7510: real time   35.1269
    SETDIJ:  cpu time    0.4116: real time    0.5057
     EDDAV:  cpu time  155.9879: real time  156.8146
       DOS:  cpu time    0.0031: real time    0.0124
    --------------------------------------------
      LOOP:  cpu time  191.1536: real time  192.4596

 eigenvalue-minimisations  :  6120
 total energy-change (2. order) : 0.3496416E+04  (-0.1184600E+05)
 number of electron     347.0000000 magnetization      82.0000000
 augmentation part      347.0000000 magnetization      82.0000000

 Free energy of the ion-electron system (eV)
  ---------------------------------------------------
  alpha Z        PSCENC =        92.14382556
  Ewald energy   TEWEN  =    117371.92760127
  -Hartree energ DENC   =   -130066.02812857
  -exchange      EXHF   =         0.00000000
  -V(xc)+E(xc)   XCENC  =      1478.73096830
  PAW double counting   =     12389.81687870   -12541.43845553
  entropy T*S    EENTRO =        -0.05875420
  eigenvalues    EBANDS =     -2309.09717412
  atomic energy  EATOM  =     16689.68470767
  Solvation  Ediel_sol  =       390.73494292
  ---------------------------------------------------
  free energy    TOTEN  =      3496.41641200 eV

  energy without entropy =     3496.47516621  energy(sigma->0) =     3496.44578910


--------------------------------------------------------------------------------------------------------




--------------------------------------- Iteration      1(   2)  ---------------------------------------


     EDDAV:  cpu time  187.6086: real time  187.9649
       DOS:  cpu time    0.0026: real time    0.0025
    --------------------------------------------
      LOOP:  cpu time  187.6112: real time  187.9675

 eigenvalue-minimisations  :  8144
 total energy-change (2. order) :-0.3401718E+04  (-0.3099006E+04)
 number of electron     347.0000000 magnetization      82.0000000
 augmentation part      347.0000000 magnetization      82.0000000

 Free energy of the ion-electron system (eV)
  ---------------------------------------------------
  alpha Z        PSCENC =        92.14382556
  Ewald energy   TEWEN  =    117371.92760127
  -Hartree energ DENC   =   -130066.02812857
  -exchange      EXHF   =         0.00000000
  -V(xc)+E(xc)   XCENC  =      1478.73096830
  PAW double counting   =     12389.81687870   -12541.43845553
  entropy T*S    EENTRO =        -0.00016651
  eigenvalues    EBANDS =     -5710.87407960
  atomic energy  EATOM  =     16689.68470767
  Solvation  Ediel_sol  =       390.73494292
  ---------------------------------------------------
  free energy    TOTEN  =        94.69809421 eV

  energy without entropy =       94.69826072  energy(sigma->0) =       94.69817747


--------------------------------------------------------------------------------------------------------




--------------------------------------- Iteration      1(   3)  ---------------------------------------


     EDDAV:  cpu time  162.6187: real time  162.9249
       DOS:  cpu time    0.0021: real time    0.0021
    --------------------------------------------
      LOOP:  cpu time  162.6208: real time  162.9269

 eigenvalue-minimisations  :  6536
 total energy-change (2. order) :-0.9486582E+03  (-0.9402661E+03)
 number of electron     347.0000000 magnetization      82.0000000
 augmentation part      347.0000000 magnetization      82.0000000

 Free energy of the ion-electron system (eV)
  ---------------------------------------------------
  alpha Z        PSCENC =        92.14382556
  Ewald energy   TEWEN  =    117371.92760127
  -Hartree energ DENC   =   -130066.02812857
  -exchange      EXHF   =         0.00000000
  -V(xc)+E(xc)   XCENC  =      1478.73096830
  PAW double counting   =     12389.81687870   -12541.43845553
  entropy T*S    EENTRO =        -0.00000000
  eigenvalues    EBANDS =     -6659.53245415
  atomic energy  EATOM  =     16689.68470767
  Solvation  Ediel_sol  =       390.73494292
  ---------------------------------------------------
  free energy    TOTEN  =      -853.96011383 eV

  energy without entropy =     -853.96011383  energy(sigma->0) =     -853.96011383


--------------------------------------------------------------------------------------------------------




--------------------------------------- Iteration      1(   4)  ---------------------------------------


     EDDAV:  cpu time  160.3158: real time  160.6141
       DOS:  cpu time    0.0019: real time    0.0019
    --------------------------------------------
      LOOP:  cpu time  160.3177: real time  160.6160

 eigenvalue-minimisations  :  6384
 total energy-change (2. order) :-0.4845202E+02  (-0.4801423E+02)
 number of electron     347.0000000 magnetization      82.0000000
 augmentation part      347.0000000 magnetization      82.0000000

 Free energy of the ion-electron system (eV)
  ---------------------------------------------------
  alpha Z        PSCENC =        92.14382556
  Ewald energy   TEWEN  =    117371.92760127
  -Hartree energ DENC   =   -130066.02812857
  -exchange      EXHF   =         0.00000000
  -V(xc)+E(xc)   XCENC  =      1478.73096830
  PAW double counting   =     12389.81687870   -12541.43845553
  entropy T*S    EENTRO =        -0.00000000
  eigenvalues    EBANDS =     -6707.98447377
  atomic energy  EATOM  =     16689.68470767
  Solvation  Ediel_sol  =       390.73494292
  ---------------------------------------------------
  free energy    TOTEN  =      -902.41213345 eV

  energy without entropy =     -902.41213345  energy(sigma->0) =     -902.41213345


--------------------------------------------------------------------------------------------------------




--------------------------------------- Iteration      1(   5)  ---------------------------------------


     EDDAV:  cpu time  160.0797: real time  160.3822
       DOS:  cpu time    0.0020: real time    0.0020
    CHARGE:  cpu time   28.5859: real time   28.7104
    MIXING:  cpu time    0.0180: real time    0.0184
    --------------------------------------------
      LOOP:  cpu time  188.6858: real time  189.1132

 eigenvalue-minimisations  :  6368
 total energy-change (2. order) :-0.1015382E+01  (-0.1011307E+01)
 number of electron     346.9999975 magnetization      77.9793082
 augmentation part       18.4141590 magnetization      77.6287295

 Broyden mixing:
  rms(total) = 0.65471E+01    rms(broyden)= 0.65462E+01
  rms(prec ) = 0.66427E+01
  weight for this iteration     100.00

 Free energy of the ion-electron system (eV)
  ---------------------------------------------------
  alpha Z        PSCENC =        92.14382556
  Ewald energy   TEWEN  =    117371.92760127
  -Hartree energ DENC   =   -130066.02812857
  -exchange      EXHF   =         0.00000000
  -V(xc)+E(xc)   XCENC  =      1478.73096830
  PAW double counting   =     12389.81687870   -12541.43845553
  entropy T*S    EENTRO =        -0.00000000
  eigenvalues    EBANDS =     -6708.99985567
  atomic energy  EATOM  =     16689.68470767
  Solvation  Ediel_sol  =       390.73494292
  ---------------------------------------------------
  free energy    TOTEN  =      -903.42751535 eV

  energy without entropy =     -903.42751535  energy(sigma->0) =     -903.42751535


--------------------------------------------------------------------------------------------------------




--------------------------------------- Iteration      1(   6)  ---------------------------------------


    POTLOK:  cpu time   33.0255: real time   33.1168
    SETDIJ:  cpu time    0.4323: real time    0.4332
    EDDIAG:  cpu time   33.0282: real time   33.0770
  RMM-DIIS:  cpu time  188.4746: real time  188.8461
    ORTHCH:  cpu time    0.8035: real time    0.8052
       DOS:  cpu time    0.0027: real time    0.0027
    CHARGE:  cpu time   28.7487: real time   28.8018
    MIXING:  cpu time    0.0157: real time    0.0167
    --------------------------------------------
      LOOP:  cpu time  284.5312: real time  285.0996

 eigenvalue-minimisations  :  5120
 total energy-change (2. order) : 0.2504892E+03  (-0.2984002E+02)
 number of electron     346.9999978 magnetization      73.1660222
 augmentation part       17.3980004 magnetization      71.1577872

 Broyden mixing:
  rms(total) = 0.33949E+01    rms(broyden)= 0.33946E+01
  rms(prec ) = 0.34390E+01
  weight for this iteration     100.00

 eigenvalues of (default mixing * dielectric matrix)
  average eigenvalue GAMMA=   1.0724
  1.0724

 Free energy of the ion-electron system (eV)
  ---------------------------------------------------
  alpha Z        PSCENC =        92.14382556
  Ewald energy   TEWEN  =    117371.92760127
  -Hartree energ DENC   =   -130715.64316368
  -exchange      EXHF   =         0.00000000
  -V(xc)+E(xc)   XCENC  =      1631.08716256
  PAW double counting   =     20266.80327448   -20425.45634459
  entropy T*S    EENTRO =        -0.02106692
  eigenvalues    EBANDS =     -5861.91306639
  atomic energy  EATOM  =     16689.68470767
  Solvation  Ediel_sol  =       298.44877869
  ---------------------------------------------------
  free energy    TOTEN  =      -652.93829134 eV

  energy without entropy =     -652.91722442  energy(sigma->0) =     -652.92775788


--------------------------------------------------------------------------------------------------------




--------------------------------------- Iteration      1(   7)  ---------------------------------------


    POTLOK:  cpu time   32.2873: real time   32.3653
    SETDIJ:  cpu time    0.4332: real time    0.4342
    EDDIAG:  cpu time   32.9859: real time   33.0261
  RMM-DIIS:  cpu time  188.5122: real time  188.8697
    ORTHCH:  cpu time    0.8202: real time    0.8220
       DOS:  cpu time    0.0029: real time    0.0029
    CHARGE:  cpu time   28.5836: real time   28.6393
    MIXING:  cpu time    0.0163: real time    0.0164
    --------------------------------------------
      LOOP:  cpu time  283.6416: real time  284.1758

 eigenvalue-minimisations  :  5120
 total energy-change (2. order) :-0.3880171E+02  (-0.8101888E+01)
 number of electron     346.9999981 magnetization      69.4345548
 augmentation part       16.3564747 magnetization      67.2590519

 Broyden mixing:
  rms(total) = 0.23653E+01    rms(broyden)= 0.23650E+01
  rms(prec ) = 0.23811E+01
  weight for this iteration     100.00

 eigenvalues of (default mixing * dielectric matrix)
  average eigenvalue GAMMA=   1.0213
  1.2780  0.7646

 Free energy of the ion-electron system (eV)
  ---------------------------------------------------
  alpha Z        PSCENC =        92.14382556
  Ewald energy   TEWEN  =    117371.92760127
  -Hartree energ DENC   =   -131184.62729293
  -exchange      EXHF   =         0.00000000
  -V(xc)+E(xc)   XCENC  =      1629.53621290
  PAW double counting   =     29055.08965091   -29219.17416649
  entropy T*S    EENTRO =        -0.02201352
  eigenvalues    EBANDS =     -5328.83380870
  atomic energy  EATOM  =     16689.68470767
  Solvation  Ediel_sol  =       202.53528067
  ---------------------------------------------------
  free energy    TOTEN  =      -691.74000266 eV

  energy without entropy =     -691.71798915  energy(sigma->0) =     -691.72899591


--------------------------------------------------------------------------------------------------------




--------------------------------------- Iteration      1(   8)  ---------------------------------------


    POTLOK:  cpu time   32.4975: real time   32.5710
    SETDIJ:  cpu time    0.4311: real time    0.4321
    EDDIAG:  cpu time   32.9745: real time   33.0406
  RMM-DIIS:  cpu time  188.8463: real time  189.2061
    ORTHCH:  cpu time    0.8208: real time    0.8226
       DOS:  cpu time    0.0030: real time    0.0030
    CHARGE:  cpu time   28.6940: real time   28.7484
    MIXING:  cpu time    0.0166: real time    0.0167
    --------------------------------------------
      LOOP:  cpu time  284.2838: real time  284.8404

 eigenvalue-minimisations  :  5120
 total energy-change (2. order) :-0.4543676E+01  (-0.1250329E+01)
 number of electron     346.9999982 magnetization      61.7862575
 augmentation part       16.2204144 magnetization      59.5481921

 Broyden mixing:
  rms(total) = 0.17632E+01    rms(broyden)= 0.17632E+01
  rms(prec ) = 0.17724E+01
  weight for this iteration     100.00

 eigenvalues of (default mixing * dielectric matrix)
  average eigenvalue GAMMA=   1.2615
  1.7358  1.3436  0.7051

 Free energy of the ion-electron system (eV)
  ---------------------------------------------------
  alpha Z        PSCENC =        92.14382556
  Ewald energy   TEWEN  =    117371.92760127
  -Hartree energ DENC   =   -131314.06046082
  -exchange      EXHF   =         0.00000000
  -V(xc)+E(xc)   XCENC  =      1630.67809718
  PAW double counting   =     33801.67337494   -33967.71602045
  entropy T*S    EENTRO =        -0.01844885
  eigenvalues    EBANDS =     -5153.46342777
  atomic energy  EATOM  =     16689.68470767
  Solvation  Ediel_sol  =       152.86707278
  ---------------------------------------------------
  free energy    TOTEN  =      -696.28367849 eV

  energy without entropy =     -696.26522964  energy(sigma->0) =     -696.27445407


--------------------------------------------------------------------------------------------------------




--------------------------------------- Iteration      1(   9)  ---------------------------------------


    POTLOK:  cpu time   33.0837: real time   33.1563
    SETDIJ:  cpu time    0.4299: real time    0.4311
    EDDIAG:  cpu time   33.0152: real time   33.0596
  RMM-DIIS:  cpu time  188.1742: real time  188.5282
    ORTHCH:  cpu time    0.8261: real time    0.8279
       DOS:  cpu time    0.0031: real time    0.0031
    CHARGE:  cpu time   28.4861: real time   28.5415
    MIXING:  cpu time    0.0173: real time    0.0172
    --------------------------------------------
      LOOP:  cpu time  284.0355: real time  284.5648

 eigenvalue-minimisations  :  5120
 total energy-change (2. order) :-0.4541795E+02  (-0.2772877E+01)
 number of electron     346.9999980 magnetization      59.0332119
 augmentation part       16.2242459 magnetization      58.6187158

 Broyden mixing:
  rms(total) = 0.13916E+01    rms(broyden)= 0.13913E+01
  rms(prec ) = 0.14061E+01
  weight for this iteration     100.00

 eigenvalues of (default mixing * dielectric matrix)
  average eigenvalue GAMMA=   1.2605
  2.4135  1.3132  0.7499  0.5652

 Free energy of the ion-electron system (eV)
  ---------------------------------------------------
  alpha Z        PSCENC =        92.14382556
  Ewald energy   TEWEN  =    117371.92760127
  -Hartree energ DENC   =   -131469.99457663
  -exchange      EXHF   =         0.00000000
  -V(xc)+E(xc)   XCENC  =      1606.35215434
  PAW double counting   =     40607.93459133   -40775.27278387
  entropy T*S    EENTRO =        -0.01232928
  eigenvalues    EBANDS =     -4945.97755464
  atomic energy  EATOM  =     16689.68470767
  Solvation  Ediel_sol  =        81.51273436
  ---------------------------------------------------
  free energy    TOTEN  =      -741.70162988 eV

  energy without entropy =     -741.68930060  energy(sigma->0) =     -741.69546524


--------------------------------------------------------------------------------------------------------




--------------------------------------- Iteration      1(  10)  ---------------------------------------


    POTLOK:  cpu time   32.2026: real time   32.2723
    SETDIJ:  cpu time    0.4304: real time    0.4316
    EDDIAG:  cpu time   33.0425: real time   33.0799
  RMM-DIIS:  cpu time  188.1908: real time  188.5446
    ORTHCH:  cpu time    0.8185: real time    0.8203
       DOS:  cpu time    0.0027: real time    0.0027
    CHARGE:  cpu time   28.6476: real time   28.7023
    MIXING:  cpu time    0.0226: real time    0.0230
    --------------------------------------------
      LOOP:  cpu time  283.3577: real time  283.8766

 eigenvalue-minimisations  :  5120
 total energy-change (2. order) :-0.1021254E+02  (-0.4798615E+00)
 number of electron     346.9999982 magnetization      55.9812972
 augmentation part       16.2725899 magnetization      54.4864995

 Broyden mixing:
  rms(total) = 0.11034E+01    rms(broyden)= 0.11031E+01
  rms(prec ) = 0.11070E+01
  weight for this iteration     100.00

 eigenvalues of (default mixing * dielectric matrix)
  average eigenvalue GAMMA=   1.1443
  2.5096  1.3864  0.7243  0.7243  0.3770

 Free energy of the ion-electron system (eV)
  ---------------------------------------------------
  alpha Z        PSCENC =        92.14382556
  Ewald energy   TEWEN  =    117371.92760127
  -Hartree energ DENC   =   -131520.33867305
  -exchange      EXHF   =         0.00000000
  -V(xc)+E(xc)   XCENC  =      1600.63448670
  PAW double counting   =     41764.12351875   -41931.73483091
  entropy T*S    EENTRO =        -0.02020880
  eigenvalues    EBANDS =     -4892.94604273
  atomic energy  EATOM  =     16689.68470767
  Solvation  Ediel_sol  =        74.61144100
  ---------------------------------------------------
  free energy    TOTEN  =      -751.91417453 eV

  energy without entropy =     -751.89396573  energy(sigma->0) =     -751.90407013


--------------------------------------------------------------------------------------------------------




--------------------------------------- Iteration      1(  11)  ---------------------------------------


    POTLOK:  cpu time   31.6040: real time   31.6730
    SETDIJ:  cpu time    0.4296: real time    0.4305
    EDDIAG:  cpu time   33.1098: real time   33.1506
  RMM-DIIS:  cpu time  188.3623: real time  188.7195
    ORTHCH:  cpu time    0.8319: real time    0.8338
       DOS:  cpu time    0.0031: real time    0.0031
    CHARGE:  cpu time   28.5653: real time   28.6181
    MIXING:  cpu time    0.0179: real time    0.0179
    --------------------------------------------
      LOOP:  cpu time  282.9239: real time  283.4466

 eigenvalue-minimisations  :  5120
 total energy-change (2. order) :-0.1209027E+02  (-0.4596421E+00)
 number of electron     346.9999982 magnetization      47.6392399
 augmentation part       16.1972835 magnetization      46.3317402

 Broyden mixing:
  rms(total) = 0.95748E+00    rms(broyden)= 0.95743E+00
  rms(prec ) = 0.96067E+00
  weight for this iteration     100.00

 eigenvalues of (default mixing * dielectric matrix)
  average eigenvalue GAMMA=   1.2227
  2.6225  1.7074  0.9259  0.9259  0.6441  0.5104

 Free energy of the ion-electron system (eV)
  ---------------------------------------------------
  alpha Z        PSCENC =        92.14382556
  Ewald energy   TEWEN  =    117371.92760127
  -Hartree energ DENC   =   -131551.00987675
  -exchange      EXHF   =         0.00000000
  -V(xc)+E(xc)   XCENC  =      1592.90329253
  PAW double counting   =     42007.33382048   -42174.94622653
  entropy T*S    EENTRO =        -0.01937829
  eigenvalues    EBANDS =     -4873.91233265
  atomic energy  EATOM  =     16689.68470767
  Solvation  Ediel_sol  =        81.89011989
  ---------------------------------------------------
  free energy    TOTEN  =      -764.00444682 eV

  energy without entropy =     -763.98506853  energy(sigma->0) =     -763.99475768


--------------------------------------------------------------------------------------------------------




--------------------------------------- Iteration      1(  12)  ---------------------------------------


    POTLOK:  cpu time   32.0686: real time   32.1408
    SETDIJ:  cpu time    0.4328: real time    0.4341
    EDDIAG:  cpu time   33.1129: real time   33.1555
  RMM-DIIS:  cpu time  188.0989: real time  188.4562
    ORTHCH:  cpu time    0.8162: real time    0.8180
       DOS:  cpu time    0.0029: real time    0.0029
    CHARGE:  cpu time   28.7767: real time   28.8324
    MIXING:  cpu time    0.0180: real time    0.0181
    --------------------------------------------
      LOOP:  cpu time  283.3270: real time  283.8579

 eigenvalue-minimisations  :  5120
 total energy-change (2. order) :-0.2092092E+02  (-0.1498386E+01)
 number of electron     346.9999983 magnetization      34.7100463
 augmentation part       16.0649771 magnetization      34.1957199

 Broyden mixing:
  rms(total) = 0.75225E+00    rms(broyden)= 0.75219E+00
  rms(prec ) = 0.75381E+00
  weight for this iteration     100.00

 eigenvalues of (default mixing * dielectric matrix)
  average eigenvalue GAMMA=   1.4921
  4.0637  2.3294  1.2509  0.8331  0.8331  0.5672  0.5672

 Free energy of the ion-electron system (eV)
  ---------------------------------------------------
  alpha Z        PSCENC =        92.14382556
  Ewald energy   TEWEN  =    117371.92760127
  -Hartree energ DENC   =   -131588.15893955
  -exchange      EXHF   =         0.00000000
  -V(xc)+E(xc)   XCENC  =      1577.61671642
  PAW double counting   =     41493.73956071   -41661.07331019
  entropy T*S    EENTRO =        -0.02981163
  eigenvalues    EBANDS =     -4885.90201124
  atomic energy  EATOM  =     16689.68470767
  Solvation  Ediel_sol  =       125.12629623
  ---------------------------------------------------
  free energy    TOTEN  =      -784.92536474 eV

  energy without entropy =     -784.89555311  energy(sigma->0) =     -784.91045893


--------------------------------------------------------------------------------------------------------




--------------------------------------- Iteration      1(  13)  ---------------------------------------


    POTLOK:  cpu time   32.2014: real time   32.2744
    SETDIJ:  cpu time    0.4321: real time    0.4333
    EDDIAG:  cpu time   33.0222: real time   33.0653
  RMM-DIIS:  cpu time  187.9639: real time  188.3185
    ORTHCH:  cpu time    0.8209: real time    0.8227
       DOS:  cpu time    0.0029: real time    0.0029
    CHARGE:  cpu time   28.5321: real time   28.5848
    MIXING:  cpu time    0.0188: real time    0.0189
    --------------------------------------------
      LOOP:  cpu time  282.9943: real time  283.5208

 eigenvalue-minimisations  :  5120
 total energy-change (2. order) :-0.1232221E+02  (-0.1270072E+01)
 number of electron     346.9999982 magnetization      32.7304213
 augmentation part       15.9761403 magnetization      31.6540699

 Broyden mixing:
  rms(total) = 0.88617E+00    rms(broyden)= 0.88530E+00
  rms(prec ) = 0.90719E+00
  weight for this iteration     100.00

 eigenvalues of (default mixing * dielectric matrix)
  average eigenvalue GAMMA=   1.4762
  4.9878  2.4956  1.3011  0.7250  0.7250  0.5503  0.5503  0.4750

 Free energy of the ion-electron system (eV)
  ---------------------------------------------------
  alpha Z        PSCENC =        92.14382556
  Ewald energy   TEWEN  =    117371.92760127
  -Hartree energ DENC   =   -131616.90634988
  -exchange      EXHF   =         0.00000000
  -V(xc)+E(xc)   XCENC  =      1565.86930523
  PAW double counting   =     40662.21922420   -40828.65614911
  entropy T*S    EENTRO =        -0.00038960
  eigenvalues    EBANDS =     -4935.28321766
  atomic energy  EATOM  =     16689.68470767
  Solvation  Ediel_sol  =       201.75386359
  ---------------------------------------------------
  free energy    TOTEN  =      -797.24757872 eV

  energy without entropy =     -797.24718912  energy(sigma->0) =     -797.24738392


--------------------------------------------------------------------------------------------------------




--------------------------------------- Iteration      1(  14)  ---------------------------------------


    POTLOK:  cpu time   31.4175: real time   31.4910
    SETDIJ:  cpu time    0.4297: real time    0.4308
    EDDIAG:  cpu time   33.0027: real time   33.0503
  RMM-DIIS:  cpu time  188.1029: real time  188.4786
    ORTHCH:  cpu time    0.8138: real time    0.8157
       DOS:  cpu time    0.0025: real time    0.0025
    CHARGE:  cpu time   28.6488: real time   28.7040
    MIXING:  cpu time    0.0196: real time    0.0196
    --------------------------------------------
      LOOP:  cpu time  282.4376: real time  282.9924

 eigenvalue-minimisations  :  5124
 total energy-change (2. order) :-0.1290332E+01  (-0.2266447E+00)
 number of electron     346.9999982 magnetization      29.1022119
 augmentation part       15.9497538 magnetization      28.1479680

 Broyden mixing:
  rms(total) = 0.67164E+00    rms(broyden)= 0.67156E+00
  rms(prec ) = 0.69335E+00
  weight for this iteration     100.00

 eigenvalues of (default mixing * dielectric matrix)
  average eigenvalue GAMMA=   1.5657
  5.9734  2.5538  0.7749  0.7749  1.1392  0.9210  0.8320  0.5610  0.5610

 Free energy of the ion-electron system (eV)
  ---------------------------------------------------
  alpha Z        PSCENC =        92.14382556
  Ewald energy   TEWEN  =    117371.92760127
  -Hartree energ DENC   =   -131621.30045656
  -exchange      EXHF   =         0.00000000
  -V(xc)+E(xc)   XCENC  =      1564.48594175
  PAW double counting   =     40344.79800300   -40511.13675647
  entropy T*S    EENTRO =        -0.00015575
  eigenvalues    EBANDS =     -4944.97332567
  atomic energy  EATOM  =     16689.68470767
  Solvation  Ediel_sol  =       215.83270487
  ---------------------------------------------------
  free energy    TOTEN  =      -798.53791034 eV

  energy without entropy =     -798.53775458  energy(sigma->0) =     -798.53783246


--------------------------------------------------------------------------------------------------------




--------------------------------------- Iteration      1(  15)  ---------------------------------------


    POTLOK:  cpu time   31.7281: real time   31.8048
    SETDIJ:  cpu time    0.4303: real time    0.4315
    EDDIAG:  cpu time   33.0653: real time   33.1111
  RMM-DIIS:  cpu time  187.9099: real time  188.2670
    ORTHCH:  cpu time    0.8166: real time    0.8184
       DOS:  cpu time    0.0028: real time    0.0028
    CHARGE:  cpu time   28.5064: real time   28.5585
    MIXING:  cpu time    0.0207: real time    0.0208
    --------------------------------------------
      LOOP:  cpu time  282.4802: real time  283.0148

 eigenvalue-minimisations  :  5120
 total energy-change (2. order) : 0.1823578E+01  (-0.3032830E+00)
 number of electron     346.9999983 magnetization      25.2208511
 augmentation part       16.1196059 magnetization      24.8300265

 Broyden mixing:
  rms(total) = 0.80919E+00    rms(broyden)= 0.80850E+00
  rms(prec ) = 0.81465E+00
  weight for this iteration     100.00

 eigenvalues of (default mixing * dielectric matrix)
  average eigenvalue GAMMA=   1.6304
  7.2428  2.3875  1.3457  1.3457  0.8850  0.6917  0.5617  0.5617  0.6408  0.6408

 Free energy of the ion-electron system (eV)
  ---------------------------------------------------
  alpha Z        PSCENC =        92.14382556
  Ewald energy   TEWEN  =    117371.92760127
  -Hartree energ DENC   =   -131620.91160833
  -exchange      EXHF   =         0.00000000
  -V(xc)+E(xc)   XCENC  =      1564.83578047
  PAW double counting   =     40323.32292968   -40489.81675857
  entropy T*S    EENTRO =        -0.02340440
  eigenvalues    EBANDS =     -4966.80391235
  atomic energy  EATOM  =     16689.68470767
  Solvation  Ediel_sol  =       238.92650656
  ---------------------------------------------------
  free energy    TOTEN  =      -796.71433244 eV

  energy without entropy =     -796.69092804  energy(sigma->0) =     -796.70263024


--------------------------------------------------------------------------------------------------------




--------------------------------------- Iteration      1(  16)  ---------------------------------------


    POTLOK:  cpu time   31.7773: real time   31.8500
    SETDIJ:  cpu time    0.4314: real time    0.4326
    EDDIAG:  cpu time   33.0109: real time   33.0788
  RMM-DIIS:  cpu time  188.2936: real time  188.6721
    ORTHCH:  cpu time    0.8040: real time    0.8061
[...]
   -.183E+02 -.191E+02 0.770E+02   0.177E+02 0.185E+02 -.758E+02   0.123E-01 0.220E-01 -.237E-01   -.500E-03 -.482E-03 0.491E-03
   -.664E+01 0.490E+01 0.675E+02   0.642E+01 -.505E+01 -.667E+02   0.747E-02 -.157E-02 0.361E-01   -.259E-03 -.156E-03 0.133E-03
   0.592E+00 0.395E+02 0.795E+02   -.591E+00 -.394E+02 -.786E+02   0.847E-03 -.381E-02 -.147E+00   -.860E-05 0.205E-03 0.103E-03
   -.239E+02 0.685E+02 0.134E+03   0.238E+02 -.680E+02 -.133E+03   0.715E-02 -.144E-01 -.443E-01   -.990E-04 0.516E-03 0.358E-03
   -.718E+02 0.335E+02 0.177E+03   0.713E+02 -.329E+02 -.176E+03   0.395E-01 -.347E-01 0.187E+00   -.375E-03 0.583E-03 0.680E-03
   -.688E+02 -.124E+02 0.120E+03   0.680E+02 0.128E+02 -.118E+03   0.559E-01 -.300E-01 -.170E+00   -.725E-03 0.244E-03 0.816E-03
   -.341E+02 -.163E+02 0.794E+02   0.335E+02 0.161E+02 -.781E+02   0.215E-01 -.877E-02 -.522E-01   -.654E-03 -.176E-03 0.482E-03
   -.618E+00 -.486E+01 0.669E+02   0.624E+00 0.479E+01 -.661E+02   0.841E-03 -.110E-01 0.586E-01   -.301E-04 -.973E-04 0.149E-03
   0.642E+01 0.552E+01 0.677E+02   -.620E+01 -.568E+01 -.669E+02   -.161E-02 -.140E-02 0.396E-01   0.215E-03 -.143E-03 0.109E-03
   -.869E+01 0.242E+02 0.746E+02   0.881E+01 -.243E+02 -.736E+02   -.321E-02 0.544E-03 -.131E+00   0.993E-04 0.170E-04 0.126E-03
   -.369E+02 0.307E+02 0.914E+02   0.367E+02 -.305E+02 -.905E+02   0.964E-02 -.405E-02 -.492E-01   -.212E-03 0.258E-03 0.220E-03
   -.459E+02 0.117E+02 0.877E+02   0.455E+02 -.114E+02 -.866E+02   0.169E-01 -.136E-01 -.577E-01   -.461E-03 0.310E-03 0.309E-03
   -.247E+02 -.361E+01 0.717E+02   0.244E+02 0.373E+01 -.706E+02   0.121E-01 -.181E-01 -.822E-01   -.396E-03 0.105E-03 0.256E-03
   -.216E+01 0.602E+02 -.383E+03   0.187E+01 -.501E+02 0.391E+03   0.229E+00 -.872E+01 -.612E+01   0.645E-04 0.179E-02 0.216E-03
   0.310E+01 -.780E+02 -.414E+03   -.371E+01 0.839E+02 0.403E+03   0.527E+00 -.479E+01 0.110E+02   0.195E-03 0.209E-02 -.122E-02
   0.646E+01 -.133E+03 -.394E+03   -.647E+01 0.133E+03 0.396E+03   -.751E-01 0.120E+01 -.129E+01   0.124E-02 0.162E-02 -.104E-02
   -.452E+03 0.145E+03 -.345E+03   0.498E+03 -.143E+03 0.314E+03   -.461E+02 0.558E+00 0.344E+02   -.686E-03 0.274E-02 0.120E-02
   -.302E+02 0.581E+03 -.957E+03   0.328E+02 -.627E+03 0.992E+03   -.264E+01 0.469E+02 -.328E+02   0.182E-05 0.204E-02 -.200E-03
   0.454E+03 0.182E+03 -.363E+03   -.502E+03 -.184E+03 0.333E+03   0.472E+02 0.445E+01 0.325E+02   0.848E-03 0.242E-02 0.110E-02
   0.429E+03 -.241E+02 -.111E+04   -.472E+03 0.222E+02 0.114E+04   0.420E+02 0.359E+01 -.330E+02   0.129E-02 0.204E-02 -.249E-02
   -.447E+03 -.662E+02 -.109E+04   0.492E+03 0.684E+02 0.112E+04   -.438E+02 -.501E+00 -.307E+02   -.117E-02 0.232E-02 -.287E-02
   -.332E+03 -.338E+03 -.467E+03   0.378E+03 0.361E+03 0.454E+03   -.445E+02 -.203E+02 0.143E+02   -.237E-02 -.506E-03 0.662E-03
   0.369E+03 -.313E+03 -.494E+03   -.418E+03 0.332E+03 0.486E+03   0.470E+02 -.173E+02 0.104E+02   0.358E-02 -.180E-03 0.297E-03
 -----------------------------------------------------------------------------------------------
   0.275E+00 -.511E+01 0.191E+01   -.227E-12 -.568E-13 0.261E-11   -.213E+00 0.510E+01 -.194E+01   0.299E-02 0.163E-01 0.239E-01
 
 
 POSITION                                       TOTAL-FORCE (eV/Angst)
 -----------------------------------------------------------------------------------
      1.25604     -0.72478     17.56345        -0.002545     -0.003396      0.007425
      2.51242      1.45060     17.56406        -0.004741     -0.000294      0.001516
      3.76861      3.62560     17.55777        -0.002674      0.000273      0.005189
      5.02446      5.80125     17.56410        -0.003114      0.000275      0.005993
      6.28024      7.97716     17.56205        -0.000059      0.002156      0.008848
      7.53636     10.15316     17.55851        -0.002327     -0.000092      0.007533
      2.51191     -2.90063     17.55988        -0.001098     -0.000828      0.009055
      3.76848     -0.72501     17.55748        -0.002896     -0.001125     -0.007024
      5.02529      1.45024     17.55221        -0.004249      0.002218     -0.010409
      6.28069      3.62452     17.55238        -0.001449      0.003653     -0.001580
      7.53605      5.80085     17.56607         0.001086      0.002452      0.000658
      8.79215      7.97712     17.56239        -0.000048      0.001613      0.010285
      3.76756     -5.07648     17.56357         0.002548      0.000725      0.005246
      5.02405     -2.90042     17.54914        -0.000920     -0.002468     -0.006282
      6.28069     -0.72523     17.52001        -0.002446     -0.000288      0.008621
      7.53645      1.45076     17.53299        -0.002741      0.005948      0.001239
      8.79143      3.62438     17.55366         0.003824      0.004134     -0.003504
     10.04760      5.80107     17.56548         0.005699      0.002980      0.005118
      5.02342     -7.25208     17.56287         0.003470     -0.000368      0.010051
      6.27997     -5.07613     17.56098        -0.000790     -0.001849     -0.001215
      7.53637     -2.90000     17.52874        -0.002114     -0.003331      0.003146
      8.79216     -0.72512     17.51142         0.001009     -0.001994      0.012846
     10.04695      1.45026     17.54696         0.009364      0.004706     -0.006922
     11.30351      3.62551     17.55910         0.000564      0.001112      0.004252
      6.27980     -9.42761     17.55912        -0.001975      0.000790      0.007372
      7.53611     -7.25184     17.56105        -0.001849     -0.001517      0.008290
      8.79250     -5.07615     17.55973        -0.003293      0.000721     -0.002365
     10.04869     -2.90030     17.54115        -0.001456     -0.002381     -0.004757
     11.30414     -0.72504     17.54785         0.000582      0.000836     -0.009152
     12.55992      1.45047     17.56229         0.003446      0.001578     -0.000900
      7.53624    -11.60295     17.56170        -0.002090     -0.001250      0.009787
      8.79254     -9.42752     17.55829        -0.002794     -0.000410      0.007763
     10.04872     -7.25195     17.56173        -0.003861     -0.001590      0.009446
     11.30485     -5.07633     17.56187        -0.003634     -0.000461      0.002982
     12.56078     -2.90056     17.55613        -0.000916     -0.000523     -0.001498
     13.81664     -0.72477     17.56089         0.000175     -0.002216      0.006317
      1.25596      0.72563     17.56491        -0.000506     -0.003365     -0.011040
      2.51197      2.90095     17.56017        -0.000246     -0.000800     -0.001398
      3.76810      5.07635     17.56088        -0.000232      0.001644     -0.000939
      5.02422      7.25194     17.56506        -0.001125      0.001690     -0.011407
      6.28028      9.42781     17.55781         0.000008     -0.001782      0.004316
      7.53635     11.60375     17.56066        -0.000250     -0.004060     -0.000067
      2.51208     -1.45017     17.56327        -0.000050     -0.001078     -0.010950
      3.76848      0.72528     17.56387         0.000184     -0.000141     -0.019408
      5.02392      2.90040     17.55042         0.005798      0.001926      0.010687
      6.28008      5.07579     17.56443         0.000487     -0.000080     -0.011991
      7.53615      7.25172     17.56491         0.000148      0.002153     -0.009448
      8.79231      9.42779     17.55887         0.001159     -0.002300      0.003000
      3.76791     -3.62594     17.55968         0.000470     -0.000222     -0.004507
      5.02427     -1.45032     17.53953         0.002210     -0.000669      0.007522
      6.28061      0.72441     17.53091         0.003025      0.004991      0.006307
      7.53595      2.90050     17.53499         0.001578     -0.000600      0.016417
      8.79193      5.07567     17.56603         0.001169      0.000512     -0.014172
     10.04807      7.25183     17.56538         0.001884      0.002473     -0.008747
      5.02376     -5.80147     17.56572         0.003557     -0.001832     -0.014596
      6.28022     -3.62564     17.54837         0.000951     -0.000487      0.000255
      7.53639     -1.45074     17.49884        -0.000654      0.001890      0.000645
      8.79197      0.72442     17.52302        -0.003697      0.004048      0.000797
     10.04817      2.90039     17.55051        -0.001308      0.001649      0.005814
     11.30395      5.07632     17.56290         0.005000     -0.000316     -0.003188
      6.27981     -7.97704     17.55960         0.003274     -0.001805      0.001939
      7.53617     -5.80126     17.56480         0.002232     -0.003685     -0.021801
      8.79246     -3.62561     17.54487        -0.000833     -0.002462      0.000715
     10.04860     -1.45036     17.52560        -0.003041     -0.000687      0.010400
     11.30387      0.72525     17.55745         0.002410     -0.001330     -0.015978
     12.56022      2.90088     17.56147         0.004972     -0.000410     -0.005837
      7.53618    -10.15251     17.55765         0.000835     -0.004601      0.006695
      8.79235     -7.97698     17.55882         0.000643     -0.001271      0.001934
     10.04857     -5.80139     17.56489         0.000140     -0.002797     -0.017125
     11.30472     -3.62585     17.55467        -0.000576     -0.001296     -0.000792
     12.56061     -1.45012     17.55675         0.000314     -0.002655     -0.003442
     13.81649      0.72563     17.56382         0.002416     -0.004190     -0.012197
      7.63782     -0.99718     21.22742        -0.002746     -0.030576      0.010243
      7.60039      0.27761     22.07777         0.001760      0.013403      0.030273
      7.51722      1.59326     21.25444         0.039301     -0.005225     -0.023112
      8.71408     -1.00170     20.42119        -0.005973      0.014164      0.007994
      7.69977     -2.09296     22.00543        -0.002127     -0.004777     -0.001339
      6.53285     -1.09139     20.46627         0.002257      0.010350      0.009022
      6.52827      0.14903     22.91559        -0.017821      0.017671     -0.009272
      8.72221      0.25385     22.85838         0.013804      0.009080     -0.000068
      8.61223      2.08229     20.91328        -0.014427     -0.012280      0.002777
      6.36820      2.00587     21.00874        -0.022066      0.000349     -0.008299
 -----------------------------------------------------------------------------------
    total drift:                                0.064432      0.009088     -0.002625


--------------------------------------------------------------------------------------------------------



  FREE ENERGIE OF THE ION-ELECTRON SYSTEM (eV)
  ---------------------------------------------------
  free  energy   TOTEN  =      -771.46779898 eV

  energy  without entropy=     -771.43778107  energy(sigma->0) =     -771.45279003
 


--------------------------------------------------------------------------------------------------------


    POTLOK:  cpu time   24.8099: real time   24.8860


--------------------------------------------------------------------------------------------------------




--------------------------------------------------------------------------------------------------------


  
 reached required accuracy - stopping structural energy minimisation
 writing wavefunctions
     LOOP+:  cpu time13608.1276: real time13666.1630
    4ORBIT:  cpu time    0.0000: real time    0.0000
 


 total charge     
 
# of ion       s       p       d       tot
------------------------------------------
    1        0.744   1.392   0.000   2.136
    2        0.744   1.392   0.000   2.136
    3        0.744   1.393   0.000   2.136
    4        0.744   1.392   0.000   2.136
    5        0.744   1.392   0.000   2.136
    6        0.744   1.392   0.000   2.136
    7        0.744   1.392   0.000   2.136
    8        0.744   1.392   0.000   2.136
    9        0.744   1.392   0.000   2.135
   10        0.744   1.392   0.000   2.136
   11        0.744   1.392   0.000   2.136
   12        0.744   1.392   0.000   2.136
   13        0.744   1.392   0.000   2.136
   14        0.744   1.392   0.000   2.136
   15        0.744   1.393   0.000   2.137
   16        0.743   1.392   0.000   2.135
   17        0.744   1.392   0.000   2.135
   18        0.744   1.392   0.000   2.136
   19        0.744   1.392   0.000   2.136
   20        0.744   1.392   0.000   2.136
   21        0.744   1.393   0.000   2.136
   22        0.744   1.393   0.000   2.137
   23        0.744   1.392   0.000   2.135
   24        0.744   1.392   0.000   2.136
   25        0.744   1.392   0.000   2.136
   26        0.744   1.392   0.000   2.136
   27        0.744   1.392   0.000   2.136
   28        0.744   1.392   0.000   2.136
   29        0.744   1.392   0.000   2.136
   30        0.744   1.392   0.000   2.136
   31        0.744   1.392   0.000   2.136
   32        0.744   1.392   0.000   2.136
   33        0.744   1.392   0.000   2.136
   34        0.744   1.392   0.000   2.136
   35        0.744   1.392   0.000   2.136
   36        0.744   1.392   0.000   2.136
   37        1.239   2.818   0.000   4.056
   38        1.239   2.818   0.000   4.057
   39        1.239   2.817   0.000   4.056
   40        1.239   2.818   0.000   4.056
   41        1.239   2.818   0.000   4.056
   42        1.239   2.817   0.000   4.056
   43        1.239   2.818   0.000   4.056
   44        1.239   2.817   0.000   4.056
   45        1.239   2.818   0.000   4.057
   46        1.239   2.817   0.000   4.056
   47        1.239   2.817   0.000   4.056
   48        1.239   2.818   0.000   4.056
   49        1.239   2.817   0.000   4.056
   50        1.239   2.818   0.000   4.057
   51        1.239   2.817   0.000   4.056
   52        1.239   2.818   0.000   4.057
   53        1.239   2.817   0.000   4.056
   54        1.239   2.818   0.000   4.056
   55        1.239   2.818   0.000   4.056
   56        1.239   2.817   0.000   4.056
   57        1.239   2.819   0.000   4.058
   58        1.239   2.818   0.000   4.057
   59        1.239   2.818   0.000   4.057
   60        1.239   2.817   0.000   4.056
   61        1.239   2.817   0.000   4.056
   62        1.239   2.817   0.000   4.056
   63        1.239   2.817   0.000   4.056
   64        1.239   2.818   0.000   4.057
   65        1.239   2.817   0.000   4.056
   66        1.239   2.817   0.000   4.056
   67        1.239   2.818   0.000   4.056
   68        1.239   2.818   0.000   4.056
   69        1.239   2.818   0.000   4.056
   70        1.239   2.818   0.000   4.056
   71        1.239   2.817   0.000   4.056
   72        1.239   2.817   0.000   4.056
   73        0.820   1.559   0.000   2.379
   74        0.837   1.594   0.000   2.430
   75        0.876   1.724   0.000   2.600
   76        1.758   4.410   0.000   6.168
   77        1.757   4.412   0.000   6.169
   78        1.758   4.410   0.000   6.168
   79        1.755   4.403   0.000   6.158
   80        1.755   4.403   0.000   6.158
   81        1.591   3.563   0.000   5.153
   82        1.591   3.566   0.000   5.157
--------------------------------------------------
tot         85.869 185.596   0.000 271.464
 


 magnetization (x)
 
# of ion       s       p       d       tot
------------------------------------------
    1        0.000   0.000   0.000   0.000
    2        0.000   0.000   0.000   0.000
    3        0.000   0.000   0.000   0.000
    4        0.000   0.000   0.000   0.000
    5        0.000   0.000   0.000   0.000
    6        0.000   0.000   0.000   0.000
    7        0.000   0.000   0.000   0.000
    8        0.000   0.000   0.000   0.000
    9        0.000   0.000   0.000   0.000
   10        0.000   0.000   0.000   0.000
   11        0.000   0.000   0.000   0.000
   12        0.000   0.000   0.000   0.000
   13        0.000   0.000   0.000   0.000
   14        0.000   0.000   0.000   0.000
   15        0.000   0.000   0.000   0.000
   16        0.000   0.000   0.000   0.000
   17        0.000   0.000   0.000   0.000
   18        0.000   0.000   0.000   0.000
   19        0.000   0.000   0.000   0.000
   20        0.000   0.000   0.000   0.000
   21        0.000   0.000   0.000   0.000
   22        0.000   0.000   0.000   0.000
   23        0.000   0.000   0.000   0.000
   24        0.000   0.000   0.000   0.000
   25        0.000   0.000   0.000   0.000
   26        0.000   0.000   0.000   0.000
   27        0.000   0.000   0.000   0.000
   28        0.000   0.000   0.000   0.000
   29        0.000   0.000   0.000   0.000
   30        0.000   0.000   0.000   0.000
   31        0.000   0.000   0.000   0.000
   32        0.000   0.000   0.000   0.000
   33        0.000   0.000   0.000   0.000
   34        0.000   0.000   0.000   0.000
   35        0.000   0.000   0.000   0.000
   36        0.000   0.000   0.000   0.000
   37       -0.000  -0.001   0.000  -0.001
   38       -0.000  -0.001   0.000  -0.001
   39       -0.000  -0.001   0.000  -0.001
   40       -0.000  -0.001   0.000  -0.001
   41       -0.000  -0.001   0.000  -0.001
   42       -0.000  -0.001   0.000  -0.001
   43       -0.000  -0.001   0.000  -0.001
   44       -0.000  -0.001   0.000  -0.001
   45       -0.000  -0.001   0.000  -0.001
   46       -0.000  -0.001   0.000  -0.001
   47       -0.000  -0.001   0.000  -0.001
   48       -0.000  -0.001   0.000  -0.001
   49       -0.000  -0.001   0.000  -0.001
   50       -0.000  -0.001   0.000  -0.001
   51       -0.000  -0.001   0.000  -0.001
   52       -0.000  -0.001   0.000  -0.001
   53       -0.000  -0.001   0.000  -0.001
   54       -0.000  -0.001   0.000  -0.001
   55       -0.000  -0.001   0.000  -0.001
   56       -0.000  -0.001   0.000  -0.001
   57       -0.000  -0.001   0.000  -0.001
   58       -0.000  -0.001   0.000  -0.001
   59       -0.000  -0.001   0.000  -0.001
   60       -0.000  -0.001   0.000  -0.001
   61       -0.000  -0.001   0.000  -0.001
   62       -0.000  -0.001   0.000  -0.001
   63       -0.000  -0.001   0.000  -0.001
   64       -0.000  -0.001   0.000  -0.001
   65       -0.000  -0.001   0.000  -0.001
   66       -0.000  -0.001   0.000  -0.001
   67       -0.000  -0.001   0.000  -0.001
   68       -0.000  -0.001   0.000  -0.001
   69       -0.000  -0.001   0.000  -0.001
   70       -0.000  -0.001   0.000  -0.001
   71       -0.000  -0.001   0.000  -0.001
   72       -0.000  -0.001   0.000  -0.001
   73        0.000   0.000   0.000   0.000
   74        0.000   0.001   0.000   0.001
   75        0.001   0.006   0.000   0.007
   76       -0.000  -0.000   0.000  -0.000
   77        0.000   0.000   0.000   0.000
   78       -0.000  -0.000   0.000  -0.000
   79       -0.000  -0.002   0.000  -0.002
   80       -0.000  -0.002   0.000  -0.002
   81       -0.001  -0.084   0.000  -0.085
   82       -0.001  -0.078   0.000  -0.079
--------------------------------------------------
tot         -0.001  -0.189   0.000  -0.190
 

 total amount of memory used by VASP MPI-rank0   215030. kBytes
=======================================================================

   base      :      30000. kBytes
   nonlr-proj:      10480. kBytes
   fftplans  :      17498. kBytes
   grid      :      70152. kBytes
   one-center:         24. kBytes
   wavefun   :      86876. kBytes
 
  
  
 General timing and accounting informations for this job:
 ========================================================
  
                  Total CPU time used (sec):    13820.699
                            User time (sec):    13669.809
                          System time (sec):      150.890
                         Elapsed time (sec):    13890.383
  
                   Maximum memory used (kb):      685244.
                   Average memory used (kb):           0.
  
                          Minor page faults:      2607738
                          Major page faults:          175
                 Voluntary context switches:        96567
