 vasp.5.4.4.18Apr17-6-g9f103f2a35 (build Jun 11 2020 13:42:08) complex          
  
 executed on             LinuxIFC date 2021.02.03  10:22:30
 running on   48 total cores
 distrk:  each k-point on   16 cores,    3 groups
 distr:  one band on NCORES_PER_BAND=   1 cores,   16 groups


--------------------------------------------------------------------------------------------------------


 INCAR:
 POTCAR:    PAW_PBE B 06Sep2000                   
 POTCAR:    PAW_PBE N 08Apr2002                   
 POTCAR:    PAW_PBE C 08Apr2002                   
 POTCAR:    PAW_PBE F 08Apr2002                   
 POTCAR:    PAW_PBE O 08Apr2002                   

 ----------------------------------------------------------------------------- 
|                                                                             |
|           W    W    AA    RRRRR   N    N  II  N    N   GGGG   !!!           |
|           W    W   A  A   R    R  NN   N  II  NN   N  G    G  !!!           |
|           W    W  A    A  R    R  N N  N  II  N N  N  G       !!!           |
|           W WW W  AAAAAA  RRRRR   N  N N  II  N  N N  G  GGG   !            |
|           WW  WW  A    A  R   R   N   NN  II  N   NN  G    G                |
|           W    W  A    A  R    R  N    N  II  N    N   GGGG   !!!           |
|                                                                             |
|      For optimal performance we recommend to set                            |
|        NCORE= 4 - approx SQRT( number of cores)                             |
|      NCORE specifies how many cores store one orbital (NPAR=cpu/NCORE).     |
|      This setting can  greatly improve the performance of VASP for DFT.     |
|      The default,   NCORE=1            might be grossly inefficient         |
|      on modern multi-core architectures or massively parallel machines.     |
|      Do your own testing !!!!                                               |
|      Unfortunately you need to use the default for GW and RPA calculations. |
|      (for HF NCORE is supported but not extensively tested yet)             |
|                                                                             |
 ----------------------------------------------------------------------------- 


 ----------------------------------------------------------------------------- 
|                                                                             |
|           W    W    AA    RRRRR   N    N  II  N    N   GGGG   !!!           |
|           W    W   A  A   R    R  NN   N  II  NN   N  G    G  !!!           |
|           W    W  A    A  R    R  N N  N  II  N N  N  G       !!!           |
|           W WW W  AAAAAA  RRRRR   N  N N  II  N  N N  G  GGG   !            |
|           WW  WW  A    A  R   R   N   NN  II  N   NN  G    G                |
|           W    W  A    A  R    R  N    N  II  N    N   GGGG   !!!           |
|                                                                             |
|      You have enabled k-point parallelism (KPAR>1).                         |
|      This developmental code was originally  written by Paul Kent at ORNL,  |
|      and carefully double checked in Vienna.                                |
|      GW as well as linear response parallelism added by Martijn Marsman     |
|      and Georg Kresse.                                                      |
|      Carefully verify results versus KPAR=1.                                |
|      Report problems to Paul Kent and Vienna.                               |
|                                                                             |
 ----------------------------------------------------------------------------- 

 POTCAR:    PAW_PBE B 06Sep2000                   
   VRHFIN =B: s2p1                                                              
   LEXCH  = PE                                                                  
   EATOM  =    71.1703 eV,    5.2309 Ry                                         
                                                                                
   TITEL  = PAW_PBE B 06Sep2000                                                 
   LULTRA =        F    use ultrasoft PP ?                                      
   IUNSCR =        1    unscreen: 0-lin 1-nonlin 2-no                           
   RPACOR =    1.200    partial core radius                                     
   POMASS =   10.811; ZVAL   =    3.000    mass and valenz                      
   RCORE  =    1.700    outmost cutoff radius                                   
   RWIGS  =    1.710; RWIGS  =    0.905    wigner-seitz radius (au A)           
   ENMAX  =  318.614; ENMIN  =  238.960 eV                                      
   ICORE  =        2    local potential                                         
   LCOR   =        T    correct aug charges                                     
   LPAW   =        T    paw PP                                                  
   EAUG   =  535.514                                                            
   DEXC   =    0.000                                                            
   RMAX   =    1.732    core radius for proj-oper                               
   RAUG   =    1.300    factor for augmentation sphere                          
   RDEP   =    1.757    radius for radial grids                                 
   RDEPT  =    1.436    core radius for aug-charge                              
                                                                                
   Atomic configuration                                                         
    4 entries                                                                   
     n  l   j            E        occ.                                          
     1  0  0.50      -180.5896   2.0000                                         
     2  0  0.50        -9.4431   2.0000                                         
     2  1  0.50        -3.6068   1.0000                                         
     3  2  1.50        -4.0817   0.0000                                         
   Description                                                                  
     l       E           TYP  RCUT    TYP  RCUT                                 
     0     -9.4430752     23  1.500                                             
     0      0.8675899     23  1.500                                             
     1     -3.6067955     23  1.700                                             
     1      6.1086146     23  1.700                                             
     2     -4.0817478      7  1.700                                             
  local pseudopotential read in
  partial core-charges read in
  partial kinetic energy density read in
  atomic valenz-charges read in
  non local Contribution for L=           0  read in
    real space projection operators read in
  non local Contribution for L=           0  read in
    real space projection operators read in
  non local Contribution for L=           1  read in
    real space projection operators read in
  non local Contribution for L=           1  read in
    real space projection operators read in
    PAW grid and wavefunctions read in
 
   number of l-projection  operators is LMAX  =           4
   number of lm-projection operators is LMMAX =           8
 
 POTCAR:    PAW_PBE N 08Apr2002                   
   VRHFIN =N: s2p3                                                              
   LEXCH  = PE                                                                  
   EATOM  =   264.5486 eV,   19.4438 Ry                                         
                                                                                
   TITEL  = PAW_PBE N 08Apr2002                                                 
   LULTRA =        F    use ultrasoft PP ?                                      
   IUNSCR =        1    unscreen: 0-lin 1-nonlin 2-no                           
   RPACOR =    1.200    partial core radius                                     
   POMASS =   14.001; ZVAL   =    5.000    mass and valenz                      
   RCORE  =    1.500    outmost cutoff radius                                   
   RWIGS  =    1.400; RWIGS  =    0.741    wigner-seitz radius (au A)           
   ENMAX  =  400.000; ENMIN  =  300.000 eV                                      
   ICORE  =        2    local potential                                         
   LCOR   =        T    correct aug charges                                     
   LPAW   =        T    paw PP                                                  
   EAUG   =  627.112                                                            
   DEXC   =    0.000                                                            
   RMAX   =    1.529    core radius for proj-oper                               
   RAUG   =    1.300    factor for augmentation sphere                          
   RDEP   =    1.514    radius for radial grids                                 
   RDEPT  =    1.338    core radius for aug-charge                              
                                                                                
   Atomic configuration                                                         
    4 entries                                                                   
     n  l   j            E        occ.                                          
     1  0  0.50      -384.7179   2.0000                                         
     2  0  0.50       -18.5828   2.0000                                         
     2  1  0.50        -7.0898   3.0000                                         
     3  2  1.50        -6.8029   0.0000                                         
   Description                                                                  
     l       E           TYP  RCUT    TYP  RCUT                                 
     0    -18.5828119     23  1.200                                             
     0    -13.5018863     23  1.200                                             
     1     -7.0897853     23  1.500                                             
     1      9.5240782     23  1.500                                             
     2     -6.8029130      7  1.500                                             
  local pseudopotential read in
  partial core-charges read in
  partial kinetic energy density read in
  atomic valenz-charges read in
  non local Contribution for L=           0  read in
    real space projection operators read in
  non local Contribution for L=           0  read in
    real space projection operators read in
  non local Contribution for L=           1  read in
    real space projection operators read in
  non local Contribution for L=           1  read in
    real space projection operators read in
    PAW grid and wavefunctions read in
 
   number of l-projection  operators is LMAX  =           4
   number of lm-projection operators is LMMAX =           8
 
 POTCAR:    PAW_PBE C 08Apr2002                   
   VRHFIN =C: s2p2                                                              
   LEXCH  = PE                                                                  
   EATOM  =   147.1560 eV,   10.8157 Ry                                         
                                                                                
   TITEL  = PAW_PBE C 08Apr2002                                                 
   LULTRA =        F    use ultrasoft PP ?                                      
   IUNSCR =        1    unscreen: 0-lin 1-nonlin 2-no                           
   RPACOR =    1.200    partial core radius                                     
   POMASS =   12.011; ZVAL   =    4.000    mass and valenz                      
   RCORE  =    1.500    outmost cutoff radius                                   
   RWIGS  =    1.630; RWIGS  =    0.863    wigner-seitz radius (au A)           
   ENMAX  =  400.000; ENMIN  =  300.000 eV                                      
   ICORE  =        2    local potential                                         
   LCOR   =        T    correct aug charges                                     
   LPAW   =        T    paw PP                                                  
   EAUG   =  644.873                                                            
   DEXC   =    0.000                                                            
   RMAX   =    1.529    core radius for proj-oper                               
   RAUG   =    1.300    factor for augmentation sphere                          
   RDEP   =    1.501    radius for radial grids                                 
   RDEPT  =    1.300    core radius for aug-charge                              
                                                                                
   Atomic configuration                                                         
    4 entries                                                                   
     n  l   j            E        occ.                                          
     1  0  0.50      -273.3789   2.0000                                         
     2  0  0.50       -13.7508   2.0000                                         
     2  1  0.50        -5.2854   2.0000                                         
     3  2  1.50        -5.4423   0.0000                                         
   Description                                                                  
     l       E           TYP  RCUT    TYP  RCUT                                 
     0    -13.7508458     23  1.200                                             
     0     -8.2022199     23  1.200                                             
     1     -5.2854383     23  1.500                                             
     1     34.0145650     23  1.500                                             
     2     -5.4423304      7  1.500                                             
  local pseudopotential read in
  partial core-charges read in
  partial kinetic energy density read in
  atomic valenz-charges read in
  non local Contribution for L=           0  read in
    real space projection operators read in
  non local Contribution for L=           0  read in
    real space projection operators read in
  non local Contribution for L=           1  read in
    real space projection operators read in
  non local Contribution for L=           1  read in
    real space projection operators read in
    PAW grid and wavefunctions read in
 
   number of l-projection  operators is LMAX  =           4
   number of lm-projection operators is LMMAX =           8
 
 POTCAR:    PAW_PBE F 08Apr2002                   
   VRHFIN =F: s2p5                                                              
   LEXCH  = PE                                                                  
   EATOM  =   659.6475 eV,   48.4827 Ry                                         
                                                                                
   TITEL  = PAW_PBE F 08Apr2002                                                 
   LULTRA =        F    use ultrasoft PP ?                                      
   IUNSCR =        1    unscreen: 0-lin 1-nonlin 2-no                           
   RPACOR =    1.200    partial core radius                                     
   POMASS =   18.998; ZVAL   =    7.000    mass and valenz                      
   RCORE  =    1.520    outmost cutoff radius                                   
   RWIGS  =    1.500; RWIGS  =    0.794    wigner-seitz radius (au A)           
   ENMAX  =  400.000; ENMIN  =  300.000 eV                                      
   ICORE  =        2    local potential                                         
   LCOR   =        T    correct aug charges                                     
   LPAW   =        T    paw PP                                                  
   EAUG   =  613.614                                                            
   RMAX   =    1.555    core radius for proj-oper                               
   RAUG   =    1.300    factor for augmentation sphere                          
   RDEP   =    1.539    radius for radial grids                                 
   RDEPT  =    1.299    core radius for aug-charge                              
                                                                                
   Atomic configuration                                                         
    4 entries                                                                   
     n  l   j            E        occ.                                          
     1  0  0.50      -663.3661   2.0000                                         
     2  0  0.50       -29.8995   2.0000                                         
     2  1  0.50       -11.1114   5.0000                                         
     3  2  1.50       -10.8847   0.0000                                         
   Description                                                                  
     l       E           TYP  RCUT    TYP  RCUT                                 
     0    -29.8995018     23  1.200                                             
     0     -9.5240782     23  1.200                                             
     1    -11.1113914     23  1.520                                             
     1      1.3605826     23  1.520                                             
     2    -10.8846608      7  1.500                                             
  local pseudopotential read in
  partial core-charges read in
  partial kinetic energy density read in
  atomic valenz-charges read in
  non local Contribution for L=           0  read in
    real space projection operators read in
  non local Contribution for L=           0  read in
    real space projection operators read in
  non local Contribution for L=           1  read in
    real space projection operators read in
  non local Contribution for L=           1  read in
    real space projection operators read in
    PAW grid and wavefunctions read in
 
   number of l-projection  operators is LMAX  =           4
   number of lm-projection operators is LMMAX =           8
 
 POTCAR:    PAW_PBE O 08Apr2002                   
   VRHFIN =O: s2p4                                                              
   LEXCH  = PE                                                                  
   EATOM  =   432.3788 eV,   31.7789 Ry                                         
                                                                                
   TITEL  = PAW_PBE O 08Apr2002                                                 
   LULTRA =        F    use ultrasoft PP ?                                      
   IUNSCR =        1    unscreen: 0-lin 1-nonlin 2-no                           
   RPACOR =    1.200    partial core radius                                     
   POMASS =   16.000; ZVAL   =    6.000    mass and valenz                      
   RCORE  =    1.520    outmost cutoff radius                                   
   RWIGS  =    1.550; RWIGS  =    0.820    wigner-seitz radius (au A)           
   ENMAX  =  400.000; ENMIN  =  300.000 eV                                      
   ICORE  =        2    local potential                                         
   LCOR   =        T    correct aug charges                                     
   LPAW   =        T    paw PP                                                  
   EAUG   =  605.392                                                            
   DEXC   =    0.000                                                            
   RMAX   =    1.553    core radius for proj-oper                               
   RAUG   =    1.300    factor for augmentation sphere                          
   RDEP   =    1.550    radius for radial grids                                 
   RDEPT  =    1.329    core radius for aug-charge                              
                                                                                
   Atomic configuration                                                         
    4 entries                                                                   
     n  l   j            E        occ.                                          
     1  0  0.50      -514.6923   2.0000                                         
     2  0  0.50       -23.9615   2.0000                                         
     2  1  0.50        -9.0305   4.0000                                         
     3  2  1.50        -9.5241   0.0000                                         
   Description                                                                  
     l       E           TYP  RCUT    TYP  RCUT                                 
     0    -23.9615318     23  1.200                                             
     0     -9.5240782     23  1.200                                             
     1     -9.0304911     23  1.520                                             
     1      8.1634956     23  1.520                                             
     2     -9.5240782      7  1.500                                             
  local pseudopotential read in
  partial core-charges read in
  partial kinetic energy density read in
  kinetic energy density of atom read in
  atomic valenz-charges read in
  non local Contribution for L=           0  read in
    real space projection operators read in
  non local Contribution for L=           0  read in
    real space projection operators read in
  non local Contribution for L=           1  read in
    real space projection operators read in
  non local Contribution for L=           1  read in
    real space projection operators read in
    PAW grid and wavefunctions read in
 
   number of l-projection  operators is LMAX  =           4
   number of lm-projection operators is LMMAX =           8
 
 Optimization of the real space projectors (new method)

 maximal supplied QI-value         = 22.11
 optimisation between [QCUT,QGAM] = [ 11.94, 23.88] = [ 39.92,159.67] Ry 
 Optimized for a Real-space Cutoff    1.18 Angstroem

   l    n(q)    QCUT    max X(q) W(low)/X(q) W(high)/X(q)  e(spline) 
   0      8    11.939    53.033    0.11E-03    0.34E-03    0.60E-07
   0      8    11.939    34.740    0.11E-03    0.34E-03    0.59E-07
   1      8    11.939    30.949    0.22E-03    0.20E-03    0.17E-06
   1      8    11.939    19.518    0.20E-03    0.18E-03    0.16E-06
 Optimization of the real space projectors (new method)

 maximal supplied QI-value         = 25.13
 optimisation between [QCUT,QGAM] = [ 11.81, 23.88] = [ 39.08,159.64] Ry 
 Optimized for a Real-space Cutoff    1.41 Angstroem

   l    n(q)    QCUT    max X(q) W(low)/X(q) W(high)/X(q)  e(spline) 
   0     10    11.813    79.467    0.48E-04    0.30E-04    0.67E-06
   0     10    11.813    66.151    0.47E-04    0.30E-04    0.67E-06
   1     10    11.813    20.169    0.11E-03    0.17E-03    0.11E-05
   1     10    11.813    14.454    0.11E-03    0.17E-03    0.11E-05
 Optimization of the real space projectors (new method)

 maximal supplied QI-value         = 25.13
 optimisation between [QCUT,QGAM] = [ 11.81, 23.88] = [ 39.08,159.64] Ry 
 Optimized for a Real-space Cutoff    1.18 Angstroem

   l    n(q)    QCUT    max X(q) W(low)/X(q) W(high)/X(q)  e(spline) 
   0      8    11.813   115.676    0.10E-03    0.16E-03    0.35E-06
   0      8    11.813    87.132    0.10E-03    0.16E-03    0.35E-06
   1      8    11.813     4.429    0.16E-03    0.13E-04    0.22E-06
   1      8    11.813     2.733    0.13E-03    0.10E-04    0.18E-06
 Optimization of the real space projectors (new method)

 maximal supplied QI-value         = 24.76
 optimisation between [QCUT,QGAM] = [ 11.88, 24.01] = [ 39.54,161.47] Ry 
 Optimized for a Real-space Cutoff    1.18 Angstroem

   l    n(q)    QCUT    max X(q) W(low)/X(q) W(high)/X(q)  e(spline) 
   0      8    11.883    14.049    0.56E-04    0.86E-04    0.22E-06
   0      8    11.883     8.945    0.81E-04    0.11E-03    0.30E-06
   1      8    11.883     7.086    0.16E-03    0.15E-04    0.31E-06
   1      8    11.883     6.747    0.15E-03    0.14E-04    0.28E-06
 Optimization of the real space projectors (new method)

 maximal supplied QI-value         = 24.76
 optimisation between [QCUT,QGAM] = [ 11.88, 24.01] = [ 39.54,161.47] Ry 
 Optimized for a Real-space Cutoff    1.18 Angstroem

   l    n(q)    QCUT    max X(q) W(low)/X(q) W(high)/X(q)  e(spline) 
   0      8    11.883    20.381    0.86E-04    0.11E-03    0.31E-06
   0      8    11.883    15.268    0.94E-04    0.12E-03    0.33E-06
   1      8    11.883     5.964    0.19E-03    0.18E-04    0.33E-06
   1      8    11.883     5.382    0.17E-03    0.20E-04    0.29E-06
  PAW_PBE B 06Sep2000                   :
 energy of atom  1       EATOM=  -71.1703
 kinetic energy error for atom=    0.0009 (will be added to EATOM!!)
  PAW_PBE N 08Apr2002                   :
 energy of atom  2       EATOM= -264.5486
 kinetic energy error for atom=    0.0116 (will be added to EATOM!!)
  PAW_PBE C 08Apr2002                   :
 energy of atom  3       EATOM= -147.1560
 kinetic energy error for atom=    0.0066 (will be added to EATOM!!)
  PAW_PBE F 08Apr2002                   :
 energy of atom  4       EATOM= -659.6475
 kinetic energy error for atom=    0.0296 (will be added to EATOM!!)
  PAW_PBE O 08Apr2002                   :
 energy of atom  5       EATOM= -432.3788
 kinetic energy error for atom=    0.0194 (will be added to EATOM!!)
 
 
 POSCAR: B N C F O                               
  positions in direct lattice
  velocities in cartesian coordinates

 METAGGA = SCAN     LMAXTAU =  6    LMIXTAU =  F

 exchange correlation table for  LEXCH =        8
   RHO(1)=    0.500       N(1)  =     2000
   RHO(2)=  100.500       N(2)  =     4000

 VTST: version 3.1, (03/28/14)

 CHAIN: initializing optimizer
 
 OPT: Using VASP Conjugate-Gradient optimizer
 CHAIN: Read ICHAIN            0
 
 POSCAR: B N C F O                               
  positions in direct lattice
  velocities in cartesian coordinates
 


--------------------------------------------------------------------------------------------------------


 ion  position               nearest neighbor table
   1  0.111  0.056  0.500-  42 1.45  37 1.45  43 1.45
   2  0.111  0.222  0.500-  37 1.45  38 1.45  44 1.45
   3  0.111  0.389  0.500-  38 1.45  39 1.45  45 1.45
   4  0.111  0.556  0.500-  46 1.45  39 1.45  40 1.45
   5  0.111  0.722  0.500-  40 1.45  41 1.45  47 1.45
   6  0.111  0.889  0.500-  41 1.45  42 1.45  48 1.45
   7  0.278  0.056  0.500-  48 1.45  49 1.45  43 1.45
   8  0.278  0.222  0.500-  43 1.45  50 1.45  44 1.45
   9  0.278  0.389  0.500-  45 1.45  44 1.45  51 1.45
  10  0.278  0.556  0.500-  52 1.45  46 1.45  45 1.45
  11  0.278  0.722  0.500-  53 1.45  47 1.45  46 1.45
  12  0.278  0.889  0.500-  47 1.45  54 1.45  48 1.45
  13  0.444  0.056  0.500-  54 1.45  55 1.45  49 1.45
  14  0.444  0.222  0.500-  49 1.45  56 1.45  50 1.45
  15  0.444  0.389  0.500-  57 1.45  50 1.45  51 1.45
  16  0.444  0.556  0.500-  58 1.45  52 1.45  51 1.45
  17  0.444  0.722  0.500-  59 1.45  53 1.45  52 1.45
  18  0.444  0.889  0.500-  60 1.45  53 1.45  54 1.45
  19  0.611  0.056  0.500-  61 1.45  60 1.45  55 1.45
  20  0.611  0.222  0.500-  62 1.45  55 1.45  56 1.45
  21  0.611  0.389  0.500-  63 1.45  56 1.45  57 1.45
  22  0.611  0.556  0.500-  64 1.45  58 1.45  57 1.45
  23  0.611  0.722  0.500-  58 1.45  65 1.45  59 1.45
  24  0.611  0.889  0.500-  66 1.45  59 1.45  60 1.45
  25  0.778  0.056  0.500-  61 1.45  66 1.45  67 1.45
  26  0.778  0.222  0.500-  61 1.45  68 1.45  62 1.45
  27  0.778  0.389  0.500-  69 1.45  62 1.45  63 1.45
  28  0.778  0.556  0.500-  70 1.45  64 1.45  63 1.45
  29  0.778  0.722  0.500-  64 1.45  71 1.45  65 1.45
  30  0.778  0.889  0.500-  65 1.45  66 1.45  72 1.45
  31  0.944  0.056  0.500-  72 1.45  67 1.45  37 1.45
  32  0.944  0.222  0.500-  68 1.45  67 1.45  38 1.45
  33  0.944  0.389  0.500-  68 1.45  69 1.45  39 1.45
  34  0.944  0.556  0.500-  69 1.45  40 1.45  70 1.45
  35  0.944  0.722  0.500-  70 1.45  71 1.45  41 1.45
  36  0.944  0.889  0.500-  71 1.45  72 1.45  42 1.45
  37  0.056  0.111  0.500-   2 1.45   1 1.45  31 1.45
  38  0.056  0.278  0.500-   2 1.45   3 1.45  32 1.45
  39  0.056  0.444  0.500-   3 1.45  33 1.45   4 1.45
  40  0.056  0.611  0.500-  34 1.45   5 1.45   4 1.45
  41  0.056  0.778  0.500-   6 1.45   5 1.45  35 1.45
  42  0.056  0.944  0.500-   1 1.45   6 1.45  36 1.45
  43  0.222  0.111  0.500-   8 1.45   7 1.45   1 1.45
  44  0.222  0.278  0.500-   9 1.45   8 1.45   2 1.45
  45  0.222  0.444  0.500-   9 1.45   3 1.45  10 1.45
  46  0.222  0.611  0.500-   4 1.45  10 1.45  11 1.45
  47  0.222  0.778  0.500-  12 1.45   5 1.45  11 1.45
  48  0.222  0.944  0.500-   7 1.45   6 1.45  12 1.45
  49  0.389  0.111  0.500-  14 1.45   7 1.45  13 1.45
  50  0.389  0.278  0.500-  15 1.45   8 1.45  14 1.45
  51  0.389  0.444  0.500-   9 1.45  15 1.45  16 1.45
  52  0.389  0.611  0.500-  16 1.45  10 1.45  17 1.45
  53  0.389  0.778  0.500-  11 1.45  17 1.45  18 1.45
  54  0.389  0.944  0.500-  13 1.45  12 1.45  18 1.45
  55  0.556  0.111  0.500-  13 1.45  20 1.45  19 1.45
  56  0.556  0.278  0.500-  14 1.45  21 1.45  20 1.45
  57  0.556  0.444  0.500-  15 1.45  21 1.45  22 1.45
  58  0.556  0.611  0.500-  16 1.45  23 1.45  22 1.45
  59  0.556  0.778  0.500-  17 1.45  24 1.45  23 1.45
  60  0.556  0.944  0.500-  19 1.45  18 1.45  24 1.45
  61  0.722  0.111  0.500-  19 1.45  26 1.45  25 1.45
  62  0.722  0.278  0.500-  20 1.45  27 1.45  26 1.45
  63  0.722  0.444  0.500-  21 1.45  28 1.45  27 1.45
  64  0.722  0.611  0.500-  22 1.45  28 1.45  29 1.45
  65  0.722  0.778  0.500-  30 1.45  23 1.45  29 1.45
  66  0.722  0.944  0.500-  24 1.45  25 1.45  30 1.45
  67  0.889  0.111  0.500-  31 1.45  32 1.45  25 1.45
  68  0.889  0.278  0.500-  32 1.45  33 1.45  26 1.45
  69  0.889  0.444  0.500-  27 1.45  34 1.45  33 1.45
  70  0.889  0.611  0.500-  35 1.45  28 1.45  34 1.45
  71  0.889  0.778  0.500-  36 1.45  35 1.45  29 1.45
  72  0.889  0.944  0.500-  31 1.45  36 1.45  30 1.45
  73  0.374  0.313  0.673-  76 1.33  78 1.34  77 1.34  74 1.54
  74  0.355  0.311  0.630-  80 1.32  79 1.33  73 1.54  75 1.89
  75  0.342  0.425  0.617-  82 1.20  81 1.20  74 1.89
  76  0.462  0.396  0.682-  73 1.33
  77  0.378  0.229  0.683-  73 1.34
  78  0.297  0.313  0.692-  73 1.34
  79  0.434  0.317  0.610-  74 1.33
  80  0.269  0.227  0.620-  74 1.32
  81  0.429  0.494  0.613-  75 1.20
  82  0.252  0.395  0.616-  75 1.20
 

IMPORTANT INFORMATION: All symmetrisations will be switched off!
NOSYMM: (Re-)initialisation of all symmetry stuff for point group C_1.

 
 
 KPOINTS: K-Point Grid                            

Automatic generation of k-mesh.
Space group operators:
 irot       det(A)        alpha          n_x          n_y          n_z        tau_x        tau_y        tau_z
    1     1.000000     0.000000     1.000000     0.000000     0.000000     0.000000     0.000000     0.000000
 
 Subroutine IBZKPT returns following result:
 ===========================================
 
 Found      5 irreducible k-points:
 
 Following reciprocal coordinates:
            Coordinates               Weight
  0.000000  0.000000  0.000000      1.000000
  0.333333  0.000000  0.000000      2.000000
  0.000000  0.333333  0.000000      2.000000
  0.333333  0.333333  0.000000      2.000000
 -0.333333  0.333333  0.000000      2.000000
 
 Following cartesian coordinates:
            Coordinates               Weight
  0.000000  0.000000  0.000000      1.000000
  0.022114 -0.012768  0.000000      2.000000
  0.022114  0.012768  0.000000      2.000000
  0.044229  0.000000  0.000000      2.000000
  0.000000  0.025535  0.000000      2.000000
 


--------------------------------------------------------------------------------------------------------




 Dimension of arrays:
   k-points           NKPTS =      5   k-points in BZ     NKDIM =      5   number of bands    NBANDS=    256
   number of dos      NEDOS =   1200   number of ions     NIONS =     82
   non local maximal  LDIM  =      4   non local SUM 2l+1 LMDIM =      8
   total plane-waves  NPLWV = ******
   max r-space proj   IRMAX =   6598   max aug-charges    IRDMAX=   8974
   dimension x,y,z NGX =   120 NGY =  120 NGZ =  270
   dimension x,y,z NGXF=   240 NGYF=  240 NGZF=  540
   support grid    NGXF=   240 NGYF=  240 NGZF=  540
   ions per type =              36  36   3   5   2
   NGX,Y,Z   is equivalent  to a cutoff of  13.24, 13.24, 12.78 a.u.
   NGXF,Y,Z  is equivalent  to a cutoff of  26.47, 26.47, 25.57 a.u.

 SYSTEM =  hBN                                     
 POSCAR =  B N C F O                               

 Startparameter for this run:
   NWRITE =      2    write-flag & timer
   PREC   = accura    normal or accurate (medium, high low for compatibility)
   ISTART =      1    job   : 0-new  1-cont  2-samecut
   ICHARG =      0    charge: 1-file 2-atom 10-const
   ISPIN  =      2    spin polarized calculation?
   LNONCOLLINEAR =      F non collinear calculations
   LSORBIT =      F    spin-orbit coupling
   INIWAV =      1    electr: 0-lowe 1-rand  2-diag
   LASPH  =      T    aspherical Exc in radial PAW
   METAGGA=      F    non-selfconsistent MetaGGA calc.

 Electronic Relaxation 1
   ENCUT  =  550.0 eV  40.42 Ry    6.36 a.u.  28.82 28.82 67.15*2*pi/ulx,y,z
   ENINI  =  550.0     initial cutoff
   ENAUG  =  644.9 eV  augmentation charge cutoff
   NELM   =    100;   NELMIN=  2; NELMDL=  0     # of ELM steps 
   EDIFF  = 0.1E-04   stopping-criterion for ELM
   LREAL  =      T    real-space projection
   NLSPLINE    = F    spline interpolate recip. space projectors
   LCOMPAT=      F    compatible to vasp.4.4
   GGA_COMPAT  = T    GGA compatible to vasp.4.4-vasp.4.6
   LMAXPAW     = -100 max onsite density
   LMAXMIX     =    2 max onsite mixed and CHGCAR
   VOSKOWN=      0    Vosko Wilk Nusair interpolation
   ROPT   =   -0.00025  -0.00025  -0.00025  -0.00025
   ROPT   =   -0.00025
 Ionic relaxation
   EDIFFG = -.5E-01   stopping-criterion for IOM
   NSW    =      0    number of steps for IOM
   NBLOCK =      1;   KBLOCK =      1    inner block; outer block 
   IBRION =     -1    ionic relax: 0-MD 1-quasi-New 2-CG
   NFREE  =      1    steps in history (QN), initial steepest desc. (CG)
   ISIF   =      2    stress and relaxation
   IWAVPR =     10    prediction:  0-non 1-charg 2-wave 3-comb
   ISYM   =      0    0-nonsym 1-usesym 2-fastsym
   LCORR  =      T    Harris-Foulkes like correction to forces

   POTIM  = 0.5000    time-step for ionic-motion
   TEIN   =    0.0    initial temperature
   TEBEG  =    0.0;   TEEND  =   0.0 temperature during run
   SMASS  =  -3.00    Nose mass-parameter (am)
   estimated Nose-frequenzy (Omega)   =  0.10E-29 period in steps =****** mass=  -0.519E-26a.u.
   SCALEE = 1.0000    scale energy and forces
   NPACO  =    256;   APACO  = 16.0  distance and # of slots for P.C.
   PSTRESS=    0.0 pullay stress

  Mass of Ions in am
   POMASS =  10.81 14.00 12.01 19.00 16.00
  Ionic Valenz
   ZVAL   =   3.00  5.00  4.00  7.00  6.00
  Atomic Wigner-Seitz radii
   RWIGS  =  -1.00 -1.00 -1.00 -1.00 -1.00
  virtual crystal weights 
   VCA    =   1.00  1.00  1.00  1.00  1.00
   NELECT =     346.7000    total number of electrons
   NUPDOWN=      -1.0000    fix difference up-down

 DOS related values:
   EMIN   = -10.00;   EMAX   =  5.00  energy-range for DOS
   EFERMI =   0.00
   ISMEAR =     0;   SIGMA  =   0.05  broadening in eV -4-tet -1-fermi 0-gaus

 Electronic relaxation 2 (details)
   IALGO  =     68    algorithm
   LDIAG  =      T    sub-space diagonalisation (order eigenvalues)
   LSUBROT=      F    optimize rotation matrix (better conditioning)
   TURBO    =      0    0=normal 1=particle mesh
   IRESTART =      0    0=no restart 2=restart with 2 vectors
   NREBOOT  =      0    no. of reboots
   NMIN     =      0    reboot dimension
   EREF     =   0.00    reference energy to select bands
   IMIX   =      4    mixing-type and parameters
     AMIX     =   0.40;   BMIX     =  1.00
     AMIX_MAG =   1.60;   BMIX_MAG =  1.00
     AMIN     =   0.10
     WC   =   100.;   INIMIX=   1;  MIXPRE=   1;  MAXMIX= -45

 Intra band minimization:
   WEIMIN = 0.0000     energy-eigenvalue tresh-hold
   EBREAK =  0.98E-08  absolut break condition
   DEPER  =   0.30     relativ break condition  

   TIME   =   0.40     timestep for ELM

  volume/ion in A,a.u.               =      84.26       568.60
  Fermi-wavevector in a.u.,A,eV,Ry     =   0.603834  1.141080  4.960890  0.364615
  Thomas-Fermi vector in A             =   1.656962
 
 Write flags
   LWAVE        =      T    write WAVECAR
   LDOWNSAMPLE  =      F    k-point downsampling of WAVECAR
   LCHARG       =      T    write CHGCAR
   LVTOT        =      F    write LOCPOT, total local potential
   LVHAR        =      T    write LOCPOT, Hartree potential only
   LELF         =      F    write electronic localiz. function (ELF)
   LORBIT       =     11    0 simple, 1 ext, 2 COOP (PROOUT), +10 PAW based schemes


 Dipole corrections
   LMONO  =      F    monopole corrections only (constant potential shift)
   LDIPOL =      F    correct potential (dipole corrections)
   IDIPOL =      0    1-x, 2-y, 3-z, 4-all directions 
   EPSILON=  1.0000000 bulk dielectric constant

 Exchange correlation treatment:
   GGA     =    --    GGA type
   LEXCH   =     8    internal setting for exchange type
   VOSKOWN=      0    Vosko Wilk Nusair interpolation
   LHFCALC =     F    Hartree Fock is set to
   LHFONE  =     F    Hartree Fock one center treatment
   AEXX    =    0.0000 exact exchange contribution

 Linear response parameters
   LEPSILON=     F    determine dielectric tensor
   LRPA    =     F    only Hartree local field effects (RPA)
   LNABLA  =     F    use nabla operator in PAW spheres
   LVEL    =     F    velocity operator in full k-point grid
   LINTERFAST=   F  fast interpolation
   KINTER  =     0    interpolate to denser k-point grid
   CSHIFT  =0.1000    complex shift for real part using Kramers Kronig
   OMEGAMAX=  -1.0    maximum frequency
   DEG_THRESHOLD= 0.2000000E-02 threshold for treating states as degnerate
   RTIME   =   -0.100 relaxation time in fs
  (WPLASMAI=    0.000 imaginary part of plasma frequency in eV, 0.658/RTIME)
   DFIELD  = 0.0000000 0.0000000 0.0000000 field for delta impulse in time
 
 Orbital magnetization related:
   ORBITALMAG=     F  switch on orbital magnetization
   LCHIMAG   =     F  perturbation theory with respect to B field
   DQ        =  0.001000  dq finite difference perturbation B field
   LLRAUG    =     F  two centre corrections for induced B field

 Solvation model:
   LSOL    =     T         switch on solvation model
   EB_K    = 78.400000     relative permittivity of the bulk solvent
   SIGMA_K =  0.600000     width of the dielectric cavity
   NC_K    =  0.002500     cutoff charge density
   TAU     =  0.000000     cavity surface tension
   LAMBDA_D_K    =  3.040000     Debye length in Angstroms
   LRHOB     =     F     write boundcharge  density
   LRHOION     =     F     write ioniccharge density



--------------------------------------------------------------------------------------------------------


 Static calculation
 charge density and potential will be updated during run
 spin polarized calculation
 RMM-DIIS sequential band-by-band and
  variant of blocked Davidson during initial phase
 perform sub-space diagonalisation
    before iterative eigenvector-optimisation
 modified Broyden-mixing scheme, WC =      100.0
 initial mixing is a Kerker type mixing with AMIX =  0.4000 and BMIX =      1.0000
 Hartree-type preconditioning will be used
 using additional bands           82
 real space projection scheme for non local part
 use partial core corrections
 calculate Harris-corrections to forces 
   (improved forces if not selfconsistent)
 use gradient corrections 
 use of overlap-Matrix (Vanderbilt PP)
 Gauss-broadening in eV      SIGMA  =   0.05


--------------------------------------------------------------------------------------------------------


  energy-cutoff  :      550.00
  volume of cell :     6909.18
      direct lattice vectors                 reciprocal lattice vectors
     7.536550057-13.053746059  0.000000000     0.066343353 -0.038303181  0.000000000
     7.536550057 13.053746059  0.000000000     0.066343353  0.038303181  0.000000000
     0.000000000  0.000000000 35.114664386     0.000000000  0.000000000  0.028478131

  length of vectors
    15.073150730 15.073150730 35.114664386     0.076606620  0.076606620  0.028478131


 
 old parameters found on file WAVECAR:
  energy-cutoff  :      550.00
  volume of cell :     6909.18
      direct lattice vectors                 reciprocal lattice vectors
     7.536550057-13.053746059  0.000000000     0.066343353 -0.038303181  0.000000000
     7.536550057 13.053746059  0.000000000     0.066343353  0.038303181  0.000000000
     0.000000000  0.000000000 35.114664386     0.000000000  0.000000000  0.028478131

  length of vectors

 
 k-points in units of 2pi/SCALE and weight: K-Point Grid                            
   0.00000000  0.00000000  0.00000000       0.111
   0.02211445 -0.01276773  0.00000000       0.222
   0.02211445  0.01276773  0.00000000       0.222
   0.04422890  0.00000000  0.00000000       0.222
   0.00000000  0.02553545  0.00000000       0.222
 
 k-points in reciprocal lattice and weights: K-Point Grid                            
   0.00000000  0.00000000  0.00000000       0.111
   0.33333333  0.00000000  0.00000000       0.222
   0.00000000  0.33333333  0.00000000       0.222
   0.33333333  0.33333333  0.00000000       0.222
  -0.33333333  0.33333333  0.00000000       0.222
 
 position of ions in fractional coordinates (direct lattice) 
   0.11110153  0.05556331  0.50001275
   0.11109247  0.22222492  0.49997619
   0.11110790  0.38889570  0.49995703
   0.11111483  0.55557008  0.49997603
   0.11111421  0.72223967  0.50001631
   0.11111181  0.88890364  0.50003202
   0.27778218  0.05556510  0.50002725
   0.27776699  0.22221453  0.49996399
   0.27775996  0.38889380  0.49994031
   0.27778014  0.55556577  0.49995323
   0.27778391  0.72223865  0.49998405
   0.27778339  0.88890440  0.50002903
   0.44445444  0.05556812  0.50003582
   0.44445699  0.22222698  0.50002884
   0.44445764  0.38889720  0.49996687
   0.44445062  0.55557306  0.49996959
   0.44444649  0.72223514  0.49996682
   0.44445161  0.88890432  0.50000814
   0.61111745  0.05557158  0.50002427
   0.61112058  0.22223603  0.50002982
   0.61111949  0.38890368  0.50000272
   0.61111201  0.55557360  0.49996976
   0.61110772  0.72223078  0.49996820
   0.61111367  0.88890565  0.49999966
   0.77777698  0.05557168  0.50001902
   0.77778094  0.22223866  0.50001872
   0.77778275  0.38890747  0.50002004
   0.77777925  0.55557489  0.50000383
   0.77777424  0.72223736  0.49999874
   0.77777497  0.88890270  0.50001382
   0.94443695  0.05556875  0.50001678
   0.94443940  0.22223668  0.49999474
   0.94444744  0.38890617  0.49999779
   0.94444772  0.55557508  0.50001566
   0.94444498  0.72223959  0.50002411
   0.94444095  0.88890255  0.50002787
   0.05555206  0.11112311  0.50000511
   0.05555302  0.27778749  0.49996606
   0.05555941  0.44445761  0.49996593
   0.05555938  0.61112785  0.50000317
   0.05555819  0.77779616  0.50002947
   0.05555535  0.94446034  0.50003039
   0.22222051  0.11112045  0.50000159
   0.22222054  0.27778512  0.49995885
   0.22221989  0.44445118  0.49993362
   0.22222605  0.61112437  0.49995997
   0.22222710  0.77779514  0.50001302
   0.22222565  0.94446135  0.50003670
   0.38889346  0.11112517  0.50004113
   0.38888331  0.27778452  0.50001374
   0.38887574  0.44443659  0.50000199
   0.38888831  0.61111599  0.49996011
   0.38889352  0.77779252  0.49997796
   0.38889427  0.94446099  0.50003027
   0.55556164  0.11112799  0.50003164
   0.55555934  0.27779214  0.50002867
   0.55555207  0.44445304  0.49997221
   0.55555017  0.61112337  0.49995056
   0.55555276  0.77779622  0.49996598
   0.55556065  0.94446254  0.50001378
   0.72222554  0.11112956  0.50002192
   0.72222698  0.27779664  0.50002537
   0.72222418  0.44446184  0.50000717
   0.72221874  0.61112527  0.49998080
   0.72221701  0.77779351  0.49999045
   0.72222284  0.94446183  0.50001627
   0.88888839  0.11112810  0.50001096
   0.88889135  0.27779608  0.50000266
   0.88889348  0.44446367  0.50001767
   0.88889013  0.61113007  0.50002044
   0.88888765  0.77779496  0.50002094
   0.88888807  0.94446103  0.50002723
   0.37355306  0.31310644  0.67293001
   0.35513718  0.31062864  0.62975734
   0.34239864  0.42528384  0.61678906
   0.46197572  0.39592266  0.68242702
   0.37769090  0.22918112  0.68298464
   0.29688574  0.31341763  0.69195124
   0.43360773  0.31728897  0.61024990
   0.26890787  0.22707871  0.62001441
   0.42902404  0.49442450  0.61303979
   0.25192353  0.39474420  0.61613218
 
 position of ions in cartesian coordinates  (Angst):
   1.25607786 -0.72498179 17.55777994
   2.51206318  1.45069485 17.55649602
   3.76830220  3.62617138 17.55582340
   5.02450413  5.80180598 17.55649033
   6.28061322  7.97747655 17.55790475
   7.53666649 10.15309699 17.55845660
   2.51228842 -2.90076539 17.55828910
   3.76813577 -0.72516770 17.55606779
   5.02426944  1.45071299 17.55523632
   6.28055313  3.62614302 17.55568991
   7.53672008  5.80179939 17.55677198
   8.79280093  7.97741851 17.55835141
   3.76844505 -5.07642315 17.55858992
   5.02449711 -2.90093423 17.55834488
   6.28062046 -0.72527196 17.55616870
   7.53672857  1.45056414 17.55626453
   8.79275455  3.62618248 17.55616710
  10.04890368  5.80177280 17.55761815
   5.02453525 -7.25195474 17.55818452
   6.28063375 -5.07640019 17.55837941
   7.53672464 -2.90074872 17.55742785
   8.79278447 -0.72498438 17.55627040
  10.04877239  1.45057215 17.55621561
  11.30497070  3.62622606 17.55732008
   6.28057389 -9.42748468 17.55799997
   7.53669777 -7.25190795 17.55798958
   8.79281919 -5.07627917 17.55803600
  10.04889025 -2.90059928 17.55746681
  11.30491254 -0.72496428 17.55728784
  12.56099969  1.45063309 17.55781743
   7.53659305-11.60305981 17.55792131
   8.79271268 -9.42745101 17.55714745
  10.04888618 -7.25189464 17.55725461
  11.30499690 -5.07624465 17.55788193
  12.56105174 -2.90061273 17.55817873
  13.81708507 -0.72498411 17.55831082
   1.25615578  0.72541037 17.55751149
   2.51223743  2.90099233 17.55614042
   3.76840328  5.07657832 17.55613570
   5.02452164  7.25224973 17.55744367
   6.28061675  9.42791100 17.55836693
   7.53666832 11.60354008 17.55839945
   2.51224088 -1.45027200 17.55738795
   3.76831765  0.72532598 17.55588738
   5.02439991  2.90095087 17.55500117
   6.28058720  5.07657987 17.55592658
   7.53671762  7.25224414 17.55778940
   8.79279493  9.42788138 17.55862102
   3.76841545 -3.62591673 17.55877659
   5.02437550 -1.45025533 17.55781450
   6.28030014  0.72527725 17.55740198
   7.53658251  2.90090370 17.55593133
   8.79278771  5.07658878 17.55655823
  10.04889862  7.25222688 17.55839496
   5.02453976 -5.80152405 17.55844339
   6.28059511 -3.62590243 17.55833880
   7.53658854 -1.45025858 17.55635629
   8.79269355  0.72543841 17.55559609
  10.04885137  2.90110971 17.55613747
  11.30499986  5.07662661 17.55781597
   6.28062241 -7.97709175 17.55810176
   7.53672801 -5.80148078 17.55822303
   8.79278760 -3.62583895 17.55758400
  10.04881383 -1.45018594 17.55665798
  11.30490438  0.72548150 17.55699690
  12.56105243  2.90105131 17.55790354
   7.53667435-10.15268530 17.55771691
   8.79279816 -7.97708249 17.55742549
  10.04891294 -5.80147393 17.55795258
  11.30497731 -3.62580920 17.55804988
  12.56103694 -1.45017572 17.55806739
  13.81712725  0.72543534 17.55828835
   5.17504365 -0.78905483 23.62971148
   5.01757745 -0.58100315 22.11371779
   5.78567737  1.08196235 21.65834084
   6.46559407 -0.86223996 23.96319581
   4.57372137 -1.93860893 23.98277632
   4.59958193  0.21580305 24.29763561
   5.65917060 -1.51839561 21.42872040
   3.73802772 -0.54602720 21.77159794
   6.95961616  0.85372099 21.52668648
   4.87364371  1.86434487 21.63527482
 


--------------------------------------------------------------------------------------------------------


 k-point  1 :   0.0000 0.0000 0.0000  plane waves:  202395
 k-point  2 :   0.3333 0.0000 0.0000  plane waves:  202358
 k-point  3 :   0.0000 0.3333 0.0000  plane waves:  202358
 k-point  4 :   0.3333 0.3333 0.0000  plane waves:  202335
 k-point  5 :  -0.3333 0.3333 0.0000  plane waves:  202358

 maximum and minimum number of plane-waves per node :    202395   202335

 maximum number of plane-waves:    202395
 maximum index in each direction: 
   IXMAX=   29   IYMAX=   28   IZMAX=   67
   IXMIN=  -29   IYMIN=  -29   IZMIN=  -67


 serial   3D FFT for wavefunctions
 parallel 3D FFT for charge:
    minimum data exchange during FFTs selected (reduces bandwidth)


 total amount of memory used by VASP MPI-rank0  1463178. kBytes
=======================================================================

   base      :      30000. kBytes
   nonlr-proj:      37382. kBytes
   fftplans  :      81109. kBytes
   grid      :     794361. kBytes
   one-center:        503. kBytes
   wavefun   :     519823. kBytes
 
     INWAV:  cpu time   19.4304: real time   19.6525
 Broyden mixing: mesh for mixing (old mesh)
   NGX = 57   NGY = 57   NGZ =135
  (NGX  =240   NGY  =240   NGZ  =540)
  gives a total of 438615 points

 charge density for first step will be calculated from the start-wavefunctions


--------------------------------------------------------------------------------------------------------


 Maximum index for non-local projection operator         6363
 Maximum index for augmentation-charges          580 (set IRDMAX)


--------------------------------------------------------------------------------------------------------


 initial charge from wavefunction
 First call to EWALD:  gamma=   0.093
 Maximum number of real-space cells 4x 4x 2
 Maximum number of reciprocal cells 2x 2x 5

    FEWALD:  cpu time    0.0080: real time    0.0497


--------------------------------------- Iteration      1(   1)  ---------------------------------------


    POTLOK:  cpu time   93.8674: real time   94.1412
    SETDIJ:  cpu time    0.9143: real time    0.8016
     EDDAV:  cpu time  284.1072: real time  191.1805
       DOS:  cpu time    0.0632: real time    0.0608
    CHARGE:  cpu time   33.8367: real time   32.6851
    MIXING:  cpu time    0.0991: real time    0.1292
    --------------------------------------------
      LOOP:  cpu time  412.8881: real time  318.9984

 eigenvalue-minimisations  :  6160
 total energy-change (2. order) :-0.7771601E+03  (-0.4315992E-02)
 number of electron     346.6999973 magnetization       0.8503791
 augmentation part       16.0663090 magnetization       0.1574173

 Broyden mixing:
  rms(total) = 0.14531E-01    rms(broyden)= 0.14508E-01
  rms(prec ) = 0.14593E-01
  weight for this iteration     100.00

 Free energy of the ion-electron system (eV)
  ---------------------------------------------------
  alpha Z        PSCENC =        92.14382556
  Ewald energy   TEWEN  =    110930.99235369
  -Hartree energ DENC   =   -125014.04253047
  -exchange      EXHF   =         0.00000000
  -V(xc)+E(xc)   XCENC  =      1588.58656371
  PAW double counting   =     40476.38699143   -40643.29132783
  entropy T*S    EENTRO =        -0.01183003
  eigenvalues    EBANDS =     -5020.81010822
  atomic energy  EATOM  =     16689.68470767
  Solvation  Ediel_sol  =       123.20126399
  ---------------------------------------------------
  free energy    TOTEN  =      -777.16009050 eV

  energy without entropy =     -777.14826046  energy(sigma->0) =     -777.15417548


--------------------------------------------------------------------------------------------------------




--------------------------------------- Iteration      1(   2)  ---------------------------------------


    POTLOK:  cpu time   67.9134: real time   68.0635
    SETDIJ:  cpu time    1.1715: real time    0.8284
    EDDIAG:  cpu time   46.8643: real time   39.1859
  RMM-DIIS:  cpu time  352.0707: real time  264.8045
    ORTHCH:  cpu time    2.2001: real time    1.1099
       DOS:  cpu time    0.0023: real time    0.0011
    CHARGE:  cpu time   33.8980: real time   32.6527
    MIXING:  cpu time    0.0987: real time    0.1105
    --------------------------------------------
      LOOP:  cpu time  504.2189: real time  406.7566

 eigenvalue-minimisations  :  6173
 total energy-change (2. order) :-0.1200560E-04  (-0.6058347E-04)
 number of electron     346.6999973 magnetization       0.8502348
 augmentation part       16.0653962 magnetization       0.1588740

 Broyden mixing:
  rms(total) = 0.90581E-02    rms(broyden)= 0.90549E-02
  rms(prec ) = 0.91038E-02
  weight for this iteration     100.00

 eigenvalues of (default mixing * dielectric matrix)
  average eigenvalue GAMMA=   1.7990
  1.7990

 Free energy of the ion-electron system (eV)
  ---------------------------------------------------
  alpha Z        PSCENC =        92.14382556
  Ewald energy   TEWEN  =    110930.99235369
  -Hartree energ DENC   =   -125013.92755532
  -exchange      EXHF   =         0.00000000
  -V(xc)+E(xc)   XCENC  =      1588.60327967
  PAW double counting   =     40504.54700833   -40671.43872435
  entropy T*S    EENTRO =        -0.01194419
  eigenvalues    EBANDS =     -5021.00367170
  atomic energy  EATOM  =     16689.68470767
  Solvation  Ediel_sol  =       123.25061813
  ---------------------------------------------------
  free energy    TOTEN  =      -777.16010250 eV

  energy without entropy =     -777.14815831  energy(sigma->0) =     -777.15413041


--------------------------------------------------------------------------------------------------------




--------------------------------------- Iteration      1(   3)  ---------------------------------------


    POTLOK:  cpu time   69.9302: real time   70.0810
    SETDIJ:  cpu time    1.1602: real time    0.8250
    EDDIAG:  cpu time   46.9704: real time   39.2412
  RMM-DIIS:  cpu time  354.3719: real time  265.4293
    ORTHCH:  cpu time    2.1368: real time    1.0725
       DOS:  cpu time    0.0026: real time    0.0013
    CHARGE:  cpu time   33.8618: real time   32.6126
    MIXING:  cpu time    0.0967: real time    0.0970
    --------------------------------------------
      LOOP:  cpu time  508.5306: real time  409.3599

 eigenvalue-minimisations  :  6206
 total energy-change (2. order) : 0.1913296E-03  (-0.3036564E-04)
 number of electron     346.6999973 magnetization       0.8500938
 augmentation part       16.0650211 magnetization       0.1599636

 Broyden mixing:
  rms(total) = 0.24588E-02    rms(broyden)= 0.24567E-02
  rms(prec ) = 0.25068E-02
  weight for this iteration     100.00

 eigenvalues of (default mixing * dielectric matrix)
  average eigenvalue GAMMA=   1.6038
  0.7122  2.4954

 Free energy of the ion-electron system (eV)
  ---------------------------------------------------
  alpha Z        PSCENC =        92.14382556
  Ewald energy   TEWEN  =    110930.99235369
  -Hartree energ DENC   =   -125013.59748932
  -exchange      EXHF   =         0.00000000
  -V(xc)+E(xc)   XCENC  =      1588.58239284
  PAW double counting   =     40543.47305487   -40710.34795701
  entropy T*S    EENTRO =        -0.01205123
  eigenvalues    EBANDS =     -5021.36115851
  atomic energy  EATOM  =     16689.68470767
  Solvation  Ediel_sol  =       123.28241025
  ---------------------------------------------------
  free energy    TOTEN  =      -777.15991117 eV

  energy without entropy =     -777.14785995  energy(sigma->0) =     -777.15388556


--------------------------------------------------------------------------------------------------------




--------------------------------------- Iteration      1(   4)  ---------------------------------------


    POTLOK:  cpu time   67.9841: real time   68.1323
    SETDIJ:  cpu time    0.8838: real time    0.6876
    EDDIAG:  cpu time   46.9221: real time   39.2003
  RMM-DIIS:  cpu time  310.5509: real time  233.2689
    ORTHCH:  cpu time    2.1671: real time    1.0878
       DOS:  cpu time    0.0048: real time    0.0024
    CHARGE:  cpu time   33.8364: real time   32.5763
    MIXING:  cpu time    0.0977: real time    0.0980
    --------------------------------------------
      LOOP:  cpu time  462.4470: real time  375.0535

 eigenvalue-minimisations  :  5006
 total energy-change (2. order) :-0.1150856E-03  (-0.6056675E-05)
 number of electron     346.6999973 magnetization       0.8501646
 augmentation part       16.0647831 magnetization       0.1549203

 Broyden mixing:
  rms(total) = 0.30242E-02    rms(broyden)= 0.30213E-02
  rms(prec ) = 0.31231E-02
  weight for this iteration     100.00

 eigenvalues of (default mixing * dielectric matrix)
  average eigenvalue GAMMA=   1.1529
  2.5059  0.6505  0.3023

 Free energy of the ion-electron system (eV)
  ---------------------------------------------------
  alpha Z        PSCENC =        92.14382556
  Ewald energy   TEWEN  =    110930.99235369
  -Hartree energ DENC   =   -125013.46179506
  -exchange      EXHF   =         0.00000000
  -V(xc)+E(xc)   XCENC  =      1588.57378621
  PAW double counting   =     40548.43702318   -40715.31044823
  entropy T*S    EENTRO =        -0.01165232
  eigenvalues    EBANDS =     -5021.47319259
  atomic energy  EATOM  =     16689.68470767
  Solvation  Ediel_sol  =       123.26536563
  ---------------------------------------------------
  free energy    TOTEN  =      -777.16002626 eV

  energy without entropy =     -777.14837394  energy(sigma->0) =     -777.15420010


--------------------------------------------------------------------------------------------------------




--------------------------------------- Iteration      1(   5)  ---------------------------------------


    POTLOK:  cpu time   68.2972: real time   68.4478
    SETDIJ:  cpu time    0.8841: real time    0.6880
    EDDIAG:  cpu time   46.9819: real time   39.2476
  RMM-DIIS:  cpu time  294.1444: real time  220.1177
    ORTHCH:  cpu time    2.1667: real time    1.0875
       DOS:  cpu time    0.0036: real time    0.0018
    CHARGE:  cpu time   33.9155: real time   32.6576
    MIXING:  cpu time    0.1014: real time    0.1016
    --------------------------------------------
      LOOP:  cpu time  446.4948: real time  362.3496

 eigenvalue-minimisations  :  4668
 total energy-change (2. order) :-0.1920757E-03  (-0.2863391E-05)
 number of electron     346.6999973 magnetization       0.8503316
 augmentation part       16.0647880 magnetization       0.1551338

 Broyden mixing:
  rms(total) = 0.21893E-02    rms(broyden)= 0.21891E-02
  rms(prec ) = 0.23022E-02
  weight for this iteration     100.00

 eigenvalues of (default mixing * dielectric matrix)
  average eigenvalue GAMMA=   1.2158
  2.5560  0.6715  0.8178  0.8178

 Free energy of the ion-electron system (eV)
  ---------------------------------------------------
  alpha Z        PSCENC =        92.14382556
  Ewald energy   TEWEN  =    110930.99235369
  -Hartree energ DENC   =   -125013.44990130
  -exchange      EXHF   =         0.00000000
  -V(xc)+E(xc)   XCENC  =      1588.57354709
  PAW double counting   =     40548.86830846   -40715.74142853
  entropy T*S    EENTRO =        -0.01164789
  eigenvalues    EBANDS =     -5021.50306329
  atomic energy  EATOM  =     16689.68470767
  Solvation  Ediel_sol  =       123.28308020
  ---------------------------------------------------
  free energy    TOTEN  =      -777.16021833 eV

  energy without entropy =     -777.14857044  energy(sigma->0) =     -777.15439439


--------------------------------------------------------------------------------------------------------




--------------------------------------- Iteration      1(   6)  ---------------------------------------


    POTLOK:  cpu time   69.4716: real time   69.6234
    SETDIJ:  cpu time    0.8818: real time    0.6856
    EDDIAG:  cpu time   46.9268: real time   39.1922
  RMM-DIIS:  cpu time  290.8950: real time  217.1899
    ORTHCH:  cpu time    2.1834: real time    1.0958
       DOS:  cpu time    0.0024: real time    0.0012
    CHARGE:  cpu time   33.8442: real time   32.5974
    MIXING:  cpu time    0.1032: real time    0.1034
    --------------------------------------------
      LOOP:  cpu time  444.3083: real time  360.4889

 eigenvalue-minimisations  :  4544
 total energy-change (2. order) :-0.1187225E-03  (-0.2911987E-05)
 number of electron     346.6999973 magnetization       0.8502641
 augmentation part       16.0650792 magnetization       0.1594049

 Broyden mixing:
  rms(total) = 0.15602E-02    rms(broyden)= 0.15561E-02
  rms(prec ) = 0.16063E-02
  weight for this iteration     100.00

 eigenvalues of (default mixing * dielectric matrix)
  average eigenvalue GAMMA=   1.1420
  2.5595  1.2496  0.6461  0.6275  0.6275

 Free energy of the ion-electron system (eV)
  ---------------------------------------------------
  alpha Z        PSCENC =        92.14382556
  Ewald energy   TEWEN  =    110930.99235369
  -Hartree energ DENC   =   -125013.44401568
  -exchange      EXHF   =         0.00000000
  -V(xc)+E(xc)   XCENC  =      1588.57266953
  PAW double counting   =     40549.24258283   -40716.11537462
  entropy T*S    EENTRO =        -0.01197529
  eigenvalues    EBANDS =     -5021.54522355
  atomic energy  EATOM  =     16689.68470767
  Solvation  Ediel_sol  =       123.32011280
  ---------------------------------------------------
  free energy    TOTEN  =      -777.16033706 eV

  energy without entropy =     -777.14836177  energy(sigma->0) =     -777.15434941


--------------------------------------------------------------------------------------------------------




--------------------------------------- Iteration      1(   7)  ---------------------------------------


    POTLOK:  cpu time   66.5063: real time   66.6516
    SETDIJ:  cpu time    0.8805: real time    0.6844
    EDDIAG:  cpu time   46.9197: real time   39.2086
  RMM-DIIS:  cpu time  289.4467: real time  216.0916
    ORTHCH:  cpu time    2.1715: real time    1.0900
       DOS:  cpu time    0.0024: real time    0.0012
    CHARGE:  cpu time   33.9396: real time   32.6912
    MIXING:  cpu time    0.1073: real time    0.1075
    --------------------------------------------
      LOOP:  cpu time  439.9739: real time  356.5261

 eigenvalue-minimisations  :  4526
 total energy-change (2. order) : 0.7106922E-04  (-0.2574415E-05)
 number of electron     346.6999973 magnetization       0.8502623
 augmentation part       16.0651181 magnetization       0.1578645

 Broyden mixing:
  rms(total) = 0.26813E-03    rms(broyden)= 0.26735E-03
  rms(prec ) = 0.27152E-03
  weight for this iteration     100.00

 eigenvalues of (default mixing * dielectric matrix)
  average eigenvalue GAMMA=   1.1416
  2.5950  1.5340  0.6479  0.6479  0.7861  0.6386

 Free energy of the ion-electron system (eV)
  ---------------------------------------------------
  alpha Z        PSCENC =        92.14382556
  Ewald energy   TEWEN  =    110930.99235369
  -Hartree energ DENC   =   -125013.39752977
  -exchange      EXHF   =         0.00000000
  -V(xc)+E(xc)   XCENC  =      1588.57117229
  PAW double counting   =     40548.98386715   -40715.85731280
  entropy T*S    EENTRO =        -0.01185759
  eigenvalues    EBANDS =     -5021.57348907
  atomic energy  EATOM  =     16689.68470767
  Solvation  Ediel_sol  =       123.30399688
  ---------------------------------------------------
  free energy    TOTEN  =      -777.16026599 eV

  energy without entropy =     -777.14840840  energy(sigma->0) =     -777.15433719


--------------------------------------------------------------------------------------------------------




--------------------------------------- Iteration      1(   8)  ---------------------------------------


    POTLOK:  cpu time   61.1236: real time   61.2560
    SETDIJ:  cpu time    0.8788: real time    0.6825
    EDDIAG:  cpu time   46.9054: real time   39.2029
  RMM-DIIS:  cpu time  282.3569: real time  210.9757
    ORTHCH:  cpu time    2.1695: real time    1.0895
       DOS:  cpu time    0.0022: real time    0.0011
    --------------------------------------------
      LOOP:  cpu time  393.4363: real time  313.2076

 eigenvalue-minimisations  :  4382
 total energy-change (2. order) :-0.6721202E-05  (-0.6413539E-06)
 number of electron     346.6999973 magnetization       0.8502623
 augmentation part       16.0651181 magnetization       0.1578645

 Free energy of the ion-electron system (eV)
  ---------------------------------------------------
  alpha Z        PSCENC =        92.14382556
  Ewald energy   TEWEN  =    110930.99235369
  -Hartree energ DENC   =   -125013.39651367
  -exchange      EXHF   =         0.00000000
  -V(xc)+E(xc)   XCENC  =      1588.57212418
  PAW double counting   =     40549.16296802   -40716.03650786
  entropy T*S    EENTRO =        -0.01182087
  eigenvalues    EBANDS =     -5021.57227926
  atomic energy  EATOM  =     16689.68470767
  Solvation  Ediel_sol  =       123.30086982
  ---------------------------------------------------
  free energy    TOTEN  =      -777.16027271 eV

  energy without entropy =     -777.14845184  energy(sigma->0) =     -777.15436227


--------------------------------------------------------------------------------------------------------




 average (electrostatic) potential at core
  the test charge radii are     0.7672  0.7089  0.6991  0.7167  0.7215
  (the norm of the test charge is              1.0000)
       1 -38.7082       2 -38.7106       3 -38.7082       4 -38.7054       5 -38.7050
       6 -38.7059       7 -38.7088       8 -38.7151       9 -38.7164      10 -38.7093
      11 -38.7055      12 -38.7057      13 -38.7068      14 -38.7116      15 -38.7161
      16 -38.7128      17 -38.7067      18 -38.7054      19 -38.7052      20 -38.7068
      21 -38.7089      22 -38.7089      23 -38.7064      24 -38.7047      25 -38.7048
      26 -38.7051      27 -38.7055      28 -38.7056      29 -38.7053      30 -38.7049
      31 -38.7058      32 -38.7058      33 -38.7050      34 -38.7048      35 -38.7050
      36 -38.7053      37 -76.2751      38 -76.2750      39 -76.2728      40 -76.2722
      41 -76.2725      42 -76.2735      43 -76.2786      44 -76.2852      45 -76.2804
      46 -76.2733      47 -76.2725      48 -76.2738      49 -76.2765      50 -76.2853
      51 -76.2889      52 -76.2774      53 -76.2729      54 -76.2732      55 -76.2735
      56 -76.2767      57 -76.2798      58 -76.2767      59 -76.2725      60 -76.2724
      61 -76.2725      62 -76.2731      63 -76.2735      64 -76.2732      65 -76.2725
      66 -76.2721      67 -76.2726      68 -76.2725      69 -76.2723      70 -76.2724
      71 -76.2724      72 -76.2725      73 -67.9775      74 -66.6648      75 -65.5089
      76 -92.2902      77 -92.2218      78 -92.2861      79 -92.5242      80 -92.5175
      81 -85.9377      82 -85.9242
 
 
 
 E-fermi :  -6.3253     XC(G=0):  -1.3735     alpha+bet : -1.1427


 spin component 1

 k-point     1 :       0.0000    0.0000    0.0000
  band No.  band energies     occupation 
      1     -36.1236      1.00000
      2     -35.4151      1.00000
      3     -33.9888      1.00000
      4     -33.6577      1.00000
      5     -33.6369      1.00000
      6     -30.2846      1.00000
      7     -28.8145      1.00000
      8     -24.9380      1.00000
      9     -24.3974      1.00000
     10     -24.3939      1.00000
     11     -24.3936      1.00000
     12     -24.3915      1.00000
     13     -24.3914      1.00000
     14     -24.3907      1.00000
     15     -23.3817      1.00000
     16     -23.3809      1.00000
     17     -23.3808      1.00000
     18     -23.3800      1.00000
     19     -23.3799      1.00000
     20     -23.3795      1.00000
     21     -22.9418      1.00000
     22     -22.9415      1.00000
     23     -22.9414      1.00000
     24     -22.9408      1.00000
     25     -22.9408      1.00000
     26     -22.9405      1.00000
     27     -21.8874      1.00000
     28     -21.8867      1.00000
     29     -21.8849      1.00000
     30     -21.8842      1.00000
     31     -21.8839      1.00000
     32     -21.8836      1.00000
     33     -21.8821      1.00000
     34     -21.8819      1.00000
     35     -21.8818      1.00000
     36     -21.8815      1.00000
     37     -21.8811      1.00000
     38     -21.8810      1.00000
     39     -21.7962      1.00000
     40     -21.7961      1.00000
     41     -21.7961      1.00000
     42     -21.3427      1.00000
     43     -21.2190      1.00000
     44     -21.2189      1.00000
     45     -18.4483      1.00000
     46     -16.7708      1.00000
     47     -16.5822      1.00000
     48     -16.5011      1.00000
     49     -15.6364      1.00000
     50     -15.6086      1.00000
     51     -15.4922      1.00000
     52     -15.4921      1.00000
     53     -15.4921      1.00000
     54     -14.6418      1.00000
     55     -14.6416      1.00000
     56     -14.6410      1.00000
     57     -14.6402      1.00000
     58     -14.6388      1.00000
     59     -14.6385      1.00000
     60     -14.6385      1.00000
     61     -14.6383      1.00000
     62     -14.6375      1.00000
     63     -14.6373      1.00000
     64     -14.6372      1.00000
     65     -14.6370      1.00000
     66     -14.3778      1.00000
     67     -14.3777      1.00000
     68     -14.1689      1.00000
     69     -13.7716      1.00000
     70     -13.7716      1.00000
     71     -13.4326      1.00000
     72     -13.4324      1.00000
     73     -13.4323      1.00000
     74     -13.4321      1.00000
     75     -13.4319      1.00000
     76     -13.4318      1.00000
     77     -13.0943      1.00000
     78     -12.9662      1.00000
     79     -12.7398      1.00000
     80     -12.7264      1.00000
     81     -12.5521      1.00000
     82     -12.4256      1.00000
     83     -12.1838      1.00000
     84     -12.0283      1.00000
     85     -12.0282      1.00000
     86     -12.0281      1.00000
     87     -12.0279      1.00000
     88     -12.0279      1.00000
     89     -12.0277      1.00000
     90     -11.9978      1.00000
     91     -11.7737      1.00000
     92     -11.7735      1.00000
     93     -11.7732      1.00000
     94     -11.7728      1.00000
     95     -11.7715      1.00000
     96     -11.7711      1.00000
     97     -11.7703      1.00000
     98     -11.7703      1.00000
     99     -11.7695      1.00000
    100     -11.7695      1.00000
    101     -11.7693      1.00000
    102     -11.7692      1.00000
    103     -11.6472      1.00000
    104     -11.5957      1.00000
    105     -11.4839      1.00000
    106     -11.1272      1.00000
    107     -10.8787      1.00000
    108     -10.8645      1.00000
    109     -10.8643      1.00000
    110     -10.8620      1.00000
    111     -10.8618      1.00000
    112     -10.8612      1.00000
    113     -10.7753      1.00000
    114     -10.5434      1.00000
    115     -10.5434      1.00000
    116     -10.5433      1.00000
    117     -10.3194      1.00000
    118     -10.3193      1.00000
    119     -10.3192      1.00000
    120     -10.3192      1.00000
    121     -10.3191      1.00000
    122     -10.3190      1.00000
    123      -9.9704      1.00000
    124      -9.9702      1.00000
    125      -9.9701      1.00000
    126      -9.9699      1.00000
    127      -9.9697      1.00000
    128      -9.9695      1.00000
    129      -9.7200      1.00000
    130      -9.7197      1.00000
    131      -9.7194      1.00000
    132      -9.7184      1.00000
    133      -9.7181      1.00000
    134      -9.7174      1.00000
    135      -9.4844      1.00000
    136      -9.4835      1.00000
    137      -9.4824      1.00000
    138      -9.4811      1.00000
    139      -9.4806      1.00000
    140      -9.4802      1.00000
    141      -9.0496      1.00000
    142      -8.9774      1.00000
    143      -8.8669      1.00000
    144      -8.8663      1.00000
    145      -8.8651      1.00000
    146      -8.8649      1.00000
    147      -8.8643      1.00000
    148      -8.8596      1.00000
    149      -8.5682      1.00000
    150      -8.5678      1.00000
    151      -8.5676      1.00000
    152      -8.5666      1.00000
    153      -8.5662      1.00000
    154      -8.5656      1.00000
    155      -7.6519      1.00000
    156      -7.6515      1.00000
    157      -7.5700      1.00000
    158      -7.3283      1.00000
    159      -7.3273      1.00000
    160      -7.3246      1.00000
    161      -7.3245      1.00000
    162      -7.3240      1.00000
    163      -7.3230      1.00000
    164      -7.3224      1.00000
    165      -7.3216      1.00000
    166      -7.3215      1.00000
    167      -7.3214      1.00000
    168      -7.3210      1.00000
    169      -7.3209      1.00000
    170      -7.1674      1.00000
    171      -7.1673      1.00000
    172      -7.1670      1.00000
    173      -6.2641      0.04156
    174      -6.2640      0.04134
    175      -1.0939      0.00000
    176      -0.9322      0.00000
    177      -0.9294      0.00000
    178      -0.9235      0.00000
    179      -0.8595      0.00000
    180      -0.8589      0.00000
    181      -0.8518      0.00000
    182      -0.2871      0.00000
    183      -0.1791      0.00000
    184      -0.1595      0.00000
    185      -0.1582      0.00000
    186      -0.1578      0.00000
    187      -0.1511      0.00000
    188      -0.1492      0.00000
    189      -0.1489      0.00000
    190      -0.1470      0.00000
    191      -0.1466      0.00000
    192      -0.1462      0.00000
    193      -0.1459      0.00000
    194      -0.1454      0.00000
    195      -0.1453      0.00000
    196      -0.1447      0.00000
    197      -0.1203      0.00000
    198      -0.0402      0.00000
    199      -0.0343      0.00000
    200      -0.0307      0.00000
    201      -0.0231      0.00000
    202       0.0865      0.00000
    203       0.1566      0.00000
    204       0.3151      0.00000
    205       0.3720      0.00000
    206       0.5294      0.00000
    207       0.6049      0.00000
    208       0.6331      0.00000
    209       0.6381      0.00000
    210       0.6502      0.00000
    211       0.7009      0.00000
    212       0.7034      0.00000
    213       0.7086      0.00000
    214       0.7095      0.00000
    215       0.7105      0.00000
    216       0.7106      0.00000
    217       0.7628      0.00000
    218       0.7871      0.00000
    219       0.8508      0.00000
    220       0.9379      0.00000
    221       0.9632      0.00000
    222       0.9665      0.00000
    223       0.9700      0.00000
    224       0.9725      0.00000
    225       1.0058      0.00000
    226       1.0353      0.00000
    227       1.0454      0.00000
    228       1.0626      0.00000
    229       1.0758      0.00000
    230       1.0776      0.00000
    231       1.0805      0.00000
    232       1.4289      0.00000
    233       1.4596      0.00000
    234       1.4638      0.00000
    235       1.4666      0.00000
    236       1.4686      0.00000
    237       1.4701      0.00000
    238       1.5078      0.00000
    239       1.5354      0.00000
    240       1.5399      0.00000
    241       1.5675      0.00000
    242       1.5715      0.00000
    243       1.5795      0.00000
    244       1.5885      0.00000
    245       1.6205      0.00000
    246       1.6817      0.00000
    247       1.6873      0.00000
    248       1.7093      0.00000
    249       1.7178      0.00000
    250       1.7218      0.00000
    251       1.7269      0.00000
    252       1.7489      0.00000
    253       1.7519      0.00000
    254       1.7606      0.00000
    255       1.7831      0.00000
    256       1.8007      0.00000

 k-point     2 :       0.3333    0.0000    0.0000
  band No.  band energies     occupation 
      1     -36.1236      1.00000
      2     -35.4151      1.00000
      3     -33.9888      1.00000
      4     -33.6577      1.00000
      5     -33.6369      1.00000
      6     -30.2846      1.00000
      7     -28.8145      1.00000
      8     -24.8764      1.00000
      9     -24.6931      1.00000
     10     -24.5126      1.00000
     11     -24.5117      1.00000
     12     -24.1589      1.00000
     13     -24.1580      1.00000
     14     -23.9865      1.00000
     15     -23.8166      1.00000
     16     -23.8156      1.00000
     17     -23.4915      1.00000
     18     -23.3299      1.00000
     19     -23.3299      1.00000
     20     -23.1807      1.00000
     21     -23.1807      1.00000
     22     -22.8775      1.00000
     23     -22.8766      1.00000
     24     -22.6264      1.00000
     25     -22.6263      1.00000
     26     -22.3968      1.00000
     27     -22.3519      1.00000
     28     -22.3511      1.00000
     29     -22.2612      1.00000
     30     -22.2611      1.00000
     31     -21.9664      1.00000
     32     -21.9078      1.00000
     33     -21.9077      1.00000
     34     -21.8450      1.00000
     35     -21.8449      1.00000
     36     -21.8102      1.00000
     37     -21.8101      1.00000
     38     -21.5933      1.00000
     39     -21.5925      1.00000
     40     -21.5446      1.00000
     41     -21.5445      1.00000
     42     -21.3427      1.00000
     43     -21.3057      1.00000
     44     -21.3057      1.00000
     45     -18.4483      1.00000
     46     -16.7708      1.00000
     47     -16.5822      1.00000
     48     -16.5011      1.00000
     49     -15.6364      1.00000
     50     -15.6086      1.00000
     51     -15.3841      1.00000
     52     -15.3840      1.00000
     53     -15.2170      1.00000
     54     -15.0887      1.00000
     55     -15.0878      1.00000
     56     -15.0785      1.00000
     57     -15.0784      1.00000
     58     -14.7067      1.00000
     59     -14.7066      1.00000
     60     -14.5698      1.00000
     61     -14.5697      1.00000
     62     -14.4766      1.00000
     63     -14.3802      1.00000
     64     -14.3801      1.00000
     65     -14.2326      1.00000
     66     -14.2325      1.00000
     67     -14.1689      1.00000
     68     -13.9643      1.00000
     69     -13.9642      1.00000
     70     -13.8750      1.00000
     71     -13.8742      1.00000
     72     -13.3638      1.00000
     73     -13.3637      1.00000
     74     -13.0944      1.00000
     75     -12.9667      1.00000
     76     -12.9591      1.00000
     77     -12.9585      1.00000
     78     -12.8395      1.00000
     79     -12.8394      1.00000
     80     -12.7397      1.00000
     81     -12.7264      1.00000
     82     -12.6145      1.00000
     83     -12.6144      1.00000
     84     -12.5520      1.00000
     85     -12.4256      1.00000
     86     -12.2900      1.00000
     87     -12.2899      1.00000
     88     -12.2771      1.00000
     89     -12.2770      1.00000
     90     -12.2200      1.00000
     91     -12.1838      1.00000
     92     -11.9978      1.00000
     93     -11.9317      1.00000
     94     -11.9312      1.00000
     95     -11.6467      1.00000
     96     -11.5138      1.00000
     97     -11.4839      1.00000
     98     -11.4481      1.00000
     99     -11.4477      1.00000
    100     -11.2682      1.00000
    101     -11.1708      1.00000
    102     -11.1707      1.00000
    103     -11.1620      1.00000
    104     -11.1617      1.00000
    105     -11.1272      1.00000
    106     -11.0260      1.00000
    107     -11.0237      1.00000
    108     -10.9626      1.00000
    109     -10.9625      1.00000
    110     -10.9593      1.00000
    111     -10.9590      1.00000
    112     -10.9472      1.00000
    113     -10.7852      1.00000
    114     -10.7140      1.00000
    115     -10.7139      1.00000
    116     -10.5461      1.00000
    117     -10.5454      1.00000
[...]
   0.253E+01 0.488E+01 0.703E+02   -.250E+01 -.493E+01 -.701E+02   -.160E-02 -.874E-04 -.190E-02   0.328E-04 0.780E-04 0.791E-03
   -.665E+01 0.186E+02 0.794E+02   0.670E+01 -.186E+02 -.792E+02   -.480E-02 0.165E-02 -.348E-02   -.105E-03 0.267E-03 0.909E-03
   -.245E+02 0.226E+02 0.913E+02   0.245E+02 -.225E+02 -.911E+02   -.771E-02 0.320E-02 0.694E-03   -.391E-03 0.336E-03 0.105E-02
   -.322E+02 0.997E+01 0.913E+02   0.321E+02 -.985E+01 -.910E+02   -.570E-02 0.218E-02 0.874E-02   -.518E-03 0.169E-03 0.103E-02
   -.202E+02 -.317E+01 0.793E+02   0.200E+02 0.318E+01 -.790E+02   -.307E-02 -.284E-02 0.608E-03   -.331E-03 -.199E-04 0.870E-03
   -.318E+01 -.431E+01 0.700E+02   0.313E+01 0.427E+01 -.698E+02   -.129E-02 -.212E-03 -.749E-02   -.604E-04 -.375E-04 0.774E-03
   0.188E+02 -.103E+02 0.776E+02   -.187E+02 0.103E+02 -.773E+02   0.597E-03 -.218E-02 -.203E-02   0.281E-03 -.126E-03 0.855E-03
   0.975E+01 -.914E+01 0.760E+02   -.964E+01 0.907E+01 -.757E+02   -.163E-02 -.311E-02 -.442E-03   0.150E-03 -.136E-03 0.839E-03
   -.473E+01 0.177E+00 0.730E+02   0.476E+01 -.231E+00 -.728E+02   -.247E-02 0.812E-04 -.881E-02   -.747E-04 -.167E-04 0.812E-03
   -.112E+02 0.610E+01 0.722E+02   0.111E+02 -.608E+01 -.720E+02   -.106E-02 0.444E-03 -.802E-02   -.169E-03 0.724E-04 0.798E-03
   -.316E+01 0.387E+01 0.726E+02   0.308E+01 -.382E+01 -.724E+02   0.663E-03 0.620E-04 -.532E-02   -.523E-04 0.550E-04 0.796E-03
   0.123E+02 -.324E+01 0.751E+02   -.123E+02 0.327E+01 -.749E+02   0.807E-03 -.211E-03 -.945E-02   0.175E-03 -.270E-04 0.825E-03
   0.370E+01 0.255E+02 -.413E+03   -.447E+01 -.242E+02 0.405E+03   0.932E+00 -.934E+00 0.831E+01   -.238E-04 0.131E-02 -.500E-02
   -.120E+02 -.440E+02 -.322E+03   0.179E+02 0.533E+02 0.330E+03   -.557E+01 -.869E+01 -.660E+01   0.204E-02 0.423E-02 -.741E-03
   -.434E+02 -.113E+03 -.312E+03   0.431E+02 0.113E+03 0.313E+03   0.571E+00 0.116E+01 -.172E+00   -.148E-02 -.368E-02 0.159E-02
   -.535E+03 0.865E+02 -.904E+03   0.594E+03 -.896E+02 0.919E+03   -.575E+02 0.345E+01 -.156E+02   -.325E-02 0.173E-02 -.540E-02
   0.245E+03 0.514E+03 -.883E+03   -.271E+03 -.563E+03 0.900E+03   0.258E+02 0.495E+02 -.160E+02   0.150E-02 0.364E-02 -.449E-02
   0.243E+03 -.365E+03 -.103E+04   -.269E+03 0.411E+03 0.106E+04   0.255E+02 -.442E+02 -.305E+02   0.188E-02 -.120E-02 -.655E-02
   -.215E+03 0.414E+03 -.309E+03   0.246E+03 -.455E+03 0.278E+03   -.293E+02 0.418E+02 0.318E+02   -.240E-02 0.899E-02 0.483E-02
   0.552E+03 0.268E+02 -.436E+03   -.610E+03 -.228E+02 0.420E+03   0.580E+02 -.239E+01 0.164E+02   0.969E-02 0.286E-02 0.243E-02
   -.448E+03 -.121E+03 -.442E+03   0.508E+03 0.110E+03 0.436E+03   -.576E+02 0.113E+02 0.653E+01   -.597E-02 -.197E-02 0.226E-02
   0.208E+03 -.429E+03 -.481E+03   -.255E+03 0.470E+03 0.481E+03   0.450E+02 -.384E+02 0.117E+01   0.256E-02 -.598E-02 0.175E-02
 -----------------------------------------------------------------------------------------------
   -.573E+01 -.126E+02 0.461E+01   -.284E-12 0.568E-13 0.284E-12   0.569E+01 0.125E+02 -.464E+01   0.454E-02 0.997E-02 0.568E-01
 
 
 POSITION                                       TOTAL-FORCE (eV/Angst)
 -----------------------------------------------------------------------------------
      1.25608     -0.72498     17.55778        -0.000801      0.000292      0.000005
      2.51206      1.45069     17.55650        -0.002865      0.002162      0.000901
      3.76830      3.62617     17.55582        -0.003512      0.006102      0.000779
      5.02450      5.80181     17.55649        -0.000454      0.001348     -0.000205
      6.28061      7.97748     17.55790        -0.000017     -0.000215     -0.000077
      7.53667     10.15310     17.55846         0.000376      0.000651      0.000360
      2.51229     -2.90077     17.55829        -0.001235     -0.000284      0.000442
      3.76814     -0.72517     17.55607        -0.001545     -0.000668      0.002957
      5.02427      1.45071     17.55524        -0.001182      0.003821     -0.004449
      6.28055      3.62614     17.55569         0.001622      0.007479      0.000265
      7.53672      5.80180     17.55677        -0.000751      0.001309     -0.000316
      8.79280      7.97742     17.55835        -0.000411      0.000773     -0.000182
      3.76845     -5.07642     17.55859        -0.000743      0.000790      0.000217
      5.02450     -2.90093     17.55834        -0.000586     -0.000092      0.001550
      6.28062     -0.72527     17.55617         0.002273     -0.001356      0.004116
      7.53673      1.45056     17.55626         0.004637      0.004303      0.003000
      8.79275      3.62618     17.55617         0.003311      0.002775      0.000409
     10.04890      5.80177     17.55762        -0.000079      0.001100     -0.000434
      5.02454     -7.25195     17.55818        -0.000157      0.000683      0.000268
      6.28063     -5.07640     17.55838         0.000073      0.000180      0.000823
      7.53672     -2.90075     17.55743         0.000690     -0.001445      0.001157
      8.79278     -0.72498     17.55627         0.002210     -0.000190      0.001297
     10.04877      1.45057     17.55622         0.005755      0.007498      0.000391
     11.30497      3.62623     17.55732         0.000260      0.000900     -0.000506
      6.28057     -9.42748     17.55800         0.000358     -0.000297     -0.000048
      7.53670     -7.25191     17.55799         0.000807      0.000544      0.000109
      8.79282     -5.07628     17.55804         0.000664      0.000101     -0.000231
     10.04889     -2.90060     17.55747         0.000098     -0.000387     -0.000209
     11.30491     -0.72496     17.55729         0.001353      0.000830     -0.000420
     12.56100      1.45063     17.55782         0.001096      0.001406     -0.000578
      7.53659    -11.60306     17.55792        -0.000278      0.000067     -0.000065
      8.79271     -9.42745     17.55715        -0.000639      0.000169     -0.000167
     10.04889     -7.25189     17.55725         0.000202      0.000499     -0.000645
     11.30500     -5.07624     17.55788        -0.000094     -0.000091     -0.000208
     12.56105     -2.90061     17.55818         0.000561      0.000767      0.000231
     13.81709     -0.72498     17.55831         0.000890      0.000872      0.000065
      1.25616      0.72541     17.55751         0.001699     -0.000165     -0.000847
      2.51224      2.90099     17.55614         0.002487     -0.001084      0.001239
      3.76840      5.07658     17.55614         0.000627     -0.001018      0.000919
      5.02452      7.25225     17.55744         0.000309     -0.000014     -0.000548
      6.28062      9.42791     17.55837        -0.000591     -0.000152     -0.000631
      7.53667     11.60354     17.55840        -0.000359     -0.000297     -0.000658
      2.51224     -1.45027     17.55739         0.001612      0.000873      0.000479
      3.76832      0.72533     17.55589         0.002779     -0.000968      0.004335
      5.02440      2.90095     17.55500         0.002363     -0.003657      0.004366
      6.28059      5.07658     17.55593         0.000514     -0.002636      0.000747
      7.53672      7.25224     17.55779        -0.000333     -0.000369     -0.000770
      8.79279      9.42788     17.55862         0.000098     -0.000381     -0.000814
      3.76842     -3.62592     17.55878         0.000759      0.000761     -0.000427
      5.02438     -1.45026     17.55781         0.001846      0.001554     -0.000446
      6.28030      0.72528     17.55740         0.001357      0.000212      0.001829
      7.53658      2.90090     17.55593        -0.000772     -0.002600      0.001798
      8.79279      5.07659     17.55656        -0.001022     -0.000588      0.000491
     10.04890      7.25223     17.55839         0.000094     -0.000435     -0.001046
      5.02454     -5.80152     17.55844        -0.000039      0.000586     -0.000197
      6.28060     -3.62590     17.55834        -0.000479      0.001659      0.000421
      7.53659     -1.45026     17.55636        -0.000481      0.002075      0.002047
      8.79269      0.72544     17.55560        -0.004695     -0.003321      0.002869
     10.04885      2.90111     17.55614        -0.002470     -0.006240      0.001030
     11.30500      5.07663     17.55782        -0.000539      0.000409     -0.000837
      6.28062     -7.97709     17.55810        -0.000258      0.000084     -0.000419
      7.53673     -5.80148     17.55822        -0.000692      0.000145     -0.000684
      8.79279     -3.62584     17.55758        -0.000545      0.000512     -0.000173
     10.04881     -1.45019     17.55666        -0.000781      0.000791      0.000693
     11.30490      0.72548     17.55700        -0.001480     -0.002756     -0.000480
     12.56105      2.90105     17.55790        -0.000259     -0.000620     -0.001132
      7.53667    -10.15269     17.55772        -0.000171      0.000057     -0.000406
      8.79280     -7.97708     17.55743        -0.000470     -0.000107     -0.000422
     10.04891     -5.80147     17.55795        -0.000607      0.000399     -0.001354
     11.30498     -3.62581     17.55805        -0.000573     -0.000217     -0.001153
     12.56104     -1.45018     17.55807        -0.001203     -0.000401     -0.000615
     13.81713      0.72544     17.55829        -0.000997     -0.000155     -0.001125
      5.17504     -0.78905     23.62971        -0.003759      0.003394     -0.029072
      5.01758     -0.58100     22.11372         0.018658      0.005985      0.038986
      5.78568      1.08196     21.65834        -0.002291     -0.011642      0.006451
      6.46559     -0.86224     23.96320         0.006291      0.014234     -0.024828
      4.57372     -1.93861     23.98278         0.006225     -0.003874      0.020012
      4.59958      0.21580     24.29764        -0.002012      0.012844     -0.019376
      5.65917     -1.51840     21.42872        -0.009299     -0.008321     -0.008803
      3.73803     -0.54603     21.77160        -0.033901     -0.022551     -0.018800
      6.95962      0.85372     21.52669        -0.022806      0.007810      0.005940
      4.87364      1.86434     21.63527         0.034281     -0.022213      0.010808
 -----------------------------------------------------------------------------------
    total drift:                               -0.030773     -0.054952      0.028267


--------------------------------------------------------------------------------------------------------



  FREE ENERGIE OF THE ION-ELECTRON SYSTEM (eV)
  ---------------------------------------------------
  free  energy   TOTEN  =      -777.16027271 eV

  energy  without entropy=     -777.14845184  energy(sigma->0) =     -777.15436227
 


--------------------------------------------------------------------------------------------------------


    POTLOK:  cpu time   63.5701: real time   63.5122


--------------------------------------------------------------------------------------------------------


 stress matrix after NEB project (eV)
    -28.20261      0.66495      0.34964
      0.66498    -27.25514      0.25024
      0.34823      0.25008     -0.05696
  FORCES: max atom, RMS     0.044847    0.011096
  FORCE total and by dimension    0.100483    0.038986
  Stress total and by dimension   39.236281   28.202608
 writing wavefunctions
     LOOP+:  cpu time 4671.6505: real time 3766.3257
    4ORBIT:  cpu time    0.0000: real time    0.0000
 


 total charge     
 
# of ion       s       p       d       tot
------------------------------------------
    1        0.744   1.393   0.000   2.137
    2        0.744   1.393   0.000   2.137
    3        0.744   1.393   0.000   2.137
    4        0.744   1.393   0.000   2.137
    5        0.744   1.393   0.000   2.137
    6        0.744   1.393   0.000   2.137
    7        0.744   1.393   0.000   2.137
    8        0.744   1.393   0.000   2.137
    9        0.744   1.394   0.000   2.138
   10        0.744   1.393   0.000   2.137
   11        0.744   1.393   0.000   2.137
   12        0.744   1.393   0.000   2.137
   13        0.744   1.393   0.000   2.137
   14        0.744   1.393   0.000   2.137
   15        0.744   1.393   0.000   2.137
   16        0.744   1.393   0.000   2.137
   17        0.744   1.393   0.000   2.137
   18        0.744   1.393   0.000   2.137
   19        0.744   1.393   0.000   2.137
   20        0.744   1.393   0.000   2.137
   21        0.744   1.393   0.000   2.137
   22        0.744   1.393   0.000   2.137
   23        0.744   1.393   0.000   2.137
   24        0.744   1.393   0.000   2.137
   25        0.744   1.393   0.000   2.137
   26        0.744   1.393   0.000   2.137
   27        0.744   1.393   0.000   2.137
   28        0.744   1.393   0.000   2.137
   29        0.744   1.393   0.000   2.137
   30        0.744   1.393   0.000   2.137
   31        0.744   1.393   0.000   2.137
   32        0.744   1.393   0.000   2.137
   33        0.744   1.393   0.000   2.137
   34        0.744   1.393   0.000   2.137
   35        0.744   1.393   0.000   2.137
   36        0.744   1.393   0.000   2.137
   37        1.239   2.820   0.000   4.059
   38        1.239   2.820   0.000   4.059
   39        1.239   2.820   0.000   4.059
   40        1.239   2.820   0.000   4.059
   41        1.239   2.820   0.000   4.059
   42        1.239   2.820   0.000   4.059
   43        1.239   2.820   0.000   4.059
   44        1.239   2.820   0.000   4.059
   45        1.239   2.820   0.000   4.059
   46        1.239   2.820   0.000   4.059
   47        1.239   2.820   0.000   4.059
   48        1.239   2.820   0.000   4.059
   49        1.239   2.820   0.000   4.059
   50        1.239   2.820   0.000   4.059
   51        1.239   2.820   0.000   4.058
   52        1.239   2.820   0.000   4.059
   53        1.239   2.820   0.000   4.059
   54        1.239   2.820   0.000   4.059
   55        1.239   2.820   0.000   4.059
   56        1.239   2.820   0.000   4.059
   57        1.239   2.820   0.000   4.059
   58        1.239   2.820   0.000   4.059
   59        1.239   2.820   0.000   4.059
   60        1.239   2.820   0.000   4.059
   61        1.239   2.820   0.000   4.059
   62        1.239   2.820   0.000   4.059
   63        1.239   2.820   0.000   4.059
   64        1.239   2.820   0.000   4.059
   65        1.239   2.820   0.000   4.059
   66        1.239   2.820   0.000   4.059
   67        1.239   2.820   0.000   4.059
   68        1.239   2.820   0.000   4.059
   69        1.239   2.820   0.000   4.059
   70        1.239   2.820   0.000   4.059
   71        1.239   2.820   0.000   4.059
   72        1.239   2.820   0.000   4.059
   73        0.814   1.563   0.000   2.377
   74        0.838   1.551   0.000   2.388
   75        0.905   1.728   0.000   2.633
   76        1.759   4.414   0.000   6.173
   77        1.759   4.407   0.000   6.165
   78        1.759   4.413   0.000   6.172
   79        1.759   4.401   0.000   6.159
   80        1.759   4.402   0.000   6.161
   81        1.605   3.558   0.000   5.163
   82        1.605   3.560   0.000   5.165
--------------------------------------------------
tot         85.929 185.675   0.000 271.604
 


 magnetization (x)
 
# of ion       s       p       d       tot
------------------------------------------
    1       -0.000  -0.000   0.000  -0.000
    2       -0.000   0.000   0.000   0.000
    3       -0.000   0.000   0.000  -0.000
    4       -0.000  -0.000   0.000  -0.000
    5       -0.000  -0.000   0.000  -0.000
    6       -0.000  -0.000   0.000  -0.000
    7       -0.000  -0.000   0.000  -0.000
    8       -0.000  -0.000   0.000  -0.000
    9       -0.000   0.000   0.000   0.000
   10       -0.000   0.000   0.000  -0.000
   11       -0.000  -0.000   0.000  -0.000
   12       -0.000  -0.000   0.000  -0.000
   13       -0.000  -0.000   0.000  -0.000
   14       -0.000  -0.000   0.000  -0.000
   15       -0.000  -0.000   0.000  -0.000
   16        0.000   0.000   0.000   0.000
   17       -0.000  -0.000   0.000  -0.000
   18       -0.000  -0.000   0.000  -0.000
   19       -0.000  -0.000   0.000  -0.000
   20       -0.000  -0.000   0.000  -0.000
   21       -0.000  -0.000   0.000  -0.000
   22       -0.000  -0.000   0.000  -0.000
   23       -0.000  -0.000   0.000  -0.000
   24       -0.000  -0.000   0.000  -0.000
   25       -0.000  -0.000   0.000  -0.000
   26       -0.000  -0.000   0.000  -0.000
   27       -0.000  -0.000   0.000  -0.000
   28       -0.000  -0.000   0.000  -0.000
   29       -0.000  -0.000   0.000  -0.000
   30       -0.000  -0.000   0.000  -0.000
   31       -0.000  -0.000   0.000  -0.000
   32       -0.000  -0.000   0.000  -0.000
   33       -0.000  -0.000   0.000  -0.000
   34       -0.000  -0.000   0.000  -0.000
   35       -0.000  -0.000   0.000  -0.000
   36       -0.000  -0.000   0.000  -0.000
   37        0.000   0.000   0.000   0.000
   38       -0.000   0.000   0.000   0.000
   39        0.000   0.000   0.000   0.000
   40        0.000   0.000   0.000   0.000
   41        0.000   0.000   0.000   0.000
   42        0.000   0.000   0.000   0.000
   43        0.000   0.000   0.000   0.000
   44        0.000   0.000   0.000   0.000
   45        0.000   0.000   0.000   0.000
   46        0.000   0.000   0.000   0.000
   47        0.000   0.000   0.000   0.000
   48        0.000   0.000   0.000   0.000
   49        0.000   0.000   0.000   0.000
   50       -0.000  -0.000   0.000  -0.000
   51        0.000   0.000   0.000   0.000
   52        0.000  -0.000   0.000  -0.000
   53        0.000   0.000   0.000   0.000
   54        0.000   0.000   0.000   0.000
   55        0.000   0.000   0.000   0.000
   56        0.000   0.000   0.000   0.000
   57        0.000   0.000   0.000   0.000
   58        0.000   0.000   0.000   0.000
   59        0.000   0.000   0.000   0.000
   60        0.000   0.000   0.000   0.000
   61        0.000   0.000   0.000   0.000
   62        0.000   0.000   0.000   0.000
   63        0.000   0.000   0.000   0.000
   64        0.000   0.000   0.000   0.000
   65        0.000   0.000   0.000   0.000
   66        0.000   0.000   0.000   0.000
   67        0.000   0.000   0.000   0.000
   68        0.000   0.000   0.000   0.000
   69        0.000   0.000   0.000   0.000
   70        0.000   0.000   0.000   0.000
   71        0.000   0.000   0.000   0.000
   72        0.000   0.000   0.000   0.000
   73        0.005   0.014   0.000   0.019
   74        0.037   0.196   0.000   0.233
   75       -0.013  -0.026   0.000  -0.039
   76       -0.000  -0.001   0.000  -0.001
   77        0.000   0.019   0.000   0.019
   78       -0.000  -0.001   0.000  -0.001
   79        0.001   0.050   0.000   0.051
   80        0.001   0.048   0.000   0.049
   81        0.002   0.157   0.000   0.159
   82        0.002   0.148   0.000   0.150
--------------------------------------------------
tot          0.035   0.605   0.000   0.640
 

 total amount of memory used by VASP MPI-rank0  1463178. kBytes
=======================================================================

   base      :      30000. kBytes
   nonlr-proj:      37382. kBytes
   fftplans  :      81109. kBytes
   grid      :     794361. kBytes
   one-center:        503. kBytes
   wavefun   :     519823. kBytes
 
  
  
 General timing and accounting informations for this job:
 ========================================================
  
                  Total CPU time used (sec):     6092.266
                            User time (sec):     5454.553
                          System time (sec):      637.713
                         Elapsed time (sec):     4575.909
  
                   Maximum memory used (kb):     3138116.
                   Average memory used (kb):           0.
  
                          Minor page faults:      4398901
                          Major page faults:           16
                 Voluntary context switches:        40622
