 vasp.5.4.4.18Apr17-6-g9f103f2a35 (build May 01 2020 14:57:12) complex          
  
 executed on             LinuxIFC date 2021.08.07  23:08:14
 running on   96 total cores
 distrk:  each k-point on   96 cores,    1 groups
 distr:  one band on NCORES_PER_BAND=  24 cores,    4 groups


--------------------------------------------------------------------------------------------------------


 INCAR:
 POTCAR:    PAW_PBE B 06Sep2000                   
 POTCAR:    PAW_PBE N 08Apr2002                   
 POTCAR:    PAW_PBE C 08Apr2002                   
 POTCAR:    PAW_PBE F 08Apr2002                   
 POTCAR:    PAW_PBE O 08Apr2002                   

 ----------------------------------------------------------------------------- 
|                                                                             |
|           W    W    AA    RRRRR   N    N  II  N    N   GGGG   !!!           |
|           W    W   A  A   R    R  NN   N  II  NN   N  G    G  !!!           |
|           W    W  A    A  R    R  N N  N  II  N N  N  G       !!!           |
|           W WW W  AAAAAA  RRRRR   N  N N  II  N  N N  G  GGG   !            |
|           WW  WW  A    A  R   R   N   NN  II  N   NN  G    G                |
|           W    W  A    A  R    R  N    N  II  N    N   GGGG   !!!           |
|                                                                             |
|      For optimal performance we recommend to set                            |
|        NCORE= 4 - approx SQRT( number of cores)                             |
|      NCORE specifies how many cores store one orbital (NPAR=cpu/NCORE).     |
|      This setting can  greatly improve the performance of VASP for DFT.     |
|      The default,   NCORE=1            might be grossly inefficient         |
|      on modern multi-core architectures or massively parallel machines.     |
|      Do your own testing !!!!                                               |
|      Unfortunately you need to use the default for GW and RPA calculations. |
|      (for HF NCORE is supported but not extensively tested yet)             |
|                                                                             |
 ----------------------------------------------------------------------------- 


 ----------------------------------------------------------------------------- 
|                                                                             |
|  ADVICE TO THIS USER RUNNING 'VASP/VAMP'   (HEAR YOUR MASTER'S VOICE ...):  |
|                                                                             |
|      You have switched on vdW-DFT.                                          |
|      This routine was written and supplied by Jiri Klimes.                  |
|      We recommed that you carefully read and cite the following             |
|      publication                                                            |
|      J. Klimes, D.R. Bowler, A. Michelides                                  |
|        J. Phys.: Cond Matt. 22 022201 (2010)                                |
|      J. Klimes, D.R. Bowler, A. Michelides                                  |
|        Phys. Rev. B. 83, 195131 (2011)                                      |
|      and references therein.                                                |
|                                                                             |
 ----------------------------------------------------------------------------- 

 POTCAR:    PAW_PBE B 06Sep2000                   
   VRHFIN =B: s2p1                                                              
   LEXCH  = PE                                                                  
   EATOM  =    71.1703 eV,    5.2309 Ry                                         
                                                                                
   TITEL  = PAW_PBE B 06Sep2000                                                 
   LULTRA =        F    use ultrasoft PP ?                                      
   IUNSCR =        1    unscreen: 0-lin 1-nonlin 2-no                           
   RPACOR =    1.200    partial core radius                                     
   POMASS =   10.811; ZVAL   =    3.000    mass and valenz                      
   RCORE  =    1.700    outmost cutoff radius                                   
   RWIGS  =    1.710; RWIGS  =    0.905    wigner-seitz radius (au A)           
   ENMAX  =  318.614; ENMIN  =  238.960 eV                                      
   ICORE  =        2    local potential                                         
   LCOR   =        T    correct aug charges                                     
   LPAW   =        T    paw PP                                                  
   EAUG   =  535.514                                                            
   DEXC   =    0.000                                                            
   RMAX   =    1.732    core radius for proj-oper                               
   RAUG   =    1.300    factor for augmentation sphere                          
   RDEP   =    1.757    radius for radial grids                                 
   RDEPT  =    1.436    core radius for aug-charge                              
                                                                                
   Atomic configuration                                                         
    4 entries                                                                   
     n  l   j            E        occ.                                          
     1  0  0.50      -180.5896   2.0000                                         
     2  0  0.50        -9.4431   2.0000                                         
     2  1  0.50        -3.6068   1.0000                                         
     3  2  1.50        -4.0817   0.0000                                         
   Description                                                                  
     l       E           TYP  RCUT    TYP  RCUT                                 
     0     -9.4430752     23  1.500                                             
     0      0.8675899     23  1.500                                             
     1     -3.6067955     23  1.700                                             
     1      6.1086146     23  1.700                                             
     2     -4.0817478      7  1.700                                             
  local pseudopotential read in
  partial core-charges read in
  partial kinetic energy density read in
  atomic valenz-charges read in
  non local Contribution for L=           0  read in
    real space projection operators read in
  non local Contribution for L=           0  read in
    real space projection operators read in
  non local Contribution for L=           1  read in
    real space projection operators read in
  non local Contribution for L=           1  read in
    real space projection operators read in
    PAW grid and wavefunctions read in
 
   number of l-projection  operators is LMAX  =           4
   number of lm-projection operators is LMMAX =           8
 
 POTCAR:    PAW_PBE N 08Apr2002                   
   VRHFIN =N: s2p3                                                              
   LEXCH  = PE                                                                  
   EATOM  =   264.5486 eV,   19.4438 Ry                                         
                                                                                
   TITEL  = PAW_PBE N 08Apr2002                                                 
   LULTRA =        F    use ultrasoft PP ?                                      
   IUNSCR =        1    unscreen: 0-lin 1-nonlin 2-no                           
   RPACOR =    1.200    partial core radius                                     
   POMASS =   14.001; ZVAL   =    5.000    mass and valenz                      
   RCORE  =    1.500    outmost cutoff radius                                   
   RWIGS  =    1.400; RWIGS  =    0.741    wigner-seitz radius (au A)           
   ENMAX  =  400.000; ENMIN  =  300.000 eV                                      
   ICORE  =        2    local potential                                         
   LCOR   =        T    correct aug charges                                     
   LPAW   =        T    paw PP                                                  
   EAUG   =  627.112                                                            
   DEXC   =    0.000                                                            
   RMAX   =    1.529    core radius for proj-oper                               
   RAUG   =    1.300    factor for augmentation sphere                          
   RDEP   =    1.514    radius for radial grids                                 
   RDEPT  =    1.338    core radius for aug-charge                              
                                                                                
   Atomic configuration                                                         
    4 entries                                                                   
     n  l   j            E        occ.                                          
     1  0  0.50      -384.7179   2.0000                                         
     2  0  0.50       -18.5828   2.0000                                         
     2  1  0.50        -7.0898   3.0000                                         
     3  2  1.50        -6.8029   0.0000                                         
   Description                                                                  
     l       E           TYP  RCUT    TYP  RCUT                                 
     0    -18.5828119     23  1.200                                             
     0    -13.5018863     23  1.200                                             
     1     -7.0897853     23  1.500                                             
     1      9.5240782     23  1.500                                             
     2     -6.8029130      7  1.500                                             
  local pseudopotential read in
  partial core-charges read in
  partial kinetic energy density read in
  atomic valenz-charges read in
  non local Contribution for L=           0  read in
    real space projection operators read in
  non local Contribution for L=           0  read in
    real space projection operators read in
  non local Contribution for L=           1  read in
    real space projection operators read in
  non local Contribution for L=           1  read in
    real space projection operators read in
    PAW grid and wavefunctions read in
 
   number of l-projection  operators is LMAX  =           4
   number of lm-projection operators is LMMAX =           8
 
 POTCAR:    PAW_PBE C 08Apr2002                   
   VRHFIN =C: s2p2                                                              
   LEXCH  = PE                                                                  
   EATOM  =   147.1560 eV,   10.8157 Ry                                         
                                                                                
   TITEL  = PAW_PBE C 08Apr2002                                                 
   LULTRA =        F    use ultrasoft PP ?                                      
   IUNSCR =        1    unscreen: 0-lin 1-nonlin 2-no                           
   RPACOR =    1.200    partial core radius                                     
   POMASS =   12.011; ZVAL   =    4.000    mass and valenz                      
   RCORE  =    1.500    outmost cutoff radius                                   
   RWIGS  =    1.630; RWIGS  =    0.863    wigner-seitz radius (au A)           
   ENMAX  =  400.000; ENMIN  =  300.000 eV                                      
   ICORE  =        2    local potential                                         
   LCOR   =        T    correct aug charges                                     
   LPAW   =        T    paw PP                                                  
   EAUG   =  644.873                                                            
   DEXC   =    0.000                                                            
   RMAX   =    1.529    core radius for proj-oper                               
   RAUG   =    1.300    factor for augmentation sphere                          
   RDEP   =    1.501    radius for radial grids                                 
   RDEPT  =    1.300    core radius for aug-charge                              
                                                                                
   Atomic configuration                                                         
    4 entries                                                                   
     n  l   j            E        occ.                                          
     1  0  0.50      -273.3789   2.0000                                         
     2  0  0.50       -13.7508   2.0000                                         
     2  1  0.50        -5.2854   2.0000                                         
     3  2  1.50        -5.4423   0.0000                                         
   Description                                                                  
     l       E           TYP  RCUT    TYP  RCUT                                 
     0    -13.7508458     23  1.200                                             
     0     -8.2022199     23  1.200                                             
     1     -5.2854383     23  1.500                                             
     1     34.0145650     23  1.500                                             
     2     -5.4423304      7  1.500                                             
  local pseudopotential read in
  partial core-charges read in
  partial kinetic energy density read in
  atomic valenz-charges read in
  non local Contribution for L=           0  read in
    real space projection operators read in
  non local Contribution for L=           0  read in
    real space projection operators read in
  non local Contribution for L=           1  read in
    real space projection operators read in
  non local Contribution for L=           1  read in
    real space projection operators read in
    PAW grid and wavefunctions read in
 
   number of l-projection  operators is LMAX  =           4
   number of lm-projection operators is LMMAX =           8
 
 POTCAR:    PAW_PBE F 08Apr2002                   
   VRHFIN =F: s2p5                                                              
   LEXCH  = PE                                                                  
   EATOM  =   659.6475 eV,   48.4827 Ry                                         
                                                                                
   TITEL  = PAW_PBE F 08Apr2002                                                 
   LULTRA =        F    use ultrasoft PP ?                                      
   IUNSCR =        1    unscreen: 0-lin 1-nonlin 2-no                           
   RPACOR =    1.200    partial core radius                                     
   POMASS =   18.998; ZVAL   =    7.000    mass and valenz                      
   RCORE  =    1.520    outmost cutoff radius                                   
   RWIGS  =    1.500; RWIGS  =    0.794    wigner-seitz radius (au A)           
   ENMAX  =  400.000; ENMIN  =  300.000 eV                                      
   ICORE  =        2    local potential                                         
   LCOR   =        T    correct aug charges                                     
   LPAW   =        T    paw PP                                                  
   EAUG   =  613.614                                                            
   RMAX   =    1.555    core radius for proj-oper                               
   RAUG   =    1.300    factor for augmentation sphere                          
   RDEP   =    1.539    radius for radial grids                                 
   RDEPT  =    1.299    core radius for aug-charge                              
                                                                                
   Atomic configuration                                                         
    4 entries                                                                   
     n  l   j            E        occ.                                          
     1  0  0.50      -663.3661   2.0000                                         
     2  0  0.50       -29.8995   2.0000                                         
     2  1  0.50       -11.1114   5.0000                                         
     3  2  1.50       -10.8847   0.0000                                         
   Description                                                                  
     l       E           TYP  RCUT    TYP  RCUT                                 
     0    -29.8995018     23  1.200                                             
     0     -9.5240782     23  1.200                                             
     1    -11.1113914     23  1.520                                             
     1      1.3605826     23  1.520                                             
     2    -10.8846608      7  1.500                                             
  local pseudopotential read in
  partial core-charges read in
  partial kinetic energy density read in
  atomic valenz-charges read in
  non local Contribution for L=           0  read in
    real space projection operators read in
  non local Contribution for L=           0  read in
    real space projection operators read in
  non local Contribution for L=           1  read in
    real space projection operators read in
  non local Contribution for L=           1  read in
    real space projection operators read in
    PAW grid and wavefunctions read in
 
   number of l-projection  operators is LMAX  =           4
   number of lm-projection operators is LMMAX =           8
 
 POTCAR:    PAW_PBE O 08Apr2002                   
   VRHFIN =O: s2p4                                                              
   LEXCH  = PE                                                                  
   EATOM  =   432.3788 eV,   31.7789 Ry                                         
                                                                                
   TITEL  = PAW_PBE O 08Apr2002                                                 
   LULTRA =        F    use ultrasoft PP ?                                      
   IUNSCR =        1    unscreen: 0-lin 1-nonlin 2-no                           
   RPACOR =    1.200    partial core radius                                     
   POMASS =   16.000; ZVAL   =    6.000    mass and valenz                      
   RCORE  =    1.520    outmost cutoff radius                                   
   RWIGS  =    1.550; RWIGS  =    0.820    wigner-seitz radius (au A)           
   ENMAX  =  400.000; ENMIN  =  300.000 eV                                      
   ICORE  =        2    local potential                                         
   LCOR   =        T    correct aug charges                                     
   LPAW   =        T    paw PP                                                  
   EAUG   =  605.392                                                            
   DEXC   =    0.000                                                            
   RMAX   =    1.553    core radius for proj-oper                               
   RAUG   =    1.300    factor for augmentation sphere                          
   RDEP   =    1.550    radius for radial grids                                 
   RDEPT  =    1.329    core radius for aug-charge                              
                                                                                
   Atomic configuration                                                         
    4 entries                                                                   
     n  l   j            E        occ.                                          
     1  0  0.50      -514.6923   2.0000                                         
     2  0  0.50       -23.9615   2.0000                                         
     2  1  0.50        -9.0305   4.0000                                         
     3  2  1.50        -9.5241   0.0000                                         
   Description                                                                  
     l       E           TYP  RCUT    TYP  RCUT                                 
     0    -23.9615318     23  1.200                                             
     0     -9.5240782     23  1.200                                             
     1     -9.0304911     23  1.520                                             
     1      8.1634956     23  1.520                                             
     2     -9.5240782      7  1.500                                             
  local pseudopotential read in
  partial core-charges read in
  partial kinetic energy density read in
  kinetic energy density of atom read in
  atomic valenz-charges read in
  non local Contribution for L=           0  read in
    real space projection operators read in
  non local Contribution for L=           0  read in
    real space projection operators read in
  non local Contribution for L=           1  read in
    real space projection operators read in
  non local Contribution for L=           1  read in
    real space projection operators read in
    PAW grid and wavefunctions read in
 
   number of l-projection  operators is LMAX  =           4
   number of lm-projection operators is LMMAX =           8
 
 Optimization of the real space projectors (new method)

 maximal supplied QI-value         = 22.11
 optimisation between [QCUT,QGAM] = [ 11.94, 23.88] = [ 39.92,159.67] Ry 
 Optimized for a Real-space Cutoff    1.18 Angstroem

   l    n(q)    QCUT    max X(q) W(low)/X(q) W(high)/X(q)  e(spline) 
   0      8    11.939    53.033    0.11E-03    0.34E-03    0.60E-07
   0      8    11.939    34.740    0.11E-03    0.34E-03    0.59E-07
   1      8    11.939    30.949    0.22E-03    0.20E-03    0.17E-06
   1      8    11.939    19.518    0.20E-03    0.18E-03    0.16E-06
 Optimization of the real space projectors (new method)

 maximal supplied QI-value         = 25.13
 optimisation between [QCUT,QGAM] = [ 11.81, 23.88] = [ 39.08,159.64] Ry 
 Optimized for a Real-space Cutoff    1.41 Angstroem

   l    n(q)    QCUT    max X(q) W(low)/X(q) W(high)/X(q)  e(spline) 
   0     10    11.813    79.467    0.48E-04    0.30E-04    0.67E-06
   0     10    11.813    66.151    0.47E-04    0.30E-04    0.67E-06
   1     10    11.813    20.169    0.11E-03    0.17E-03    0.11E-05
   1     10    11.813    14.454    0.11E-03    0.17E-03    0.11E-05
 Optimization of the real space projectors (new method)

 maximal supplied QI-value         = 25.13
 optimisation between [QCUT,QGAM] = [ 11.81, 23.88] = [ 39.08,159.64] Ry 
 Optimized for a Real-space Cutoff    1.18 Angstroem

   l    n(q)    QCUT    max X(q) W(low)/X(q) W(high)/X(q)  e(spline) 
   0      8    11.813   115.676    0.10E-03    0.16E-03    0.35E-06
   0      8    11.813    87.132    0.10E-03    0.16E-03    0.35E-06
   1      8    11.813     4.429    0.16E-03    0.13E-04    0.22E-06
   1      8    11.813     2.733    0.13E-03    0.10E-04    0.18E-06
 Optimization of the real space projectors (new method)

 maximal supplied QI-value         = 24.76
 optimisation between [QCUT,QGAM] = [ 11.88, 24.01] = [ 39.54,161.47] Ry 
 Optimized for a Real-space Cutoff    1.18 Angstroem

   l    n(q)    QCUT    max X(q) W(low)/X(q) W(high)/X(q)  e(spline) 
   0      8    11.883    14.049    0.56E-04    0.86E-04    0.22E-06
   0      8    11.883     8.945    0.81E-04    0.11E-03    0.30E-06
   1      8    11.883     7.086    0.16E-03    0.15E-04    0.31E-06
   1      8    11.883     6.747    0.15E-03    0.14E-04    0.28E-06
 Optimization of the real space projectors (new method)

 maximal supplied QI-value         = 24.76
 optimisation between [QCUT,QGAM] = [ 11.88, 24.01] = [ 39.54,161.47] Ry 
 Optimized for a Real-space Cutoff    1.18 Angstroem

   l    n(q)    QCUT    max X(q) W(low)/X(q) W(high)/X(q)  e(spline) 
   0      8    11.883    20.381    0.86E-04    0.11E-03    0.31E-06
   0      8    11.883    15.268    0.94E-04    0.12E-03    0.33E-06
   1      8    11.883     5.964    0.19E-03    0.18E-04    0.33E-06
   1      8    11.883     5.382    0.17E-03    0.20E-04    0.29E-06
  PAW_PBE B 06Sep2000                   :
 energy of atom  1       EATOM=  -71.1703
 kinetic energy error for atom=    0.0009 (will be added to EATOM!!)
  PAW_PBE N 08Apr2002                   :
 energy of atom  2       EATOM= -264.5486
 kinetic energy error for atom=    0.0116 (will be added to EATOM!!)
  PAW_PBE C 08Apr2002                   :
 energy of atom  3       EATOM= -147.1560
 kinetic energy error for atom=    0.0066 (will be added to EATOM!!)
  PAW_PBE F 08Apr2002                   :
 energy of atom  4       EATOM= -659.6475
 kinetic energy error for atom=    0.0296 (will be added to EATOM!!)
  PAW_PBE O 08Apr2002                   :
 energy of atom  5       EATOM= -432.3788
 kinetic energy error for atom=    0.0194 (will be added to EATOM!!)
 
 
 POSCAR: B N C F O                               
  positions in direct lattice
  velocities in cartesian coordinates

 METAGGA = SCAN     LMAXTAU =  6    LMIXTAU =  F

 exchange correlation table for  LEXCH =        8
   RHO(1)=    0.500       N(1)  =     2000
   RHO(2)=  100.500       N(2)  =     4000
 


--------------------------------------------------------------------------------------------------------


 ion  position               nearest neighbor table
   1  0.109  0.052  0.495-  42 1.45  37 1.45  43 1.45
   2  0.109  0.219  0.495-  44 1.45  38 1.45  37 1.45
   3  0.109  0.385  0.495-  45 1.45  39 1.45  38 1.45
   4  0.109  0.552  0.495-  46 1.45  39 1.45  40 1.45
   5  0.109  0.718  0.495-  47 1.45  40 1.45  41 1.45
   6  0.109  0.885  0.495-  48 1.45  41 1.45  42 1.45
   7  0.276  0.052  0.495-  48 1.45  43 1.45  49 1.45
   8  0.276  0.219  0.495-  44 1.45  50 1.45  43 1.45
   9  0.276  0.385  0.495-  51 1.45  45 1.45  44 1.45
  10  0.276  0.552  0.495-  52 1.45  46 1.45  45 1.45
  11  0.276  0.718  0.495-  53 1.45  46 1.45  47 1.45
  12  0.276  0.885  0.495-  47 1.45  54 1.45  48 1.45
  13  0.443  0.052  0.495-  54 1.45  55 1.45  49 1.45
  14  0.443  0.219  0.495-  56 1.45  50 1.45  49 1.45
  15  0.443  0.385  0.495-  51 1.45  57 1.45  50 1.45
  16  0.443  0.552  0.494-  52 1.45  58 1.45  51 1.45
  17  0.443  0.718  0.495-  52 1.45  59 1.45  53 1.45
  18  0.443  0.885  0.495-  53 1.45  60 1.45  54 1.45
  19  0.609  0.052  0.495-  60 1.45  61 1.45  55 1.45
  20  0.609  0.218  0.495-  56 1.45  55 1.45  62 1.45
  21  0.609  0.385  0.495-  57 1.45  56 1.45  63 1.45
  22  0.609  0.552  0.495-  58 1.45  57 1.45  64 1.45
  23  0.609  0.718  0.495-  59 1.45  58 1.45  65 1.45
  24  0.609  0.885  0.495-  59 1.45  60 1.45  66 1.45
  25  0.776  0.052  0.495-  66 1.45  67 1.45  61 1.45
  26  0.776  0.218  0.495-  61 1.45  68 1.45  62 1.45
  27  0.776  0.385  0.495-  63 1.45  62 1.45  69 1.45
  28  0.776  0.552  0.495-  64 1.45  63 1.45  70 1.45
  29  0.776  0.718  0.495-  65 1.45  64 1.45  71 1.45
  30  0.776  0.885  0.495-  65 1.45  66 1.45  72 1.45
  31  0.943  0.052  0.495-  72 1.45  37 1.45  67 1.45
  32  0.943  0.218  0.495-  38 1.45  67 1.45  68 1.45
  33  0.943  0.385  0.495-  39 1.45  68 1.45  69 1.45
  34  0.943  0.552  0.495-  40 1.45  70 1.45  69 1.45
  35  0.943  0.718  0.495-  70 1.45  71 1.45  41 1.45
  36  0.943  0.885  0.495-  71 1.45  72 1.45  42 1.45
  37  0.054  0.107  0.495-   1 1.45  31 1.45   2 1.45
  38  0.054  0.274  0.495-  32 1.45   2 1.45   3 1.45
  39  0.054  0.441  0.495-  33 1.45   3 1.45   4 1.45
  40  0.054  0.607  0.495-  34 1.45   5 1.45   4 1.45
  41  0.054  0.774  0.495-   6 1.45  35 1.45   5 1.45
  42  0.054  0.941  0.495-   1 1.45   6 1.45  36 1.45
  43  0.220  0.107  0.495-   7 1.45   1 1.45   8 1.45
  44  0.220  0.274  0.495-   8 1.45   2 1.45   9 1.45
  45  0.220  0.441  0.495-   3 1.45   9 1.45  10 1.45
  46  0.220  0.607  0.495-   4 1.45  11 1.45  10 1.45
  47  0.220  0.774  0.495-   5 1.45  12 1.45  11 1.45
  48  0.220  0.941  0.495-   6 1.45   7 1.45  12 1.45
  49  0.387  0.107  0.495-  14 1.45   7 1.45  13 1.45
  50  0.387  0.274  0.495-  14 1.45   8 1.45  15 1.45
  51  0.387  0.441  0.494-  15 1.45   9 1.45  16 1.45
  52  0.387  0.607  0.495-  10 1.45  16 1.45  17 1.45
  53  0.387  0.774  0.495-  18 1.45  11 1.45  17 1.45
  54  0.387  0.941  0.495-  13 1.45  12 1.45  18 1.45
  55  0.554  0.107  0.495-  13 1.45  20 1.45  19 1.45
  56  0.554  0.274  0.495-  20 1.45  14 1.45  21 1.45
  57  0.554  0.441  0.495-  22 1.45  21 1.45  15 1.45
  58  0.554  0.607  0.494-  22 1.45  23 1.45  16 1.45
  59  0.554  0.774  0.495-  24 1.45  23 1.45  17 1.45
  60  0.554  0.941  0.495-  19 1.45  18 1.45  24 1.45
  61  0.720  0.107  0.495-  26 1.45  19 1.45  25 1.45
  62  0.720  0.274  0.495-  27 1.45  20 1.45  26 1.45
  63  0.720  0.441  0.495-  27 1.45  28 1.45  21 1.45
  64  0.720  0.607  0.495-  28 1.45  29 1.45  22 1.45
  65  0.720  0.774  0.495-  29 1.45  30 1.45  23 1.45
  66  0.720  0.941  0.495-  25 1.45  30 1.45  24 1.45
  67  0.887  0.107  0.495-  32 1.45  31 1.45  25 1.45
  68  0.887  0.274  0.495-  33 1.45  26 1.45  32 1.45
  69  0.887  0.441  0.495-  27 1.45  34 1.45  33 1.45
  70  0.887  0.607  0.495-  35 1.45  34 1.45  28 1.45
  71  0.887  0.774  0.495-  36 1.45  35 1.45  29 1.45
  72  0.887  0.941  0.495-  31 1.45  36 1.45  30 1.45
  73  0.601  0.426  0.605-  78 1.34  79 1.34  86 1.34  74 1.55
  74  0.542  0.466  0.629-  80 1.36  81 1.36  75 1.55  73 1.55
  75  0.498  0.524  0.607-  82 1.36  83 1.36  76 1.54  74 1.55
  76  0.455  0.580  0.631-  85 1.37  84 1.37  75 1.54  77 1.57
  77  0.393  0.617  0.606-  87 1.24  88 1.24  76 1.57
  78  0.685  0.502  0.589-  73 1.34
  79  0.541  0.362  0.578-  73 1.34
  80  0.464  0.384  0.647-  74 1.36
  81  0.608  0.529  0.656-  74 1.36
  82  0.574  0.594  0.584-  75 1.36
  83  0.423  0.454  0.584-  75 1.36
  84  0.396  0.514  0.659-  76 1.37
  85  0.536  0.660  0.648-  76 1.37
  86  0.631  0.375  0.629-  73 1.34
  87  0.446  0.703  0.592-  77 1.24
  88  0.299  0.556  0.605-  77 1.24
 
  LATTYP: Found a hexagonal cell.
 ALAT       =    15.0731507304
 C/A-ratio  =     2.3296167479
  
  Lattice vectors:
  
 A1 = (   7.5365500567, -13.0537460594,   0.0000000000)
 A2 = (   7.5365500567,  13.0537460594,   0.0000000000)
 A3 = (   0.0000000000,   0.0000000000,  35.1146643856)


Analysis of symmetry for initial positions (statically):
=====================================================================
 Subroutine PRICEL returns:
 Original cell was already a primitive cell.
 

 Routine SETGRP: Setting up the symmetry group for a 
 hexagonal supercell.


 Subroutine GETGRP returns: Found  1 space group operations
 (whereof  1 operations were pure point group operations)
 out of a pool of 24 trial point group operations.


The static configuration has the point symmetry C_1 .


Analysis of symmetry for dynamics (positions and initial velocities):
=====================================================================
 Subroutine PRICEL returns:
 Original cell was already a primitive cell.
 

 Routine SETGRP: Setting up the symmetry group for a 
 hexagonal supercell.


 Subroutine GETGRP returns: Found  1 space group operations
 (whereof  1 operations were pure point group operations)
 out of a pool of 24 trial point group operations.


The dynamic configuration has the point symmetry C_1 .


Analysis of constrained symmetry for selective dynamics:
=====================================================================
 Subroutine PRICEL returns:
 Original cell was already a primitive cell.
 

 Routine SETGRP: Setting up the symmetry group for a 
 hexagonal supercell.


 Subroutine GETGRP returns: Found  1 space group operations
 (whereof  1 operations were pure point group operations)
 out of a pool of 24 trial point group operations.


The constrained configuration has the point symmetry C_1 .


Analysis of structural, dynamic, and magnetic symmetry:
=====================================================================
 Subroutine PRICEL returns:
 Original cell was already a primitive cell.
 

 Routine SETGRP: Setting up the symmetry group for a 
 hexagonal supercell.


 Subroutine GETGRP returns: Found  1 space group operations
 (whereof  1 operations were pure point group operations)
 out of a pool of 24 trial point group operations.


The magnetic configuration has the point symmetry C_1 .


 Subroutine INISYM returns: Found  1 space group operations
 (whereof  1 operations are pure point group operations),
 and found     1 'primitive' translations

 
 
 KPOINTS: K-Point Grid                            

Automatic generation of k-mesh.
Space group operators:
 irot       det(A)        alpha          n_x          n_y          n_z        tau_x        tau_y        tau_z
    1     1.000000     0.000000     1.000000     0.000000     0.000000     0.000000     0.000000     0.000000
 
 Subroutine IBZKPT returns following result:
 ===========================================
 
 Found      5 irreducible k-points:
 
 Following reciprocal coordinates:
            Coordinates               Weight
  0.000000  0.000000  0.000000      1.000000
  0.333333  0.000000  0.000000      2.000000
  0.000000  0.333333  0.000000      2.000000
  0.333333  0.333333  0.000000      2.000000
 -0.333333  0.333333  0.000000      2.000000
 
 Following cartesian coordinates:
            Coordinates               Weight
  0.000000  0.000000  0.000000      1.000000
  0.022114 -0.012768  0.000000      2.000000
  0.022114  0.012768  0.000000      2.000000
  0.044229  0.000000  0.000000      2.000000
  0.000000  0.025535  0.000000      2.000000
 


--------------------------------------------------------------------------------------------------------




 Dimension of arrays:
   k-points           NKPTS =      5   k-points in BZ     NKDIM =      5   number of bands    NBANDS=    284
   number of dos      NEDOS =   1200   number of ions     NIONS =     88
   non local maximal  LDIM  =      4   non local SUM 2l+1 LMDIM =      8
   total plane-waves  NPLWV = ******
   max r-space proj   IRMAX =   6598   max aug-charges    IRDMAX=   8974
   dimension x,y,z NGX =   120 NGY =  120 NGZ =  270
   dimension x,y,z NGXF=   240 NGYF=  240 NGZF=  540
   support grid    NGXF=   240 NGYF=  240 NGZF=  540
   ions per type =              36  36   5   9   2
   NGX,Y,Z   is equivalent  to a cutoff of  13.24, 13.24, 12.78 a.u.
   NGXF,Y,Z  is equivalent  to a cutoff of  26.47, 26.47, 25.57 a.u.

 SYSTEM =  SiC                                     
 POSCAR =  B N C F O                               

 Startparameter for this run:
   NWRITE =      2    write-flag & timer
   PREC   = accura    normal or accurate (medium, high low for compatibility)
   ISTART =      1    job   : 0-new  1-cont  2-samecut
   ICHARG =      0    charge: 1-file 2-atom 10-const
   ISPIN  =      2    spin polarized calculation?
   LNONCOLLINEAR =      F non collinear calculations
   LSORBIT =      F    spin-orbit coupling
   INIWAV =      1    electr: 0-lowe 1-rand  2-diag
   LASPH  =      T    aspherical Exc in radial PAW
   METAGGA=      F    non-selfconsistent MetaGGA calc.

 Electronic Relaxation 1
   ENCUT  =  550.0 eV  40.42 Ry    6.36 a.u.  28.82 28.82 67.15*2*pi/ulx,y,z
   ENINI  =  550.0     initial cutoff
   ENAUG  =  644.9 eV  augmentation charge cutoff
   NELM   =    100;   NELMIN=  2; NELMDL=  0     # of ELM steps 
   EDIFF  = 0.1E-04   stopping-criterion for ELM
   LREAL  =      T    real-space projection
   NLSPLINE    = F    spline interpolate recip. space projectors
   LCOMPAT=      F    compatible to vasp.4.4
   GGA_COMPAT  = T    GGA compatible to vasp.4.4-vasp.4.6
   LMAXPAW     = -100 max onsite density
   LMAXMIX     =    2 max onsite mixed and CHGCAR
   VOSKOWN=      0    Vosko Wilk Nusair interpolation
   ROPT   =   -0.00025  -0.00025  -0.00025  -0.00025
   ROPT   =   -0.00025
 Ionic relaxation
   EDIFFG = -.2E-01   stopping-criterion for IOM
   NSW    =    500    number of steps for IOM
   NBLOCK =      1;   KBLOCK =    500    inner block; outer block 
   IBRION =      2    ionic relax: 0-MD 1-quasi-New 2-CG
   NFREE  =      1    steps in history (QN), initial steepest desc. (CG)
   ISIF   =      2    stress and relaxation
   IWAVPR =     11    prediction:  0-non 1-charg 2-wave 3-comb
   ISYM   =      2    0-nonsym 1-usesym 2-fastsym
   LCORR  =      T    Harris-Foulkes like correction to forces

   POTIM  = 0.5000    time-step for ionic-motion
   TEIN   =    0.0    initial temperature
   TEBEG  =    0.0;   TEEND  =   0.0 temperature during run
   SMASS  =  -3.00    Nose mass-parameter (am)
   estimated Nose-frequenzy (Omega)   =  0.10E-29 period in steps =****** mass=  -0.519E-26a.u.
   SCALEE = 1.0000    scale energy and forces
   NPACO  =    256;   APACO  = 16.0  distance and # of slots for P.C.
   PSTRESS=    0.0 pullay stress

  Mass of Ions in am
   POMASS =  10.81 14.00 12.01 19.00 16.00
  Ionic Valenz
   ZVAL   =   3.00  5.00  4.00  7.00  6.00
  Atomic Wigner-Seitz radii
   RWIGS  =  -1.00 -1.00 -1.00 -1.00 -1.00
  virtual crystal weights 
   VCA    =   1.00  1.00  1.00  1.00  1.00
   NELECT =     384.0000    total number of electrons
   NUPDOWN=      -1.0000    fix difference up-down

 DOS related values:
   EMIN   =  10.00;   EMAX   =-10.00  energy-range for DOS
   EFERMI =   0.00
   ISMEAR =     0;   SIGMA  =   0.05  broadening in eV -4-tet -1-fermi 0-gaus

 Electronic relaxation 2 (details)
   IALGO  =     68    algorithm
   LDIAG  =      T    sub-space diagonalisation (order eigenvalues)
   LSUBROT=      F    optimize rotation matrix (better conditioning)
   TURBO    =      0    0=normal 1=particle mesh
   IRESTART =      0    0=no restart 2=restart with 2 vectors
   NREBOOT  =      0    no. of reboots
   NMIN     =      0    reboot dimension
   EREF     =   0.00    reference energy to select bands
   IMIX   =      4    mixing-type and parameters
     AMIX     =   0.40;   BMIX     =  1.00
     AMIX_MAG =   1.60;   BMIX_MAG =  1.00
     AMIN     =   0.10
     WC   =   100.;   INIMIX=   1;  MIXPRE=   1;  MAXMIX= -45

 Intra band minimization:
   WEIMIN = 0.0010     energy-eigenvalue tresh-hold
   EBREAK =  0.88E-08  absolut break condition
   DEPER  =   0.30     relativ break condition  

   TIME   =   0.40     timestep for ELM

  volume/ion in A,a.u.               =      78.51       529.83
  Fermi-wavevector in a.u.,A,eV,Ry     =   0.624755  1.180616  5.310612  0.390319
  Thomas-Fermi vector in A             =   1.685423
 
 Write flags
   LWAVE        =      T    write WAVECAR
   LDOWNSAMPLE  =      F    k-point downsampling of WAVECAR
   LCHARG       =      F    write CHGCAR
   LVTOT        =      F    write LOCPOT, total local potential
   LVHAR        =      T    write LOCPOT, Hartree potential only
   LELF         =      F    write electronic localiz. function (ELF)
   LORBIT       =     11    0 simple, 1 ext, 2 COOP (PROOUT), +10 PAW based schemes


 Dipole corrections
   LMONO  =      F    monopole corrections only (constant potential shift)
   LDIPOL =      F    correct potential (dipole corrections)
   IDIPOL =      0    1-x, 2-y, 3-z, 4-all directions 
   EPSILON=  1.0000000 bulk dielectric constant

 Exchange correlation treatment:
   GGA     =    --    GGA type
   LEXCH   =     8    internal setting for exchange type
   VOSKOWN=      0    Vosko Wilk Nusair interpolation
   LHFCALC =     F    Hartree Fock is set to
   LHFONE  =     F    Hartree Fock one center treatment
   AEXX    =    0.0000 exact exchange contribution

 vdW DFT:
   LUSE_VDW   =     T    switch on vdW DFT
   Zab_VDW    =-.8491    correlation parameter
   PARAM1     =0.1234
   PARAM2     =1.0000
   PARAM3     =0.0000
   -- rVV10 --
   BPARAM     =15.7000
   CPARAM     = 0.0093

 Linear response parameters
   LEPSILON=     F    determine dielectric tensor
   LRPA    =     F    only Hartree local field effects (RPA)
   LNABLA  =     F    use nabla operator in PAW spheres
   LVEL    =     F    velocity operator in full k-point grid
   LINTERFAST=   F  fast interpolation
   KINTER  =     0    interpolate to denser k-point grid
   CSHIFT  =0.1000    complex shift for real part using Kramers Kronig
   OMEGAMAX=  -1.0    maximum frequency
   DEG_THRESHOLD= 0.2000000E-02 threshold for treating states as degnerate
   RTIME   =   -0.100 relaxation time in fs
  (WPLASMAI=    0.000 imaginary part of plasma frequency in eV, 0.658/RTIME)
   DFIELD  = 0.0000000 0.0000000 0.0000000 field for delta impulse in time
 
 Orbital magnetization related:
   ORBITALMAG=     F  switch on orbital magnetization
   LCHIMAG   =     F  perturbation theory with respect to B field
   DQ        =  0.001000  dq finite difference perturbation B field
   LLRAUG    =     F  two centre corrections for induced B field

 Solvation model:
   LSOL    =     T         switch on solvation model
   EB_K    = 78.400000     relative permittivity of the bulk solvent
   SIGMA_K =  0.600000     width of the dielectric cavity
   NC_K    =  0.002500     cutoff charge density
   TAU     =  0.000000     cavity surface tension
   LAMBDA_D_K    =  3.040000     Debye length in Angstroms
   LRHOB     =     F     write boundcharge  density
   LRHOION     =     F     write ioniccharge density



--------------------------------------------------------------------------------------------------------


 conjugate gradient relaxation of ions
   using selective dynamics as specified on POSCAR
 charge density and potential will be updated during run
 spin polarized calculation
 RMM-DIIS sequential band-by-band and
  variant of blocked Davidson during initial phase
 perform sub-space diagonalisation
    before iterative eigenvector-optimisation
 modified Broyden-mixing scheme, WC =      100.0
 initial mixing is a Kerker type mixing with AMIX =  0.4000 and BMIX =      1.0000
 Hartree-type preconditioning will be used
 using additional bands           92
 real space projection scheme for non local part
 use partial core corrections
 calculate Harris-corrections to forces 
   (improved forces if not selfconsistent)
 use gradient corrections 
 use of overlap-Matrix (Vanderbilt PP)
 Gauss-broadening in eV      SIGMA  =   0.05


--------------------------------------------------------------------------------------------------------


  energy-cutoff  :      550.00
  volume of cell :     6909.18
      direct lattice vectors                 reciprocal lattice vectors
     7.536550057-13.053746059  0.000000000     0.066343353 -0.038303181  0.000000000
     7.536550057 13.053746059  0.000000000     0.066343353  0.038303181  0.000000000
     0.000000000  0.000000000 35.114664386     0.000000000  0.000000000  0.028478131

  length of vectors
    15.073150730 15.073150730 35.114664386     0.076606620  0.076606620  0.028478131


 
 old parameters found on file WAVECAR:
  energy-cutoff  :      550.00
  volume of cell :     6909.18
      direct lattice vectors                 reciprocal lattice vectors
     7.536550057-13.053746059  0.000000000     0.066343353 -0.038303181  0.000000000
     7.536550057 13.053746059  0.000000000     0.066343353  0.038303181  0.000000000
     0.000000000  0.000000000 35.114664386     0.000000000  0.000000000  0.028478131

  length of vectors

 
 k-points in units of 2pi/SCALE and weight: K-Point Grid                            
   0.00000000  0.00000000  0.00000000       0.111
   0.02211445 -0.01276773  0.00000000       0.222
   0.02211445  0.01276773  0.00000000       0.222
   0.04422890  0.00000000  0.00000000       0.222
   0.00000000  0.02553545  0.00000000       0.222
 
 k-points in reciprocal lattice and weights: K-Point Grid                            
   0.00000000  0.00000000  0.00000000       0.111
   0.33333333  0.00000000  0.00000000       0.222
   0.00000000  0.33333333  0.00000000       0.222
   0.33333333  0.33333333  0.00000000       0.222
  -0.33333333  0.33333333  0.00000000       0.222
 
 position of ions in fractional coordinates (direct lattice) 
   0.10924952  0.05182303  0.49531109
   0.10926444  0.21850039  0.49528264
   0.10930207  0.38518913  0.49523679
   0.10930708  0.55185191  0.49524212
   0.10926711  0.71849739  0.49525750
   0.10925449  0.88515986  0.49528683
   0.27591768  0.05182596  0.49529879
   0.27592643  0.21851683  0.49521655
   0.27596266  0.38521626  0.49488934
   0.27601358  0.55186766  0.49507587
   0.27597170  0.71847354  0.49515972
   0.27592384  0.88515039  0.49524244
   0.44258096  0.05181157  0.49524913
   0.44259400  0.21851010  0.49511654
   0.44257379  0.38522440  0.49464537
   0.44254757  0.55185877  0.49448833
   0.44255320  0.71840662  0.49519659
   0.44255049  0.88506792  0.49518437
   0.60923173  0.05178268  0.49529861
   0.60923600  0.21849737  0.49518317
   0.60920266  0.38516562  0.49486429
   0.60917553  0.55184381  0.49461796
   0.60913376  0.71843444  0.49484034
   0.60918806  0.88505118  0.49517028
   0.77590356  0.05178958  0.49534372
   0.77590895  0.21847445  0.49533798
   0.77590181  0.38516143  0.49526614
   0.77587845  0.55182744  0.49522065
   0.77587739  0.71848216  0.49522120
   0.77588624  0.88512412  0.49528333
   0.94258014  0.05180691  0.49533968
   0.94258641  0.21847678  0.49535649
   0.94259184  0.38515156  0.49532913
   0.94258342  0.55182871  0.49531134
   0.94257125  0.71848073  0.49532505
   0.94257466  0.88514581  0.49531450
   0.05369358  0.10737584  0.49531564
   0.05368827  0.27403782  0.49529668
   0.05368632  0.44070742  0.49528226
   0.05368589  0.60738514  0.49526662
   0.05369024  0.77405264  0.49528192
   0.05369997  0.94071844  0.49529251
   0.22036633  0.10738694  0.49531859
   0.22036080  0.27403833  0.49517222
   0.22034904  0.44069256  0.49503360
   0.22034992  0.60737858  0.49512169
   0.22035821  0.77405681  0.49521274
   0.22035593  0.94072271  0.49528287
   0.38703199  0.10739744  0.49525975
   0.38705447  0.27407734  0.49508075
   0.38701322  0.44069600  0.49435147
   0.38701159  0.60733850  0.49469686
   0.38701294  0.77405718  0.49504703
   0.38702396  0.94072346  0.49521946
   0.55369281  0.10738517  0.49525982
   0.55369801  0.27405551  0.49495712
   0.55370538  0.44075689  0.49451240
   0.55367379  0.60737293  0.49428009
   0.55371246  0.77405580  0.49489805
   0.55369631  0.94071854  0.49524257
   0.72035556  0.10737477  0.49533316
   0.72035502  0.27404769  0.49528009
   0.72033310  0.44070373  0.49514570
   0.72035408  0.60738654  0.49507576
   0.72035282  0.77403559  0.49517285
   0.72036481  0.94071029  0.49527475
   0.88702481  0.10737070  0.49536875
   0.88702529  0.27403990  0.49535480
   0.88701700  0.44071147  0.49531598
   0.88701225  0.60737074  0.49533505
   0.88703017  0.77405138  0.49533116
   0.88702733  0.94070533  0.49531624
   0.60106780  0.42591594  0.60543343
   0.54225096  0.46636770  0.62926483
   0.49846328  0.52414273  0.60666535
   0.45532547  0.57979082  0.63059736
   0.39280813  0.61742547  0.60640781
   0.68471281  0.50239400  0.58915855
   0.54058480  0.36173250  0.57825587
   0.46445320  0.38375589  0.64661550
   0.60775857  0.52916045  0.65631449
   0.57420319  0.59412472  0.58393841
   0.42264334  0.45435037  0.58385788
   0.39626327  0.51386050  0.65890417
   0.53639396  0.66043678  0.64842429
   0.63052678  0.37455050  0.62858631
   0.44634437  0.70317656  0.59166669
   0.29894591  0.55630412  0.60531002
 
 position of ions in cartesian coordinates  (Angst):
   1.21393135 -0.74963073 17.39268277
   2.47021608  1.42593835 17.39168371
   3.72675767  3.60135963 17.39007350
   4.98285787  5.77686784 17.39026088
   6.23848863  7.95273742 17.39080088
   7.49445357 10.12847172 17.39183079
   2.47005632 -2.92523645 17.39225079
   3.72639637 -0.74941030 17.38936289
   4.98300803  1.42616863 17.37787303
   6.23936836  3.60092908 17.38442294
   7.49468631  5.77630661 17.38736755
   8.75049408  7.95268870 17.39027191
   3.72601409 -5.10100443 17.39050710
   4.98244417 -2.92513438 17.38585124
   6.23874244 -0.74862435 17.36930622
   7.49439317  1.42692057 17.36379181
   8.74963174  3.60092047 17.38866196
  10.00566254  5.77651016 17.38823309
   4.98176821 -7.27679833 17.39224449
   6.23825401 -5.10060280 17.38819080
   7.49410631 -2.92452260 17.37699347
   8.75008043 -0.74839374 17.36834359
  10.00528418  1.42678329 17.37615241
  11.26140877  3.60104709 17.38773828
   6.23795075 -9.45240009 17.39382855
   7.49422025 -7.27660845 17.39362695
   8.75041124 -5.10062577 17.39110424
  10.00632195 -2.92470500 17.38950699
  11.26231551 -0.74922275 17.38952627
  12.51828774  1.42596362 17.39170792
   7.49424775-11.62792759 17.39368674
   8.75041083 -9.45234321 17.39427681
  10.00660459 -7.27668375 17.39331628
  11.26271183 -5.10081269 17.39269130
  12.51860139 -2.92522081 17.39317302
  13.77470680 -0.74966166 17.39280235
   1.21390771  0.70075460 17.39284250
   2.46992409  2.87638702 17.39217658
   3.72602314  5.05207517 17.39167022
   4.98219494  7.22784943 17.39112122
   6.23832567  9.40342779 17.39165824
   7.49448412 11.57891394 17.39203016
   2.47012899 -1.47480427 17.39294597
   3.72606381  0.70069291 17.38780648
   4.98197306  2.87630837 17.38293874
   6.23821730  5.05217378 17.38603214
   7.49445861  7.22784087 17.38922914
   8.75052734  9.40348499 17.39169158
   3.72629215 -3.65027844 17.39088001
   4.98265301 -1.47477480 17.38459452
   6.23807192  0.70076141 17.35898611
   7.49396920  2.87609155 17.37111423
   8.75046310  5.05237720 17.38341038
  10.00663486  7.22785269 17.38946521
   4.98224735 -5.82598660 17.39088229
   6.23840589 -3.65038219 17.38025310
   7.49481466 -1.47440097 17.36463701
   8.75028677  0.70097495 17.35647949
  10.00679201  2.87630598 17.37817901
  11.26273237  5.05208987 17.39027663
   6.23823107 -8.00169557 17.39345761
   7.49436576 -5.82598259 17.39159402
   8.75021221 -3.65021071 17.38687495
  10.00658359 -1.47464958 17.38441933
  11.26253312  0.70076125 17.38782840
  12.51877561  2.87633399 17.39140654
   7.49431155-10.17740672 17.39470749
   8.75042593 -8.00175559 17.39421766
  10.00649208 -5.82595905 17.39285457
  11.26249219 -3.65036919 17.39352386
  12.51882431 -1.47479643 17.39338728
  13.77479870  0.70069893 17.39286366
   7.73991442 -2.28638792 21.25959177
   7.60150502 -0.99056084 22.09642342
   7.70692141  0.33521307 21.30285008
   7.80120571  1.62473907 22.14321466
   7.61367609  2.93209778 21.29380660
   8.94668990 -2.37994345 20.68810477
   6.80035947 -2.33469257 20.30526097
   6.39257027 -1.05340231 22.70568644
   8.56844709 -1.02599992 23.04626309
   8.80516177  0.26005062 20.50480113
   6.60950695  0.41389547 20.50197349
   6.85919336  1.53508441 23.13719862
   9.01997479  1.61922358 22.76920134
   7.57481521 -3.34144927 22.07259743
   8.66342206  3.35262227 20.77617719
   6.44563466  3.35948876 21.25525805
 


--------------------------------------------------------------------------------------------------------


 k-point  1 :   0.0000 0.0000 0.0000  plane waves:  202395
 k-point  2 :   0.3333 0.0000 0.0000  plane waves:  202358
 k-point  3 :   0.0000 0.3333 0.0000  plane waves:  202358
 k-point  4 :   0.3333 0.3333 0.0000  plane waves:  202335
 k-point  5 :  -0.3333 0.3333 0.0000  plane waves:  202358

 maximum and minimum number of plane-waves per node :      8479     8400

 maximum number of plane-waves:    202395
 maximum index in each direction: 
   IXMAX=   29   IYMAX=   28   IZMAX=   67
   IXMIN=  -29   IYMIN=  -29   IZMIN=  -67


 real space projection operators:
  total allocation   :      26434.75 KBytes
  max/ min on nodes  :       1120.12       1082.56


 parallel 3D FFT for wavefunctions:
    minimum data exchange during FFTs selected (reduces bandwidth)
 parallel 3D FFT for charge:
    minimum data exchange during FFTs selected (reduces bandwidth)


 total amount of memory used by VASP MPI-rank0   225284. kBytes
=======================================================================

   base      :      30000. kBytes
   nonlr-proj:      11232. kBytes
   fftplans  :      17498. kBytes
   grid      :      70152. kBytes
   one-center:         24. kBytes
   wavefun   :      96378. kBytes
 
     INWAV:  cpu time   25.8978: real time   26.7440
 Broyden mixing: mesh for mixing (old mesh)
   NGX = 57   NGY = 57   NGZ =135
  (NGX  =240   NGY  =240   NGZ  =540)
  gives a total of 438615 points

 charge density for first step will be calculated from the start-wavefunctions


--------------------------------------------------------------------------------------------------------


 Maximum index for non-local projection operator          373
 Maximum index for augmentation-charges          395 (set IRDMAX)


--------------------------------------------------------------------------------------------------------


 initial charge from wavefunction
 First call to EWALD:  gamma=   0.093
 Maximum number of real-space cells 4x 4x 2
 Maximum number of reciprocal cells 2x 2x 5

    FEWALD:  cpu time    0.0033: real time    0.0884


--------------------------------------- Iteration      1(   1)  ---------------------------------------


    POTLOK:  cpu time   34.2905: real time   34.7561
    SETDIJ:  cpu time    0.5262: real time    0.5534
     EDDAV:  cpu time  158.8847: real time  159.5081
       DOS:  cpu time    0.0642: real time    0.0638
    CHARGE:  cpu time   31.7340: real time   31.7944
    MIXING:  cpu time    0.0456: real time    0.0461
    --------------------------------------------
      LOOP:  cpu time  225.5453: real time  226.7220

 eigenvalue-minimisations  :  5808
 total energy-change (2. order) :-0.8196524E+03  (-0.2360583E-02)
 number of electron     384.0000014 magnetization      -0.0000000
 augmentation part       21.3649565 magnetization       0.0000010

 Broyden mixing:
  rms(total) = 0.61575E-02    rms(broyden)= 0.61091E-02
  rms(prec ) = 0.61433E-02
  weight for this iteration     100.00

 Free energy of the ion-electron system (eV)
  ---------------------------------------------------
  alpha Z        PSCENC =       109.54361013
  Ewald energy   TEWEN  =    134510.84665914
  -Hartree energ DENC   =   -152020.92756818
  -exchange      EXHF   =         0.00000000
  -V(xc)+E(xc)   XCENC  =      1805.93172502
  PAW double counting   =     43883.44505402   -44076.59556323
  entropy T*S    EENTRO =        -0.00000000
  eigenvalues    EBANDS =     -5575.06533182
  atomic energy  EATOM  =     19622.45497051
  Solvation  Ediel_sol  =       920.71402893
  ---------------------------------------------------
  free energy    TOTEN  =      -819.65241548 eV

  energy without entropy =     -819.65241548  energy(sigma->0) =     -819.65241548


--------------------------------------------------------------------------------------------------------




--------------------------------------- Iteration      1(   2)  ---------------------------------------


    POTLOK:  cpu time   26.3938: real time   26.4507
    SETDIJ:  cpu time    0.4325: real time    0.4335
    EDDIAG:  cpu time   36.7156: real time   36.7695
  RMM-DIIS:  cpu time  209.2299: real time  209.6219
    ORTHCH:  cpu time    0.8883: real time    0.8903
       DOS:  cpu time    0.0021: real time    0.0021
    CHARGE:  cpu time   31.8421: real time   31.9014
    MIXING:  cpu time    0.0308: real time    0.0321
    --------------------------------------------
      LOOP:  cpu time  305.5351: real time  306.1015

 eigenvalue-minimisations  :  5680
 total energy-change (2. order) :-0.6382023E-05  (-0.3138882E-04)
 number of electron     384.0000014 magnetization      -0.0000000
 augmentation part       21.3649715 magnetization       0.0000014

 Broyden mixing:
  rms(total) = 0.41001E-02    rms(broyden)= 0.40953E-02
  rms(prec ) = 0.41169E-02
  weight for this iteration     100.00

 eigenvalues of (default mixing * dielectric matrix)
  average eigenvalue GAMMA=   2.6635
  2.6635

 Free energy of the ion-electron system (eV)
  ---------------------------------------------------
  alpha Z        PSCENC =       109.54361013
  Ewald energy   TEWEN  =    134510.84665914
  -Hartree energ DENC   =   -152020.96605816
  -exchange      EXHF   =         0.00000000
  -V(xc)+E(xc)   XCENC  =      1805.92415935
  PAW double counting   =     43872.40334276   -44065.55840292
  entropy T*S    EENTRO =        -0.00000000
  eigenvalues    EBANDS =     -5574.98840025
  atomic energy  EATOM  =     19622.45497051
  Solvation  Ediel_sol  =       920.68769757
  ---------------------------------------------------
  free energy    TOTEN  =      -819.65242186 eV

  energy without entropy =     -819.65242186  energy(sigma->0) =     -819.65242186


--------------------------------------------------------------------------------------------------------




--------------------------------------- Iteration      1(   3)  ---------------------------------------


    POTLOK:  cpu time   26.9480: real time   27.0082
    SETDIJ:  cpu time    0.4329: real time    0.4339
    EDDIAG:  cpu time   36.6129: real time   36.6655
  RMM-DIIS:  cpu time  206.0641: real time  206.4495
    ORTHCH:  cpu time    0.8869: real time    0.8888
       DOS:  cpu time    0.0021: real time    0.0021
    CHARGE:  cpu time   31.7060: real time   31.7643
    MIXING:  cpu time    0.0161: real time    0.0162
    --------------------------------------------
      LOOP:  cpu time  302.6689: real time  303.2285

 eigenvalue-minimisations  :  5557
 total energy-change (2. order) :-0.7808503E-04  (-0.1415635E-04)
 number of electron     384.0000014 magnetization      -0.0000000
 augmentation part       21.3652413 magnetization       0.0000004

 Broyden mixing:
  rms(total) = 0.62276E-03    rms(broyden)= 0.62006E-03
  rms(prec ) = 0.63656E-03
  weight for this iteration     100.00

 eigenvalues of (default mixing * dielectric matrix)
  average eigenvalue GAMMA=   1.7930
  1.0443  2.5416

 Free energy of the ion-electron system (eV)
  ---------------------------------------------------
  alpha Z        PSCENC =       109.54361013
  Ewald energy   TEWEN  =    134510.84665914
  -Hartree energ DENC   =   -152021.09906945
  -exchange      EXHF   =         0.00000000
  -V(xc)+E(xc)   XCENC  =      1805.93020647
  PAW double counting   =     43853.54064698   -44046.70336050
  entropy T*S    EENTRO =        -0.00000000
  eigenvalues    EBANDS =     -5574.79998068
  atomic energy  EATOM  =     19622.45497051
  Solvation  Ediel_sol  =       920.63381745
  ---------------------------------------------------
  free energy    TOTEN  =      -819.65249994 eV

  energy without entropy =     -819.65249994  energy(sigma->0) =     -819.65249994


--------------------------------------------------------------------------------------------------------




--------------------------------------- Iteration      1(   4)  ---------------------------------------


    POTLOK:  cpu time   25.0662: real time   25.1217
    SETDIJ:  cpu time    0.4282: real time    0.4291
    EDDIAG:  cpu time   36.6832: real time   36.7326
  RMM-DIIS:  cpu time  165.6523: real time  165.9632
    ORTHCH:  cpu time    0.8777: real time    0.8796
       DOS:  cpu time    0.0021: real time    0.0021
    --------------------------------------------
      LOOP:  cpu time  228.7095: real time  229.1282

 eigenvalue-minimisations  :  3959
 total energy-change (2. order) :-0.8812945E-05  (-0.1498146E-05)
 number of electron     384.0000014 magnetization      -0.0000000
 augmentation part       21.3652413 magnetization       0.0000004

 Free energy of the ion-electron system (eV)
  ---------------------------------------------------
  alpha Z        PSCENC =       109.54361013
  Ewald energy   TEWEN  =    134510.84665914
  -Hartree energ DENC   =   -152021.16328642
  -exchange      EXHF   =         0.00000000
  -V(xc)+E(xc)   XCENC  =      1805.93525358
  PAW double counting   =     43854.80550823   -44047.96808690
  entropy T*S    EENTRO =        -0.00000000
  eigenvalues    EBANDS =     -5574.74134803
  atomic energy  EATOM  =     19622.45497051
  Solvation  Ediel_sol  =       920.63421099
  ---------------------------------------------------
  free energy    TOTEN  =      -819.65250876 eV

  energy without entropy =     -819.65250876  energy(sigma->0) =     -819.65250876


--------------------------------------------------------------------------------------------------------




 average (electrostatic) potential at core
  the test charge radii are     0.7672  0.7089  0.6991  0.7167  0.7215
  (the norm of the test charge is              1.0000)
       1 -38.5319       2 -38.5251       3 -38.5124       4 -38.5109       5 -38.5229
       6 -38.5311       7 -38.5306       8 -38.5250       9 -38.4968      10 -38.4739
      11 -38.4913      12 -38.5212      13 -38.5261      14 -38.5253      15 -38.5021
      16 -38.4615      17 -38.4599      18 -38.5008      19 -38.5232      20 -38.5287
      21 -38.5209      22 -38.4973      23 -38.4825      24 -38.4986      25 -38.5265
      26 -38.5321      27 -38.5321      28 -38.5265      29 -38.5196      30 -38.5198
      31 -38.5309      32 -38.5293      33 -38.5282      34 -38.5296      35 -38.5313
      36 -38.5306      37 -76.1008      38 -76.0935      39 -76.0883      40 -76.0926
      41 -76.0998      42 -76.1026      43 -76.1007      44 -76.0883      45 -76.0587
      46 -76.0548      47 -76.0839      48 -76.0995      49 -76.1000      50 -76.0922
      51 -76.0401      52 -76.0014      53 -76.0348      54 -76.0880      55 -76.0974
      56 -76.0875      57 -76.0676      58 -76.0312      59 -76.0269      60 -76.0796
      61 -76.0985      62 -76.1030      63 -76.0983      64 -76.0865      65 -76.0812
      66 -76.0872      67 -76.1005      68 -76.1010      69 -76.1013      70 -76.1028
      71 -76.0993      72 -76.0990      73 -67.7924      74 -66.5018      75 -66.1824
      76 -65.2389      77 -63.2919      78 -92.1826      79 -92.1971      80 -91.9988
      81 -92.0297      82 -91.7962      83 -91.7828      84 -91.1704      85 -91.1491
      86 -92.1360      87 -83.2469      88 -83.2609
 
 
 
 E-fermi :  -5.8551     XC(G=0):  -1.4700     alpha+bet : -1.2100


 spin component 1

 k-point     1 :       0.0000    0.0000    0.0000
  band No.  band energies     occupation 
      1     -35.9824      1.00000
      2     -34.9540      1.00000
      3     -34.5318      1.00000
      4     -33.8291      1.00000
      5     -33.6641      1.00000
      6     -33.5262      1.00000
      7     -33.3067      1.00000
      8     -33.0154      1.00000
      9     -32.3085      1.00000
     10     -27.6924      1.00000
     11     -25.5235      1.00000
     12     -24.7496      1.00000
     13     -24.2180      1.00000
     14     -24.2135      1.00000
     15     -24.2128      1.00000
     16     -24.1990      1.00000
     17     -24.1977      1.00000
     18     -24.1793      1.00000
     19     -23.1934      1.00000
     20     -23.1923      1.00000
     21     -23.1920      1.00000
     22     -23.1880      1.00000
     23     -23.1877      1.00000
     24     -23.1850      1.00000
     25     -22.7528      1.00000
     26     -22.7508      1.00000
     27     -22.7504      1.00000
     28     -22.7481      1.00000
     29     -22.7475      1.00000
     30     -22.7461      1.00000
     31     -21.9274      1.00000
     32     -21.7037      1.00000
     33     -21.7027      1.00000
     34     -21.7000      1.00000
     35     -21.6990      1.00000
     36     -21.6985      1.00000
     37     -21.6974      1.00000
     38     -21.6868      1.00000
     39     -21.6849      1.00000
     40     -21.6846      1.00000
     41     -21.6832      1.00000
     42     -21.6735      1.00000
     43     -21.6722      1.00000
     44     -21.5996      1.00000
     45     -21.5988      1.00000
     46     -21.5969      1.00000
     47     -21.0234      1.00000
     48     -21.0230      1.00000
     49     -20.5709      1.00000
     50     -18.7766      1.00000
     51     -17.6344      1.00000
     52     -16.5938      1.00000
     53     -16.3631      1.00000
     54     -16.3436      1.00000
     55     -15.7143      1.00000
     56     -15.6352      1.00000
     57     -15.3074      1.00000
     58     -15.3047      1.00000
     59     -15.3042      1.00000
     60     -15.2929      1.00000
     61     -15.0292      1.00000
     62     -14.8350      1.00000
     63     -14.4608      1.00000
     64     -14.4595      1.00000
     65     -14.4593      1.00000
     66     -14.4583      1.00000
     67     -14.4535      1.00000
     68     -14.4523      1.00000
     69     -14.4516      1.00000
     70     -14.4483      1.00000
     71     -14.4429      1.00000
     72     -14.4413      1.00000
     73     -14.4365      1.00000
     74     -14.4351      1.00000
     75     -14.3067      1.00000
     76     -14.1881      1.00000
     77     -14.1879      1.00000
     78     -13.5817      1.00000
     79     -13.5807      1.00000
     80     -13.2442      1.00000
     81     -13.2427      1.00000
     82     -13.2418      1.00000
     83     -13.2412      1.00000
     84     -13.2402      1.00000
     85     -13.2391      1.00000
     86     -12.8467      1.00000
     87     -12.7029      1.00000
     88     -12.6540      1.00000
     89     -12.4280      1.00000
     90     -12.1624      1.00000
     91     -12.1006      1.00000
     92     -12.0186      1.00000
     93     -11.8846      1.00000
     94     -11.8361      1.00000
     95     -11.8350      1.00000
     96     -11.8347      1.00000
     97     -11.8343      1.00000
     98     -11.8334      1.00000
     99     -11.8324      1.00000
    100     -11.5908      1.00000
    101     -11.5886      1.00000
    102     -11.5874      1.00000
    103     -11.5863      1.00000
    104     -11.5838      1.00000
    105     -11.5816      1.00000
    106     -11.5778      1.00000
    107     -11.5736      1.00000
    108     -11.5709      1.00000
    109     -11.5681      1.00000
    110     -11.5659      1.00000
    111     -11.5653      1.00000
    112     -11.5576      1.00000
    113     -11.5321      1.00000
    114     -11.4422      1.00000
    115     -11.2345      1.00000
    116     -11.1842      1.00000
    117     -11.0633      1.00000
    118     -10.9674      1.00000
    119     -10.9438      1.00000
    120     -10.7484      1.00000
    121     -10.7250      1.00000
    122     -10.7204      1.00000
    123     -10.7154      1.00000
    124     -10.7078      1.00000
    125     -10.6850      1.00000
    126     -10.6451      1.00000
    127     -10.5416      1.00000
    128     -10.4085      1.00000
    129     -10.3473      1.00000
    130     -10.3472      1.00000
    131     -10.3435      1.00000
    132     -10.2835      1.00000
    133     -10.1363      1.00000
    134     -10.1248      1.00000
    135     -10.1240      1.00000
    136     -10.1230      1.00000
    137     -10.1227      1.00000
    138     -10.1223      1.00000
    139     -10.1220      1.00000
    140      -9.7745      1.00000
    141      -9.7739      1.00000
    142      -9.7723      1.00000
    143      -9.7714      1.00000
    144      -9.7703      1.00000
    145      -9.7679      1.00000
    146      -9.5301      1.00000
    147      -9.5267      1.00000
    148      -9.5250      1.00000
    149      -9.5176      1.00000
    150      -9.5173      1.00000
    151      -9.5162      1.00000
    152      -9.3274      1.00000
    153      -9.3260      1.00000
    154      -9.3231      1.00000
    155      -9.3177      1.00000
    156      -9.3123      1.00000
    157      -9.3075      1.00000
    158      -9.0544      1.00000
    159      -8.7071      1.00000
    160      -8.7052      1.00000
    161      -8.7025      1.00000
    162      -8.6997      1.00000
    163      -8.6950      1.00000
    164      -8.6909      1.00000
    165      -8.3763      1.00000
    166      -8.3722      1.00000
    167      -8.3703      1.00000
    168      -8.3626      1.00000
    169      -8.3619      1.00000
    170      -8.3601      1.00000
    171      -7.4522      1.00000
    172      -7.4482      1.00000
    173      -7.1686      1.00000
    174      -7.1675      1.00000
    175      -7.1659      1.00000
    176      -7.1647      1.00000
    177      -7.1631      1.00000
    178      -7.1611      1.00000
    179      -7.1549      1.00000
    180      -7.1503      1.00000
    181      -7.1445      1.00000
    182      -7.1422      1.00000
    183      -7.1333      1.00000
    184      -7.1267      1.00000
    185      -6.9917      1.00000
    186      -6.9912      1.00000
    187      -6.9899      1.00000
    188      -6.7322      1.00000
    189      -6.2909      1.00000
    190      -6.1720      1.00000
    191      -6.0832      1.00000
    192      -6.0809      1.00000
    193      -1.1445      0.00000
    194      -0.9562      0.00000
    195      -0.8043      0.00000
    196      -0.7996      0.00000
    197      -0.7451      0.00000
    198      -0.7410      0.00000
    199      -0.7339      0.00000
    200      -0.6961      0.00000
    201      -0.2905      0.00000
    202      -0.1610      0.00000
    203      -0.1197      0.00000
    204      -0.1023      0.00000
    205      -0.1008      0.00000
    206      -0.0423      0.00000
    207      -0.0349      0.00000
    208      -0.0321      0.00000
    209      -0.0280      0.00000
    210      -0.0277      0.00000
    211      -0.0262      0.00000
    212      -0.0205      0.00000
    213      -0.0184      0.00000
    214      -0.0164      0.00000
    215      -0.0139      0.00000
    216      -0.0041      0.00000
    217       0.0105      0.00000
    218       0.0206      0.00000
    219       0.0456      0.00000
    220       0.0557      0.00000
    221       0.1313      0.00000
    222       0.1568      0.00000
    223       0.3521      0.00000
    224       0.5430      0.00000
    225       0.5483      0.00000
    226       0.5798      0.00000
    227       0.5973      0.00000
    228       0.6269      0.00000
    229       0.6597      0.00000
    230       0.7200      0.00000
    231       0.7213      0.00000
    232       0.7249      0.00000
    233       0.7252      0.00000
    234       0.7261      0.00000
    235       0.7305      0.00000
    236       0.7956      0.00000
    237       0.8717      0.00000
    238       0.9580      0.00000
    239       0.9625      0.00000
    240       0.9650      0.00000
    241       0.9659      0.00000
    242       0.9846      0.00000
    243       1.0184      0.00000
    244       1.0445      0.00000
    245       1.0552      0.00000
    246       1.0660      0.00000
    247       1.0728      0.00000
    248       1.0819      0.00000
    249       1.0934      0.00000
    250       1.1537      0.00000
    251       1.5154      0.00000
    252       1.5308      0.00000
    253       1.5391      0.00000
    254       1.5559      0.00000
    255       1.5584      0.00000
    256       1.5629      0.00000
    257       1.5747      0.00000
    258       1.5752      0.00000
    259       1.5792      0.00000
    260       1.5806      0.00000
    261       1.5821      0.00000
    262       1.5862      0.00000
    263       1.6154      0.00000
    264       1.6591      0.00000
    265       1.6844      0.00000
    266       1.7028      0.00000
    267       1.7159      0.00000
    268       1.7202      0.00000
    269       1.7356      0.00000
    270       1.7426      0.00000
    271       1.7480      0.00000
    272       1.7675      0.00000
    273       1.7742      0.00000
    274       1.7916      0.00000
    275       1.8066      0.00000
    276       1.8542      0.00000
    277       2.0270      0.00000
    278       2.0492      0.00000
    279       2.0788      0.00000
    280       2.0947      0.00000
    281       2.1537      0.00000
    282       2.1624      0.00000
    283       2.2782      0.00000
    284       2.3576      0.00000

 k-point     2 :       0.3333    0.0000    0.0000
  band No.  band energies     occupation 
      1     -35.9824      1.00000
      2     -34.9540      1.00000
      3     -34.5318      1.00000
      4     -33.8291      1.00000
      5     -33.6641      1.00000
      6     -33.5262      1.00000
      7     -33.3067      1.00000
      8     -33.0154      1.00000
      9     -32.3085      1.00000
     10     -27.6924      1.00000
     11     -25.5235      1.00000
     12     -24.6882      1.00000
     13     -24.5043      1.00000
     14     -24.3251      1.00000
     15     -24.3197      1.00000
     16     -23.9706      1.00000
     17     -23.9668      1.00000
     18     -23.7954      1.00000
     19     -23.6279      1.00000
     20     -23.6238      1.00000
     21     -23.3002      1.00000
     22     -23.1398      1.00000
     23     -23.1391      1.00000
     24     -22.9893      1.00000
     25     -22.9885      1.00000
     26     -22.6876      1.00000
     27     -22.6837      1.00000
     28     -22.4343      1.00000
     29     -22.4336      1.00000
     30     -22.2041      1.00000
     31     -22.1616      1.00000
     32     -22.1579      1.00000
     33     -22.0682      1.00000
     34     -22.0674      1.00000
     35     -21.9273      1.00000
     36     -21.7726      1.00000
     37     -21.7163      1.00000
     38     -21.7161      1.00000
     39     -21.6525      1.00000
     40     -21.6518      1.00000
     41     -21.6142      1.00000
     42     -21.6122      1.00000
     43     -21.4015      1.00000
     44     -21.3975      1.00000
     45     -21.3489      1.00000
     46     -21.3484      1.00000
     47     -21.1100      1.00000
     48     -21.1096      1.00000
     49     -20.5709      1.00000
     50     -18.7766      1.00000
     51     -17.6344      1.00000
     52     -16.5938      1.00000
     53     -16.3631      1.00000
     54     -16.3436      1.00000
     55     -15.7143      1.00000
     56     -15.6352      1.00000
     57     -15.2947      1.00000
     58     -15.1980      1.00000
     59     -15.1961      1.00000
     60     -15.0362      1.00000
     61     -15.0229      1.00000
     62     -14.9013      1.00000
     63     -14.8969      1.00000
     64     -14.8914      1.00000
     65     -14.8895      1.00000
     66     -14.8343      1.00000
     67     -14.5189      1.00000
     68     -14.5172      1.00000
     69     -14.3819      1.00000
     70     -14.3803      1.00000
     71     -14.3083      1.00000
     72     -14.2851      1.00000
     73     -14.1915      1.00000
     74     -14.1897      1.00000
     75     -14.0436      1.00000
     76     -14.0422      1.00000
     77     -13.7753      1.00000
     78     -13.7735      1.00000
     79     -13.6851      1.00000
     80     -13.6818      1.00000
     81     -13.1738      1.00000
     82     -13.1716      1.00000
     83     -12.8472      1.00000
     84     -12.7695      1.00000
     85     -12.7659      1.00000
     86     -12.7048      1.00000
     87     -12.6638      1.00000
     88     -12.6484      1.00000
     89     -12.6352      1.00000
     90     -12.4316      1.00000
     91     -12.4219      1.00000
     92     -12.4177      1.00000
     93     -12.1622      1.00000
     94     -12.1020      1.00000
     95     -12.1001      1.00000
     96     -12.0980      1.00000
     97     -12.0825      1.00000
     98     -12.0807      1.00000
     99     -12.0271      1.00000
    100     -12.0150      1.00000
    101     -11.8839      1.00000
    102     -11.7398      1.00000
    103     -11.7375      1.00000
    104     -11.5687      1.00000
    105     -11.5347      1.00000
    106     -11.3666      1.00000
    107     -11.2556      1.00000
    108     -11.2546      1.00000
    109     -11.2344      1.00000
    110     -11.2004      1.00000
    111     -11.0978      1.00000
    112     -11.0559      1.00000
    113     -10.9773      1.00000
    114     -10.9737      1.00000
    115     -10.9691      1.00000
    116     -10.9662      1.00000
    117     -10.9621      1.00000
    118     -10.9401      1.00000
    119     -10.8665      1.00000
    120     -10.8478      1.00000
    121     -10.7680      1.00000
    122     -10.7675      1.00000
    123     -10.7644      1.00000
    124     -10.7641      1.00000
    125     -10.7497      1.00000
    126     -10.7265      1.00000
    127     -10.5593      1.00000
    128     -10.5181      1.00000
    129     -10.5144      1.00000
    130     -10.4200      1.00000
    131     -10.3979      1.00000
    132     -10.3755      1.00000
    133     -10.2816      1.00000
    134     -10.2793      1.00000
    135     -10.1916      1.00000
    136     -10.1876      1.00000
    137     -10.1794      1.00000
    138     -10.1263      1.00000
    139     -10.1226      1.00000
    140     -10.1047      1.00000
    141     -10.0861      1.00000
    142      -9.9651      1.00000
    143      -9.9627      1.00000
    144      -9.9169      1.00000
    145      -9.9057      1.00000
    146      -9.7524      1.00000
    147      -9.7490      1.00000
    148      -9.4689      1.00000
    149      -9.4079      1.00000
    150      -9.4043      1.00000
    151      -9.3583      1.00000
    152      -9.2524      1.00000
    153      -9.2472      1.00000
    154      -9.0802      1.00000
    155      -9.0767      1.00000
    156      -9.0715      1.00000
    157      -9.0370      1.00000
    158      -9.0150      1.00000
    159      -8.8756      1.00000
    160      -8.7678      1.00000
    161      -8.7642      1.00000
    162      -8.6166      1.00000
    163      -8.6117      1.00000
    164      -8.4601      1.00000
    165      -8.2526      1.00000
    166      -8.2512      1.00000
    167      -8.2478      1.00000
    168      -8.2461      1.00000
    169      -7.9156      1.00000
    170      -7.9062      1.00000
    171      -7.8607      1.00000
    172      -7.8563      1.00000
    173      -7.7205      1.00000
    174      -7.7184      1.00000
    175      -7.7180      1.00000
    176      -7.5732      1.00000
    177      -7.2635      1.00000
    178      -7.1985      1.00000
    179      -7.1973      1.00000
    180      -7.0849      1.00000
    181      -7.0841      1.00000
    182      -7.0178      1.00000
    183      -7.0165      1.00000
    184      -6.7429      1.00000
    185      -6.6934      1.00000
    186      -6.6857      1.00000
    187      -6.6210      1.00000
    188      -6.6169      1.00000
    189      -6.2911      1.00000
    190      -6.2317      1.00000
    191      -6.2297      1.00000
    192      -6.1674      1.00000
    193      -1.1438      0.00000
    194      -0.8783      0.00000
    195      -0.7205      0.00000
    196      -0.7024      0.00000
    197      -0.6907      0.00000
    198      -0.6327      0.00000
    199      -0.6281      0.00000
    200      -0.5959      0.00000
    201      -0.5851      0.00000
    202      -0.5004      0.00000
    203      -0.4290      0.00000
    204      -0.4250      0.00000
    205      -0.3764      0.00000
    206      -0.3549      0.00000
    207      -0.3532      0.00000
    208      -0.2566      0.00000
    209      -0.2206      0.00000
    210      -0.1701      0.00000
    211      -0.0622      0.00000
    212       0.1113      0.00000
    213       0.1926      0.00000
    214       0.2062      0.00000
    215       0.2176      0.00000
    216       0.2265      0.00000
    217       0.2420      0.00000
    218       0.2942      0.00000
    219       0.3442      0.00000
    220       0.3755      0.00000
    221       0.4046      0.00000
    222       0.4339      0.00000
    223       0.4844      0.00000
    224       0.4965      0.00000
    225       0.5063      0.00000
    226       0.5177      0.00000
    227       0.5276      0.00000
    228       0.5333      0.00000
    229       0.5825      0.00000
    230       0.6572      0.00000
[...]
   -.543E+03 0.314E+03 -.402E+03   0.596E+03 -.318E+03 0.376E+03   -.529E+02 0.491E+01 0.259E+02   0.709E-02 -.108E-01 -.527E-02
   0.412E+03 0.296E+03 -.237E+03   -.454E+03 -.297E+03 0.196E+03   0.413E+02 0.305E+01 0.418E+02   0.225E-01 0.920E-02 0.106E-01
   0.586E+03 0.154E+03 -.107E+04   -.637E+03 -.153E+03 0.110E+04   0.504E+02 0.203E+01 -.263E+02   0.127E-01 0.146E-01 -.264E-02
   -.426E+03 0.161E+03 -.122E+04   0.466E+03 -.160E+03 0.126E+04   -.400E+02 0.118E+01 -.405E+02   0.974E-02 0.211E-01 0.262E-01
   -.502E+03 -.568E+02 -.251E+03   0.548E+03 0.582E+02 0.218E+03   -.447E+02 0.172E+01 0.338E+02   0.108E-01 0.164E-01 -.114E-01
   0.504E+03 -.105E+03 -.254E+03   -.549E+03 0.112E+03 0.222E+03   0.446E+02 -.440E+01 0.334E+02   0.123E-01 0.924E-02 0.150E-02
   0.378E+03 -.217E+03 -.120E+04   -.416E+03 0.218E+03 0.123E+04   0.361E+02 0.150E+01 -.379E+02   0.126E-01 0.577E-03 -.801E-03
   -.543E+03 -.231E+03 -.104E+04   0.591E+03 0.234E+03 0.107E+04   -.470E+02 -.141E+01 -.235E+02   -.120E-01 0.624E-02 0.825E-02
   0.579E+02 0.655E+03 -.979E+03   -.650E+02 -.701E+03 0.101E+04   0.692E+01 0.462E+02 -.350E+02   0.511E-02 0.189E-01 -.358E-03
   -.319E+03 -.378E+03 -.377E+03   0.363E+03 0.398E+03 0.356E+03   -.424E+02 -.170E+02 0.219E+02   -.240E-03 0.765E-02 0.554E-02
   0.388E+03 -.379E+03 -.534E+03   -.437E+03 0.399E+03 0.533E+03   0.471E+02 -.175E+02 0.122E+01   0.130E-01 0.473E-02 -.837E-02
 -----------------------------------------------------------------------------------------------
   -.291E+00 -.461E+01 0.654E+00   -.455E-12 0.171E-12 -.580E-11   0.458E+00 0.466E+01 -.665E+00   0.894E-01 0.935E-01 -.544E-01
 
 
 POSITION                                       TOTAL-FORCE (eV/Angst)
 -----------------------------------------------------------------------------------
      1.22240     -0.74431     17.39817        -0.000488     -0.000773      0.001540
      2.47871      1.43135     17.39312        -0.001946     -0.001654      0.001511
      3.73528      3.60673     17.38858        -0.002819     -0.001708      0.007362
      4.99134      5.78213     17.39090        -0.003014      0.000026      0.007413
      6.24654      7.95792     17.39694         0.001332      0.004592      0.001086
      7.50249     10.13369     17.39961         0.004830      0.003057      0.004683
      2.47866     -2.91996     17.39266        -0.003567      0.001967      0.007069
      3.73518     -0.74404     17.38636        -0.005441     -0.001342      0.006006
      4.99158      1.43174     17.37548        -0.000706     -0.002404      0.001102
      6.24793      3.60637     17.37865        -0.001654     -0.000611     -0.000942
      7.50291      5.78172     17.38284         0.000298     -0.001007      0.012209
      8.75839      7.95799     17.39308         0.004741      0.001688      0.000758
      3.73392     -5.09595     17.39055         0.004799      0.003160     -0.001600
      4.99122     -2.91986     17.38051        -0.003033     -0.000076      0.003112
      6.24740     -0.74301     17.36840        -0.002677     -0.002418      0.000388
      7.50262      1.43250     17.36291         0.001925     -0.002754      0.004437
      8.75743      3.60597     17.38308         0.004335      0.001943      0.002981
     10.01340      5.78155     17.38628         0.006077      0.002686      0.003398
      4.98950     -7.27175     17.39306         0.007322      0.000367      0.001081
      6.24630     -5.09539     17.38551         0.004192      0.000042      0.005389
      7.50279     -2.91899     17.37323        -0.001574     -0.003363      0.002234
      8.75877     -0.74264     17.36852        -0.003608     -0.004941      0.001917
     10.01334      1.43208     17.37411         0.001348      0.001236      0.002303
     11.26920      3.60594     17.38520         0.006893      0.005453      0.000561
      6.24572     -9.44749     17.39598         0.006089      0.003853      0.002215
      7.50230     -7.27163     17.39739         0.000891      0.001691      0.000091
      8.75861     -5.09549     17.39272         0.000976      0.003103      0.005266
     10.01458     -2.91944     17.38939        -0.001653     -0.000211      0.006545
     11.27041     -0.74415     17.38945         0.001132      0.001461     -0.000195
     12.52607      1.43082     17.39188         0.007920      0.005662      0.005784
      7.50239    -11.62252     17.39939         0.001301     -0.002722      0.002430
      8.75892     -9.44693     17.39825        -0.005147     -0.002632      0.001682
     10.01540     -7.27132     17.39937        -0.009773      0.000775      0.000025
     11.27117     -5.09563     17.40053        -0.005671      0.005365      0.000032
     12.52685     -2.91986     17.39913        -0.001289     -0.000253      0.009628
     13.78281     -0.74444     17.39948         0.002071      0.002005      0.002677
      1.22211      0.70610     17.39867         0.000622     -0.003230      0.000287
      2.47826      2.88174     17.39336        -0.000062     -0.002511     -0.000471
      3.73446      5.05744     17.39401        -0.001562     -0.003141     -0.004163
      4.99029      7.23309     17.39831         0.001894     -0.002377     -0.004363
      6.24622      9.40861     17.40063         0.005605      0.001209     -0.000245
      7.50248     11.58417     17.40128         0.004574     -0.000213     -0.000761
      2.47867     -1.46948     17.39322        -0.005008     -0.001550     -0.002881
      3.73458      0.70611     17.38563        -0.002017     -0.001179     -0.002950
      4.99027      2.88183     17.37787         0.004177     -0.001837     -0.003021
      6.24636      5.05762     17.38007         0.005547     -0.005365     -0.001247
      7.50233      7.23322     17.39067         0.004084     -0.004763     -0.002467
      8.75878      9.40877     17.39666        -0.002629     -0.000677     -0.002048
      3.73470     -3.64527     17.38813        -0.002213      0.002943     -0.000834
      4.99113     -1.46957     17.37984         0.000689      0.002938     -0.004776
      6.24633      0.70618     17.35979         0.005465      0.003815     -0.009721
      7.50194      2.88138     17.36613         0.003805      0.000976     -0.012069
      8.75833      5.05745     17.37777         0.001054     -0.004011     -0.003040
     10.01447      7.23290     17.39126        -0.001595     -0.000471     -0.009101
      4.99020     -5.82101     17.39126        -0.000117      0.001546     -0.008980
      6.24691     -3.64518     17.37354        -0.001666     -0.000097     -0.002909
      7.50328     -1.46896     17.36514        -0.001343      0.004174     -0.006667
      8.75848      0.70630     17.35735        -0.003782      0.007356     -0.003959
     10.01471      2.88151     17.37425        -0.007139      0.000731     -0.006946
     11.27045      5.05697     17.38904        -0.002378      0.001321     -0.004222
      6.24602     -7.99696     17.39629         0.003859      0.006690     -0.000170
      7.50240     -5.82101     17.39244         0.001049      0.001536     -0.002044
      8.75852     -3.64497     17.38359        -0.004232     -0.002677      0.001727
     10.01467     -1.46953     17.38317        -0.002567      0.005045     -0.004495
     11.27039      0.70574     17.38568        -0.004215      0.004445     -0.001132
     12.52658      2.88106     17.39019        -0.002062      0.004464      0.000234
      7.50236    -10.17220     17.39931         0.003112      0.000608      0.000050
      8.75866     -7.99647     17.39990         0.001173      0.000434      0.001711
     10.01481     -5.82066     17.40097        -0.004834     -0.001798     -0.004721
     11.27063     -3.64503     17.39925        -0.001224     -0.001539      0.000291
     12.52667     -1.46969     17.39707         0.005313      0.003441      0.002949
     13.78275      0.70583     17.39866         0.002837     -0.000584     -0.001513
      7.69909     -2.31116     21.25703        -0.003972      0.002611      0.000520
      7.56453     -1.01319     22.09016        -0.002864     -0.003666     -0.005674
      7.67094      0.31257     21.29641        -0.001552     -0.001182      0.004097
      7.76992      1.60087     22.13941        -0.003361     -0.000574     -0.001516
      7.57873      2.90851     21.29290         0.012593     -0.001788     -0.010786
      8.90154     -2.40917     20.67766        -0.004357      0.000018      0.003056
      6.75293     -2.36251     20.30900        -0.000225      0.004059      0.005203
      6.35482     -1.07360     22.69809        -0.006774     -0.009605     -0.000786
      8.53072     -1.04734     23.04027         0.001944     -0.004967     -0.001911
      8.76570      0.23577     20.49417         0.001386     -0.000350      0.001390
      6.57031      0.39504     20.50008        -0.002388     -0.006516     -0.000293
      6.83313      1.50794     23.13748        -0.001809      0.003289      0.001776
      8.99161      1.59453     22.75969         0.005986     -0.008180     -0.006079
      7.53762     -3.36168     22.07646        -0.000221     -0.002616     -0.004194
      8.62505      3.32463     20.76416        -0.007764     -0.007637      0.003565
      6.41250      3.34176     21.26691        -0.005243      0.000189      0.004124
 -----------------------------------------------------------------------------------
    total drift:                                0.255506      0.145168     -0.065113


--------------------------------------------------------------------------------------------------------



  FREE ENERGIE OF THE ION-ELECTRON SYSTEM (eV)
  ---------------------------------------------------
  free  energy   TOTEN  =      -819.66161989 eV

  energy  without entropy=     -819.66161989  energy(sigma->0) =     -819.66161989
 
 d Force = 0.1115770E-03[ 0.316E-04, 0.192E-03]  d Energy = 0.1422785E-03-0.307E-04
 d Force =-0.2840634E+00[-0.284E+00,-0.284E+00]  d Ewald  =-0.2840629E+00-0.412E-06


--------------------------------------------------------------------------------------------------------


    POTLOK:  cpu time   26.8520: real time   26.9072


--------------------------------------------------------------------------------------------------------


 Conjugate gradient step on ions:
 trial-energy change:   -0.000142  1 .order   -0.000112   -0.000192   -0.000032
  (g-gl).g = 0.418E-03      g.g   = 0.537E-03  gl.gl    = 0.139E-02
 g(Force)  = 0.537E-03   g(Stress)= 0.000E+00 ortho     =-0.869E-04
 gamma     =   0.30015
 trial     =   0.37516
 opt step  =   0.44936  (harmonic =   0.44936) maximal distance =0.00041409
 next E    =  -819.661592   (d E  =  -0.00011)


--------------------------------------------------------------------------------------------------------


  
 reached required accuracy - stopping structural energy minimisation
 writing wavefunctions
     LOOP+:  cpu time 1438.0248: real time 1482.0876
    4ORBIT:  cpu time    0.0000: real time    0.0000
 


 total charge     
 
# of ion       s       p       d       tot
------------------------------------------
    1        0.744   1.393   0.000   2.137
    2        0.744   1.393   0.000   2.137
    3        0.744   1.394   0.000   2.137
    4        0.744   1.394   0.000   2.138
    5        0.744   1.394   0.000   2.138
    6        0.744   1.393   0.000   2.137
    7        0.744   1.393   0.000   2.137
    8        0.744   1.393   0.000   2.137
    9        0.744   1.394   0.000   2.138
   10        0.744   1.393   0.000   2.136
   11        0.744   1.394   0.000   2.137
   12        0.744   1.394   0.000   2.137
   13        0.744   1.394   0.000   2.137
   14        0.744   1.394   0.000   2.137
   15        0.744   1.394   0.000   2.137
   16        0.744   1.394   0.000   2.137
   17        0.743   1.390   0.000   2.132
   18        0.744   1.394   0.000   2.137
   19        0.744   1.393   0.000   2.137
   20        0.744   1.393   0.000   2.137
   21        0.744   1.394   0.000   2.137
   22        0.744   1.394   0.000   2.138
   23        0.744   1.393   0.000   2.137
   24        0.744   1.394   0.000   2.138
   25        0.744   1.394   0.000   2.138
   26        0.744   1.393   0.000   2.137
   27        0.744   1.393   0.000   2.137
   28        0.744   1.394   0.000   2.138
   29        0.744   1.394   0.000   2.138
   30        0.744   1.394   0.000   2.138
   31        0.744   1.393   0.000   2.137
   32        0.744   1.393   0.000   2.137
   33        0.744   1.393   0.000   2.137
   34        0.744   1.394   0.000   2.138
   35        0.744   1.394   0.000   2.138
   36        0.744   1.394   0.000   2.138
   37        1.238   2.821   0.000   4.059
   38        1.238   2.821   0.000   4.059
   39        1.238   2.821   0.000   4.059
   40        1.238   2.821   0.000   4.059
   41        1.238   2.821   0.000   4.059
   42        1.238   2.821   0.000   4.059
   43        1.238   2.821   0.000   4.059
   44        1.238   2.821   0.000   4.059
   45        1.238   2.822   0.000   4.060
   46        1.238   2.822   0.000   4.060
   47        1.238   2.821   0.000   4.059
   48        1.238   2.821   0.000   4.059
   49        1.238   2.821   0.000   4.059
   50        1.238   2.821   0.000   4.059
   51        1.238   2.822   0.000   4.060
   52        1.238   2.823   0.000   4.061
   53        1.238   2.822   0.000   4.060
   54        1.238   2.821   0.000   4.059
   55        1.238   2.821   0.000   4.059
   56        1.238   2.822   0.000   4.060
   57        1.238   2.821   0.000   4.060
   58        1.238   2.822   0.000   4.060
   59        1.238   2.823   0.000   4.061
   60        1.238   2.821   0.000   4.059
   61        1.238   2.821   0.000   4.059
   62        1.238   2.821   0.000   4.059
   63        1.238   2.821   0.000   4.059
   64        1.238   2.821   0.000   4.059
   65        1.238   2.821   0.000   4.059
   66        1.238   2.821   0.000   4.059
   67        1.238   2.821   0.000   4.059
   68        1.238   2.821   0.000   4.059
   69        1.238   2.821   0.000   4.059
   70        1.238   2.821   0.000   4.059
   71        1.238   2.821   0.000   4.059
   72        1.238   2.821   0.000   4.059
   73        0.816   1.562   0.000   2.379
   74        0.833   1.602   0.000   2.435
   75        0.835   1.595   0.000   2.429
   76        0.838   1.573   0.000   2.412
   77        0.875   1.718   0.000   2.592
   78        1.759   4.411   0.000   6.170
   79        1.759   4.410   0.000   6.169
   80        1.757   4.403   0.000   6.160
   81        1.757   4.402   0.000   6.160
   82        1.758   4.400   0.000   6.158
   83        1.757   4.399   0.000   6.157
   84        1.755   4.404   0.000   6.159
   85        1.755   4.405   0.000   6.160
   86        1.758   4.411   0.000   6.169
   87        1.586   3.591   0.000   5.178
   88        1.585   3.595   0.000   5.180
--------------------------------------------------
tot         94.529 206.614   0.000 301.143
 


 magnetization (x)
 
# of ion       s       p       d       tot
------------------------------------------
    1       -0.000  -0.000   0.000  -0.000
    2       -0.000  -0.000   0.000  -0.000
    3       -0.000   0.000   0.000  -0.000
    4       -0.000  -0.000   0.000  -0.000
    5       -0.000  -0.000   0.000  -0.000
    6        0.000   0.000   0.000   0.000
    7       -0.000   0.000   0.000   0.000
    8       -0.000  -0.000   0.000  -0.000
    9        0.000  -0.000   0.000   0.000
   10       -0.000   0.000   0.000   0.000
   11       -0.000   0.000   0.000   0.000
   12        0.000   0.000   0.000   0.000
   13       -0.000   0.000   0.000   0.000
   14       -0.000   0.000   0.000   0.000
   15        0.000  -0.000   0.000  -0.000
   16        0.000  -0.000   0.000  -0.000
   17       -0.000   0.000   0.000  -0.000
   18       -0.000   0.000   0.000   0.000
   19       -0.000   0.000   0.000  -0.000
   20       -0.000   0.000   0.000   0.000
   21        0.000   0.000   0.000   0.000
   22       -0.000   0.000   0.000  -0.000
   23       -0.000   0.000   0.000  -0.000
   24       -0.000  -0.000   0.000  -0.000
   25       -0.000  -0.000   0.000  -0.000
   26       -0.000   0.000   0.000  -0.000
   27       -0.000  -0.000   0.000  -0.000
   28        0.000   0.000   0.000   0.000
   29       -0.000   0.000   0.000  -0.000
   30       -0.000   0.000   0.000  -0.000
   31       -0.000  -0.000   0.000  -0.000
   32       -0.000  -0.000   0.000  -0.000
   33       -0.000   0.000   0.000   0.000
   34        0.000  -0.000   0.000   0.000
   35       -0.000  -0.000   0.000  -0.000
   36       -0.000   0.000   0.000  -0.000
   37       -0.000   0.000   0.000   0.000
   38        0.000  -0.000   0.000  -0.000
   39        0.000  -0.000   0.000  -0.000
   40        0.000   0.000   0.000   0.000
   41        0.000   0.000   0.000   0.000
   42       -0.000  -0.000   0.000  -0.000
   43        0.000  -0.000   0.000  -0.000
   44       -0.000   0.000   0.000   0.000
   45       -0.000  -0.000   0.000  -0.000
   46       -0.000   0.000   0.000   0.000
   47        0.000   0.000   0.000   0.000
   48       -0.000  -0.000   0.000  -0.000
   49        0.000  -0.000   0.000   0.000
   50        0.000   0.000   0.000   0.000
   51       -0.000   0.000   0.000  -0.000
   52        0.000   0.000   0.000   0.000
   53        0.000   0.000   0.000   0.000
   54        0.000  -0.000   0.000  -0.000
   55        0.000  -0.000   0.000  -0.000
   56        0.000  -0.000   0.000  -0.000
   57       -0.000   0.000   0.000   0.000
   58        0.000   0.000   0.000   0.000
   59        0.000   0.000   0.000   0.000
   60       -0.000   0.000   0.000   0.000
   61        0.000   0.000   0.000   0.000
   62        0.000   0.000   0.000   0.000
   63       -0.000   0.000   0.000   0.000
   64       -0.000  -0.000   0.000  -0.000
   65        0.000  -0.000   0.000   0.000
   66        0.000   0.000   0.000   0.000
   67        0.000   0.000   0.000   0.000
   68        0.000  -0.000   0.000   0.000
   69       -0.000   0.000   0.000   0.000
   70       -0.000   0.000   0.000   0.000
   71        0.000  -0.000   0.000   0.000
   72        0.000  -0.000   0.000  -0.000
   73        0.000   0.000   0.000   0.000
   74        0.000   0.000   0.000   0.000
   75       -0.000   0.000   0.000   0.000
   76       -0.000  -0.000   0.000  -0.000
   77        0.000  -0.000   0.000   0.000
   78        0.000   0.000   0.000   0.000
   79       -0.000   0.000   0.000   0.000
   80        0.000   0.000   0.000   0.000
   81        0.000  -0.000   0.000  -0.000
   82       -0.000   0.000   0.000  -0.000
   83       -0.000   0.000   0.000  -0.000
   84        0.000   0.000   0.000   0.000
   85        0.000  -0.000   0.000  -0.000
   86       -0.000  -0.000   0.000  -0.000
   87       -0.000   0.000   0.000   0.000
   88       -0.000  -0.000   0.000  -0.000
--------------------------------------------------
tot         -0.000   0.000   0.000   0.000
 

 total amount of memory used by VASP MPI-rank0   225284. kBytes
=======================================================================

   base      :      30000. kBytes
   nonlr-proj:      11232. kBytes
   fftplans  :      17498. kBytes
   grid      :      70152. kBytes
   one-center:         24. kBytes
   wavefun   :      96378. kBytes
 
  
  
 General timing and accounting informations for this job:
 ========================================================
  
                  Total CPU time used (sec):    56104.656
                            User time (sec):    55855.258
                          System time (sec):      249.397
                         Elapsed time (sec):    56280.485
  
                   Maximum memory used (kb):      696844.
                   Average memory used (kb):           0.
  
                          Minor page faults:      9422964
                          Major page faults:          159
                 Voluntary context switches:       367033
