 vasp.5.4.4.18Apr17-6-g9f103f2a35 (build May 01 2020 14:57:12) complex          
  
 executed on             LinuxIFC date 2021.07.25  16:50:56
 running on  192 total cores
 distrk:  each k-point on   48 cores,    4 groups
 distr:  one band on NCORES_PER_BAND=  12 cores,    4 groups


--------------------------------------------------------------------------------------------------------


 INCAR:
 POTCAR:    PAW_PBE B 06Sep2000                   
 POTCAR:    PAW_PBE H 15Jun2001                   
 POTCAR:    PAW_PBE N 08Apr2002                   
 POTCAR:    PAW_PBE O 08Apr2002                   

 ----------------------------------------------------------------------------- 
|                                                                             |
|           W    W    AA    RRRRR   N    N  II  N    N   GGGG   !!!           |
|           W    W   A  A   R    R  NN   N  II  NN   N  G    G  !!!           |
|           W    W  A    A  R    R  N N  N  II  N N  N  G       !!!           |
|           W WW W  AAAAAA  RRRRR   N  N N  II  N  N N  G  GGG   !            |
|           WW  WW  A    A  R   R   N   NN  II  N   NN  G    G                |
|           W    W  A    A  R    R  N    N  II  N    N   GGGG   !!!           |
|                                                                             |
|      You have enabled k-point parallelism (KPAR>1).                         |
|      This developmental code was originally  written by Paul Kent at ORNL,  |
|      and carefully double checked in Vienna.                                |
|      GW as well as linear response parallelism added by Martijn Marsman     |
|      and Georg Kresse.                                                      |
|      Carefully verify results versus KPAR=1.                                |
|      Report problems to Paul Kent and Vienna.                               |
|                                                                             |
 ----------------------------------------------------------------------------- 

 POTCAR:    PAW_PBE B 06Sep2000                   
   VRHFIN =B: s2p1                                                              
   LEXCH  = PE                                                                  
   EATOM  =    71.1703 eV,    5.2309 Ry                                         
                                                                                
   TITEL  = PAW_PBE B 06Sep2000                                                 
   LULTRA =        F    use ultrasoft PP ?                                      
   IUNSCR =        1    unscreen: 0-lin 1-nonlin 2-no                           
   RPACOR =    1.200    partial core radius                                     
   POMASS =   10.811; ZVAL   =    3.000    mass and valenz                      
   RCORE  =    1.700    outmost cutoff radius                                   
   RWIGS  =    1.710; RWIGS  =    0.905    wigner-seitz radius (au A)           
   ENMAX  =  318.614; ENMIN  =  238.960 eV                                      
   ICORE  =        2    local potential                                         
   LCOR   =        T    correct aug charges                                     
   LPAW   =        T    paw PP                                                  
   EAUG   =  535.514                                                            
   DEXC   =    0.000                                                            
   RMAX   =    1.732    core radius for proj-oper                               
   RAUG   =    1.300    factor for augmentation sphere                          
   RDEP   =    1.757    radius for radial grids                                 
   RDEPT  =    1.436    core radius for aug-charge                              
                                                                                
   Atomic configuration                                                         
    4 entries                                                                   
     n  l   j            E        occ.                                          
     1  0  0.50      -180.5896   2.0000                                         
     2  0  0.50        -9.4431   2.0000                                         
     2  1  0.50        -3.6068   1.0000                                         
     3  2  1.50        -4.0817   0.0000                                         
   Description                                                                  
     l       E           TYP  RCUT    TYP  RCUT                                 
     0     -9.4430752     23  1.500                                             
     0      0.8675899     23  1.500                                             
     1     -3.6067955     23  1.700                                             
     1      6.1086146     23  1.700                                             
     2     -4.0817478      7  1.700                                             
  local pseudopotential read in
  partial core-charges read in
  partial kinetic energy density read in
  atomic valenz-charges read in
  non local Contribution for L=           0  read in
    real space projection operators read in
  non local Contribution for L=           0  read in
    real space projection operators read in
  non local Contribution for L=           1  read in
    real space projection operators read in
  non local Contribution for L=           1  read in
    real space projection operators read in
    PAW grid and wavefunctions read in
 
   number of l-projection  operators is LMAX  =           4
   number of lm-projection operators is LMMAX =           8
 
 POTCAR:    PAW_PBE H 15Jun2001                   
   VRHFIN =H: ultrasoft test                                                    
   LEXCH  = PE                                                                  
   EATOM  =    12.4884 eV,    0.9179 Ry                                         
                                                                                
   TITEL  = PAW_PBE H 15Jun2001                                                 
   LULTRA =        F    use ultrasoft PP ?                                      
   IUNSCR =        0    unscreen: 0-lin 1-nonlin 2-no                           
   RPACOR =    0.000    partial core radius                                     
   POMASS =    1.000; ZVAL   =    1.000    mass and valenz                      
   RCORE  =    1.100    outmost cutoff radius                                   
   RWIGS  =    0.700; RWIGS  =    0.370    wigner-seitz radius (au A)           
   ENMAX  =  250.000; ENMIN  =  200.000 eV                                      
   RCLOC  =    0.701    cutoff for local pot                                    
   LCOR   =        T    correct aug charges                                     
   LPAW   =        T    paw PP                                                  
   EAUG   =  400.000                                                            
   RMAX   =    1.123    core radius for proj-oper                               
   RAUG   =    1.200    factor for augmentation sphere                          
   RDEP   =    1.112    radius for radial grids                                 
   RDEPT  =    0.926    core radius for aug-charge                              
                                                                                
   Atomic configuration                                                         
    2 entries                                                                   
     n  l   j            E        occ.                                          
     1  0  0.50        -6.4927   1.0000                                         
     2  1  0.50        -3.4015   0.0000                                         
   Description                                                                  
     l       E           TYP  RCUT    TYP  RCUT                                 
     0     -6.4927494     23  1.100                                             
     0      6.8029130     23  1.100                                             
     1     -4.0817478     23  1.100                                             
  local pseudopotential read in
  atomic valenz-charges read in
  non local Contribution for L=           0  read in
    real space projection operators read in
  non local Contribution for L=           0  read in
    real space projection operators read in
  non local Contribution for L=           1  read in
    real space projection operators read in
    PAW grid and wavefunctions read in
 
   number of l-projection  operators is LMAX  =           3
   number of lm-projection operators is LMMAX =           5
 
 POTCAR:    PAW_PBE N 08Apr2002                   
   VRHFIN =N: s2p3                                                              
   LEXCH  = PE                                                                  
   EATOM  =   264.5486 eV,   19.4438 Ry                                         
                                                                                
   TITEL  = PAW_PBE N 08Apr2002                                                 
   LULTRA =        F    use ultrasoft PP ?                                      
   IUNSCR =        1    unscreen: 0-lin 1-nonlin 2-no                           
   RPACOR =    1.200    partial core radius                                     
   POMASS =   14.001; ZVAL   =    5.000    mass and valenz                      
   RCORE  =    1.500    outmost cutoff radius                                   
   RWIGS  =    1.400; RWIGS  =    0.741    wigner-seitz radius (au A)           
   ENMAX  =  400.000; ENMIN  =  300.000 eV                                      
   ICORE  =        2    local potential                                         
   LCOR   =        T    correct aug charges                                     
   LPAW   =        T    paw PP                                                  
   EAUG   =  627.112                                                            
   DEXC   =    0.000                                                            
   RMAX   =    1.529    core radius for proj-oper                               
   RAUG   =    1.300    factor for augmentation sphere                          
   RDEP   =    1.514    radius for radial grids                                 
   RDEPT  =    1.338    core radius for aug-charge                              
                                                                                
   Atomic configuration                                                         
    4 entries                                                                   
     n  l   j            E        occ.                                          
     1  0  0.50      -384.7179   2.0000                                         
     2  0  0.50       -18.5828   2.0000                                         
     2  1  0.50        -7.0898   3.0000                                         
     3  2  1.50        -6.8029   0.0000                                         
   Description                                                                  
     l       E           TYP  RCUT    TYP  RCUT                                 
     0    -18.5828119     23  1.200                                             
     0    -13.5018863     23  1.200                                             
     1     -7.0897853     23  1.500                                             
     1      9.5240782     23  1.500                                             
     2     -6.8029130      7  1.500                                             
  local pseudopotential read in
  partial core-charges read in
  partial kinetic energy density read in
  atomic valenz-charges read in
  non local Contribution for L=           0  read in
    real space projection operators read in
  non local Contribution for L=           0  read in
    real space projection operators read in
  non local Contribution for L=           1  read in
    real space projection operators read in
  non local Contribution for L=           1  read in
    real space projection operators read in
    PAW grid and wavefunctions read in
 
   number of l-projection  operators is LMAX  =           4
   number of lm-projection operators is LMMAX =           8
 
 POTCAR:    PAW_PBE O 08Apr2002                   
   VRHFIN =O: s2p4                                                              
   LEXCH  = PE                                                                  
   EATOM  =   432.3788 eV,   31.7789 Ry                                         
                                                                                
   TITEL  = PAW_PBE O 08Apr2002                                                 
   LULTRA =        F    use ultrasoft PP ?                                      
   IUNSCR =        1    unscreen: 0-lin 1-nonlin 2-no                           
   RPACOR =    1.200    partial core radius                                     
   POMASS =   16.000; ZVAL   =    6.000    mass and valenz                      
   RCORE  =    1.520    outmost cutoff radius                                   
   RWIGS  =    1.550; RWIGS  =    0.820    wigner-seitz radius (au A)           
   ENMAX  =  400.000; ENMIN  =  300.000 eV                                      
   ICORE  =        2    local potential                                         
   LCOR   =        T    correct aug charges                                     
   LPAW   =        T    paw PP                                                  
   EAUG   =  605.392                                                            
   DEXC   =    0.000                                                            
   RMAX   =    1.553    core radius for proj-oper                               
   RAUG   =    1.300    factor for augmentation sphere                          
   RDEP   =    1.550    radius for radial grids                                 
   RDEPT  =    1.329    core radius for aug-charge                              
                                                                                
   Atomic configuration                                                         
    4 entries                                                                   
     n  l   j            E        occ.                                          
     1  0  0.50      -514.6923   2.0000                                         
     2  0  0.50       -23.9615   2.0000                                         
     2  1  0.50        -9.0305   4.0000                                         
     3  2  1.50        -9.5241   0.0000                                         
   Description                                                                  
     l       E           TYP  RCUT    TYP  RCUT                                 
     0    -23.9615318     23  1.200                                             
     0     -9.5240782     23  1.200                                             
     1     -9.0304911     23  1.520                                             
     1      8.1634956     23  1.520                                             
     2     -9.5240782      7  1.500                                             
  local pseudopotential read in
  partial core-charges read in
  partial kinetic energy density read in
  kinetic energy density of atom read in
  atomic valenz-charges read in
  non local Contribution for L=           0  read in
    real space projection operators read in
  non local Contribution for L=           0  read in
    real space projection operators read in
  non local Contribution for L=           1  read in
    real space projection operators read in
  non local Contribution for L=           1  read in
    real space projection operators read in
    PAW grid and wavefunctions read in
 
   number of l-projection  operators is LMAX  =           4
   number of lm-projection operators is LMMAX =           8
 
 Optimization of the real space projectors (new method)

 maximal supplied QI-value         = 22.11
 optimisation between [QCUT,QGAM] = [ 11.94, 23.88] = [ 39.92,159.67] Ry 
 Optimized for a Real-space Cutoff    1.18 Angstroem

   l    n(q)    QCUT    max X(q) W(low)/X(q) W(high)/X(q)  e(spline) 
   0      8    11.939    53.033    0.11E-03    0.34E-03    0.60E-07
   0      8    11.939    34.740    0.11E-03    0.34E-03    0.59E-07
   1      8    11.939    30.949    0.22E-03    0.20E-03    0.17E-06
   1      8    11.939    19.518    0.20E-03    0.18E-03    0.16E-06
 Optimization of the real space projectors (new method)

 maximal supplied QI-value         = 34.20
 optimisation between [QCUT,QGAM] = [ 11.97, 23.94] = [ 40.13,160.53] Ry 
 Optimized for a Real-space Cutoff    1.18 Angstroem

   l    n(q)    QCUT    max X(q) W(low)/X(q) W(high)/X(q)  e(spline) 
   0      8    11.971    19.460    0.15E-03    0.31E-03    0.25E-06
   0      8    11.971    12.209    0.13E-03    0.29E-03    0.25E-06
   1      8    11.971     4.655    0.22E-03    0.24E-03    0.21E-06
 Optimization of the real space projectors (new method)

 maximal supplied QI-value         = 25.13
 optimisation between [QCUT,QGAM] = [ 11.81, 23.88] = [ 39.08,159.64] Ry 
 Optimized for a Real-space Cutoff    1.41 Angstroem

   l    n(q)    QCUT    max X(q) W(low)/X(q) W(high)/X(q)  e(spline) 
   0     10    11.813    79.467    0.48E-04    0.30E-04    0.67E-06
   0     10    11.813    66.151    0.47E-04    0.30E-04    0.67E-06
   1     10    11.813    20.169    0.11E-03    0.17E-03    0.11E-05
   1     10    11.813    14.454    0.11E-03    0.17E-03    0.11E-05
 Optimization of the real space projectors (new method)

 maximal supplied QI-value         = 24.76
 optimisation between [QCUT,QGAM] = [ 11.88, 24.01] = [ 39.54,161.47] Ry 
 Optimized for a Real-space Cutoff    1.18 Angstroem

   l    n(q)    QCUT    max X(q) W(low)/X(q) W(high)/X(q)  e(spline) 
   0      8    11.883    20.381    0.86E-04    0.11E-03    0.31E-06
   0      8    11.883    15.268    0.94E-04    0.12E-03    0.33E-06
   1      8    11.883     5.964    0.19E-03    0.18E-04    0.33E-06
   1      8    11.883     5.382    0.17E-03    0.20E-04    0.29E-06
  PAW_PBE B 06Sep2000                   :
 energy of atom  1       EATOM=  -71.1703
 kinetic energy error for atom=    0.0009 (will be added to EATOM!!)
  PAW_PBE H 15Jun2001                   :
 energy of atom  2       EATOM=  -12.4884
 kinetic energy error for atom=    0.0008 (will be added to EATOM!!)
  PAW_PBE N 08Apr2002                   :
 energy of atom  3       EATOM= -264.5486
 kinetic energy error for atom=    0.0116 (will be added to EATOM!!)
  PAW_PBE O 08Apr2002                   :
 energy of atom  4       EATOM= -432.3788
 kinetic energy error for atom=    0.0194 (will be added to EATOM!!)
 
 
 POSCAR: B H N O                                 
  positions in direct lattice
  velocities in cartesian coordinates

 METAGGA = SCAN     LMAXTAU =  6    LMIXTAU =  F

 exchange correlation table for  LEXCH =        8
   RHO(1)=    0.500       N(1)  =     2000
   RHO(2)=  100.500       N(2)  =     4000
 


--------------------------------------------------------------------------------------------------------


 ion  position               nearest neighbor table
   1  0.322  0.500  0.445-  31 1.44  24 1.45  30 1.45
   2  0.321  0.501  0.500-  32 1.44  25 1.45  31 1.45
   3  0.319  0.503  0.556-  33 1.45  26 1.45  32 1.45
   4  0.310  0.500  0.610-  40 1.37  38 1.38  33 1.45
   5  0.822  0.502  0.445-  35 1.44  27 1.45  34 1.46
   6  0.821  0.501  0.500-  36 1.44  28 1.45  35 1.45
   7  0.821  0.504  0.556-  37 1.43  29 1.46  36 1.47
   8  0.817  0.513  0.614-  45 1.47  46 1.48  39 1.48  37 1.55
   9  0.072  0.501  0.417-  41 1.37  24 1.44  34 1.45
  10  0.071  0.500  0.472-  25 1.44  24 1.44  35 1.45
  11  0.070  0.501  0.528-  26 1.43  36 1.45  25 1.45
  12  0.067  0.504  0.583-  38 1.38  37 1.42  26 1.45
  13  0.572  0.502  0.417-  42 1.37  27 1.44  30 1.45
  14  0.571  0.500  0.473-  28 1.44  27 1.45  31 1.45
  15  0.570  0.502  0.528-  29 1.43  28 1.45  32 1.45
  16  0.570  0.507  0.584-  39 1.33  29 1.46  33 1.47
  17  0.313  0.497  0.390-  43 1.36  41 1.38  30 1.45
  18  0.813  0.508  0.390-  44 1.36  42 1.38  34 1.45
  19  0.292  0.490  0.653-  40 0.97
  20  0.299  0.490  0.347-  43 0.97
  21  0.799  0.517  0.347-  44 0.97
  22  0.779  0.429  0.647-  45 0.96
  23  0.776  0.615  0.641-  46 0.96
  24  0.155  0.500  0.445-   9 1.44  10 1.44   1 1.45
  25  0.154  0.500  0.500-  10 1.44  11 1.45   2 1.45
  26  0.153  0.502  0.555-  11 1.43   3 1.45  12 1.45
  27  0.655  0.501  0.445-  13 1.44  14 1.45   5 1.45
  28  0.654  0.500  0.500-  14 1.44   6 1.45  15 1.45
  29  0.653  0.504  0.556-  15 1.43  16 1.46   7 1.46
  30  0.405  0.500  0.416-  17 1.45  13 1.45   1 1.45
  31  0.405  0.500  0.472-   1 1.44  14 1.45   2 1.45
  32  0.404  0.501  0.528-   2 1.44   3 1.45  15 1.45
  33  0.402  0.504  0.584-   4 1.45   3 1.45  16 1.47
  34  0.905  0.504  0.416-  18 1.45   9 1.45   5 1.46
  35  0.905  0.500  0.472-   5 1.44  10 1.45   6 1.45
  36  0.904  0.502  0.528-   6 1.44  11 1.45   7 1.47
  37  0.904  0.507  0.584-  12 1.42   7 1.43   8 1.55
  38  0.152  0.504  0.609-   4 1.38  12 1.38
  39  0.648  0.515  0.609-  16 1.33   8 1.48
  40  0.372  0.493  0.638-  19 0.97   4 1.37
  41  0.155  0.499  0.391-   9 1.37  17 1.38
  42  0.655  0.505  0.391-  13 1.37  18 1.38
  43  0.377  0.492  0.362-  20 0.97  17 1.36
  44  0.877  0.515  0.362-  21 0.97  18 1.36
  45  0.853  0.433  0.631-  22 0.96   8 1.47
  46  0.859  0.597  0.628-  23 0.96   8 1.48
 
  LATTYP: Found a simple orthorhombic cell.
 ALAT       =     8.7025000000
 B/A-ratio  =     1.7236426314
 C/A-ratio  =     5.1709278943
  
  Lattice vectors:
  
 A1 = (   0.0000000000,  -8.7025000000,   0.0000000000)
 A2 = (  15.0000000000,   0.0000000000,   0.0000000000)
 A3 = (   0.0000000000,   0.0000000000,  45.0000000000)


Analysis of symmetry for initial positions (statically):
=====================================================================
 Subroutine PRICEL returns:
 Original cell was already a primitive cell.
 

 Routine SETGRP: Setting up the symmetry group for a 
 simple orthorhombic supercell.


 Subroutine GETGRP returns: Found  1 space group operations
 (whereof  1 operations were pure point group operations)
 out of a pool of  8 trial point group operations.


The static configuration has the point symmetry C_1 .


Analysis of symmetry for dynamics (positions and initial velocities):
=====================================================================
 Subroutine PRICEL returns:
 Original cell was already a primitive cell.
 

 Routine SETGRP: Setting up the symmetry group for a 
 simple orthorhombic supercell.


 Subroutine GETGRP returns: Found  1 space group operations
 (whereof  1 operations were pure point group operations)
 out of a pool of  8 trial point group operations.


The dynamic configuration has the point symmetry C_1 .


Analysis of constrained symmetry for selective dynamics:
=====================================================================
 Subroutine PRICEL returns:
 Original cell was already a primitive cell.
 

 Routine SETGRP: Setting up the symmetry group for a 
 simple orthorhombic supercell.


 Subroutine GETGRP returns: Found  1 space group operations
 (whereof  1 operations were pure point group operations)
 out of a pool of  8 trial point group operations.


The constrained configuration has the point symmetry C_1 .


Analysis of structural, dynamic, and magnetic symmetry:
=====================================================================
 Subroutine PRICEL returns:
 Original cell was already a primitive cell.
 

 Routine SETGRP: Setting up the symmetry group for a 
 simple orthorhombic supercell.


 Subroutine GETGRP returns: Found  1 space group operations
 (whereof  1 operations were pure point group operations)
 out of a pool of  8 trial point group operations.


The magnetic configuration has the point symmetry C_1 .


 Subroutine INISYM returns: Found  1 space group operations
 (whereof  1 operations are pure point group operations),
 and found     1 'primitive' translations

 
 
 KPOINTS: K-Point Grid                            

Automatic generation of k-mesh.
Space group operators:
 irot       det(A)        alpha          n_x          n_y          n_z        tau_x        tau_y        tau_z
    1     1.000000     0.000001     1.000000     0.000000     0.000000     0.000000     0.000000     0.000000
 
 Subroutine IBZKPT returns following result:
 ===========================================
 
 Found      8 irreducible k-points:
 
 Following reciprocal coordinates:
            Coordinates               Weight
  0.125000  0.125000  0.000000      2.000000
  0.375000  0.125000  0.000000      2.000000
 -0.375000  0.125000  0.000000      2.000000
 -0.125000  0.125000  0.000000      2.000000
  0.125000  0.375000  0.000000      2.000000
  0.375000  0.375000  0.000000      2.000000
 -0.375000  0.375000  0.000000      2.000000
 -0.125000  0.375000  0.000000      2.000000
 
 Following cartesian coordinates:
            Coordinates               Weight
  0.008333 -0.014364  0.000000      2.000000
  0.008333 -0.043091  0.000000      2.000000
  0.008333  0.043091  0.000000      2.000000
  0.008333  0.014364  0.000000      2.000000
  0.025000 -0.014364  0.000000      2.000000
  0.025000 -0.043091  0.000000      2.000000
  0.025000  0.043091  0.000000      2.000000
  0.025000  0.014364  0.000000      2.000000
 


--------------------------------------------------------------------------------------------------------




 Dimension of arrays:
   k-points           NKPTS =      8   k-points in BZ     NKDIM =      8   number of bands    NBANDS=    140
   number of dos      NEDOS =   1200   number of ions     NIONS =     46
   non local maximal  LDIM  =      4   non local SUM 2l+1 LMDIM =      8
   total plane-waves  NPLWV = ******
   max r-space proj   IRMAX =   5874   max aug-charges    IRDMAX=   8004
   dimension x,y,z NGX =    70 NGY =  120 NGZ =  350
   dimension x,y,z NGXF=   140 NGYF=  240 NGZF=  700
   support grid    NGXF=   140 NGYF=  240 NGZF=  700
   ions per type =              18   5  14   9
   NGX,Y,Z   is equivalent  to a cutoff of  13.37, 13.30, 12.93 a.u.
   NGXF,Y,Z  is equivalent  to a cutoff of  26.74, 26.60, 25.86 a.u.

 SYSTEM =  SiC                                     
 POSCAR =  B H N O                                 

 Startparameter for this run:
   NWRITE =      2    write-flag & timer
   PREC   = accura    normal or accurate (medium, high low for compatibility)
   ISTART =      1    job   : 0-new  1-cont  2-samecut
   ICHARG =      0    charge: 1-file 2-atom 10-const
   ISPIN  =      2    spin polarized calculation?
   LNONCOLLINEAR =      F non collinear calculations
   LSORBIT =      F    spin-orbit coupling
   INIWAV =      1    electr: 0-lowe 1-rand  2-diag
   LASPH  =      T    aspherical Exc in radial PAW
   METAGGA=      F    non-selfconsistent MetaGGA calc.

 Electronic Relaxation 1
   ENCUT  =  550.0 eV  40.42 Ry    6.36 a.u.  16.64 28.68 86.05*2*pi/ulx,y,z
   ENINI  =  550.0     initial cutoff
   ENAUG  =  627.1 eV  augmentation charge cutoff
   NELM   =    100;   NELMIN=  2; NELMDL=  0     # of ELM steps 
   EDIFF  = 0.1E-04   stopping-criterion for ELM
   LREAL  =      T    real-space projection
   NLSPLINE    = F    spline interpolate recip. space projectors
   LCOMPAT=      F    compatible to vasp.4.4
   GGA_COMPAT  = T    GGA compatible to vasp.4.4-vasp.4.6
   LMAXPAW     = -100 max onsite density
   LMAXMIX     =    2 max onsite mixed and CHGCAR
   VOSKOWN=      0    Vosko Wilk Nusair interpolation
   ROPT   =   -0.00025  -0.00025  -0.00025  -0.00025
 Ionic relaxation
   EDIFFG = -.2E-01   stopping-criterion for IOM
   NSW    =    500    number of steps for IOM
   NBLOCK =      1;   KBLOCK =    500    inner block; outer block 
   IBRION =      2    ionic relax: 0-MD 1-quasi-New 2-CG
   NFREE  =      1    steps in history (QN), initial steepest desc. (CG)
   ISIF   =      2    stress and relaxation
   IWAVPR =     11    prediction:  0-non 1-charg 2-wave 3-comb
   ISYM   =      2    0-nonsym 1-usesym 2-fastsym
   LCORR  =      T    Harris-Foulkes like correction to forces

   POTIM  = 0.5000    time-step for ionic-motion
   TEIN   =    0.0    initial temperature
   TEBEG  =    0.0;   TEEND  =   0.0 temperature during run
   SMASS  =  -3.00    Nose mass-parameter (am)
   estimated Nose-frequenzy (Omega)   =  0.10E-29 period in steps =****** mass=  -0.173E-26a.u.
   SCALEE = 1.0000    scale energy and forces
   NPACO  =    256;   APACO  = 16.0  distance and # of slots for P.C.
   PSTRESS=    0.0 pullay stress

  Mass of Ions in am
   POMASS =  10.81  1.00 14.00 16.00
  Ionic Valenz
   ZVAL   =   3.00  1.00  5.00  6.00
  Atomic Wigner-Seitz radii
   RWIGS  =  -1.00 -1.00 -1.00 -1.00
  virtual crystal weights 
   VCA    =   1.00  1.00  1.00  1.00
   NELECT =     184.0000    total number of electrons
   NUPDOWN=      -1.0000    fix difference up-down

 DOS related values:
   EMIN   =  10.00;   EMAX   =-10.00  energy-range for DOS
   EFERMI =   0.00
   ISMEAR =     0;   SIGMA  =   0.05  broadening in eV -4-tet -1-fermi 0-gaus

 Electronic relaxation 2 (details)
   IALGO  =     68    algorithm
   LDIAG  =      T    sub-space diagonalisation (order eigenvalues)
   LSUBROT=      F    optimize rotation matrix (better conditioning)
   TURBO    =      0    0=normal 1=particle mesh
   IRESTART =      0    0=no restart 2=restart with 2 vectors
   NREBOOT  =      0    no. of reboots
   NMIN     =      0    reboot dimension
   EREF     =   0.00    reference energy to select bands
   IMIX   =      4    mixing-type and parameters
     AMIX     =   0.40;   BMIX     =  1.00
     AMIX_MAG =   1.60;   BMIX_MAG =  1.00
     AMIN     =   0.10
     WC   =   100.;   INIMIX=   1;  MIXPRE=   1;  MAXMIX= -45

 Intra band minimization:
   WEIMIN = 0.0010     energy-eigenvalue tresh-hold
   EBREAK =  0.18E-07  absolut break condition
   DEPER  =   0.30     relativ break condition  

   TIME   =   0.40     timestep for ELM

  volume/ion in A,a.u.               =     127.70       861.76
  Fermi-wavevector in a.u.,A,eV,Ry     =   0.516058  0.975207  3.623441  0.266315
  Thomas-Fermi vector in A             =   1.531803
 
 Write flags
   LWAVE        =      T    write WAVECAR
   LDOWNSAMPLE  =      F    k-point downsampling of WAVECAR
   LCHARG       =      F    write CHGCAR
   LVTOT        =      F    write LOCPOT, total local potential
   LVHAR        =      T    write LOCPOT, Hartree potential only
   LELF         =      F    write electronic localiz. function (ELF)
   LORBIT       =     11    0 simple, 1 ext, 2 COOP (PROOUT), +10 PAW based schemes


 Dipole corrections
   LMONO  =      F    monopole corrections only (constant potential shift)
   LDIPOL =      F    correct potential (dipole corrections)
   IDIPOL =      0    1-x, 2-y, 3-z, 4-all directions 
   EPSILON=  1.0000000 bulk dielectric constant

 Exchange correlation treatment:
   GGA     =    --    GGA type
   LEXCH   =     8    internal setting for exchange type
   VOSKOWN=      0    Vosko Wilk Nusair interpolation
   LHFCALC =     F    Hartree Fock is set to
   LHFONE  =     F    Hartree Fock one center treatment
   AEXX    =    0.0000 exact exchange contribution

 Linear response parameters
   LEPSILON=     F    determine dielectric tensor
   LRPA    =     F    only Hartree local field effects (RPA)
   LNABLA  =     F    use nabla operator in PAW spheres
   LVEL    =     F    velocity operator in full k-point grid
   LINTERFAST=   F  fast interpolation
   KINTER  =     0    interpolate to denser k-point grid
   CSHIFT  =0.1000    complex shift for real part using Kramers Kronig
   OMEGAMAX=  -1.0    maximum frequency
   DEG_THRESHOLD= 0.2000000E-02 threshold for treating states as degnerate
   RTIME   =   -0.100 relaxation time in fs
  (WPLASMAI=    0.000 imaginary part of plasma frequency in eV, 0.658/RTIME)
   DFIELD  = 0.0000000 0.0000000 0.0000000 field for delta impulse in time
 
 Orbital magnetization related:
   ORBITALMAG=     F  switch on orbital magnetization
   LCHIMAG   =     F  perturbation theory with respect to B field
   DQ        =  0.001000  dq finite difference perturbation B field
   LLRAUG    =     F  two centre corrections for induced B field

 Solvation model:
   LSOL    =     T         switch on solvation model
   EB_K    = 78.400000     relative permittivity of the bulk solvent
   SIGMA_K =  0.600000     width of the dielectric cavity
   NC_K    =  0.002500     cutoff charge density
   TAU     =  0.000000     cavity surface tension
   LAMBDA_D_K    =  3.040000     Debye length in Angstroms
   LRHOB     =     F     write boundcharge  density
   LRHOION     =     F     write ioniccharge density



--------------------------------------------------------------------------------------------------------


 conjugate gradient relaxation of ions
   using selective dynamics as specified on POSCAR
 charge density and potential will be updated during run
 spin polarized calculation
 RMM-DIIS sequential band-by-band and
  variant of blocked Davidson during initial phase
 perform sub-space diagonalisation
    before iterative eigenvector-optimisation
 modified Broyden-mixing scheme, WC =      100.0
 initial mixing is a Kerker type mixing with AMIX =  0.4000 and BMIX =      1.0000
 Hartree-type preconditioning will be used
 using additional bands           48
 real space projection scheme for non local part
 use partial core corrections
 calculate Harris-corrections to forces 
   (improved forces if not selfconsistent)
 use gradient corrections 
 use of overlap-Matrix (Vanderbilt PP)
 Gauss-broadening in eV      SIGMA  =   0.05


--------------------------------------------------------------------------------------------------------


  energy-cutoff  :      550.00
  volume of cell :     5874.19
      direct lattice vectors                 reciprocal lattice vectors
     0.000000000 -8.702500000  0.000000000     0.000000000 -0.114909509  0.000000000
    15.000000000  0.000000000  0.000000000     0.066666667  0.000000000  0.000000000
     0.000000000  0.000000000 45.000000000     0.000000000  0.000000000  0.022222222

  length of vectors
     8.702500000 15.000000000 45.000000000     0.114909509  0.066666667  0.022222222


 
 old parameters found on file WAVECAR:
  energy-cutoff  :      550.00
  volume of cell :     5874.19
      direct lattice vectors                 reciprocal lattice vectors
     0.000000000 -8.702500000  0.000000000     0.000000000 -0.114909509  0.000000000
    15.000000000  0.000000000  0.000000000     0.066666667  0.000000000  0.000000000
     0.000000000  0.000000000 45.000000000     0.000000000  0.000000000  0.022222222

  length of vectors

 
 k-points in units of 2pi/SCALE and weight: K-Point Grid                            
   0.00833333 -0.01436369  0.00000000       0.125
   0.00833333 -0.04309107  0.00000000       0.125
   0.00833333  0.04309107  0.00000000       0.125
   0.00833333  0.01436369  0.00000000       0.125
   0.02500000 -0.01436369  0.00000000       0.125
   0.02500000 -0.04309107  0.00000000       0.125
   0.02500000  0.04309107  0.00000000       0.125
   0.02500000  0.01436369  0.00000000       0.125
 
 k-points in reciprocal lattice and weights: K-Point Grid                            
   0.12500000  0.12500000  0.00000000       0.125
   0.37500000  0.12500000  0.00000000       0.125
  -0.37500000  0.12500000  0.00000000       0.125
  -0.12500000  0.12500000  0.00000000       0.125
   0.12500000  0.37500000  0.00000000       0.125
   0.37500000  0.37500000  0.00000000       0.125
  -0.37500000  0.37500000  0.00000000       0.125
  -0.12500000  0.37500000  0.00000000       0.125
 
 position of ions in fractional coordinates (direct lattice) 
   0.32189891  0.50010731  0.44451501
   0.32057998  0.50059370  0.50013752
   0.31946796  0.50250703  0.55570399
   0.30951847  0.50044426  0.61038041
   0.82191769  0.50157859  0.44455848
   0.82064960  0.50061564  0.50023941
   0.82064212  0.50417974  0.55622277
   0.81704960  0.51301557  0.61361178
   0.07175368  0.50128509  0.41708576
   0.07104507  0.50045387  0.47243579
   0.06965093  0.50137902  0.52773887
   0.06670689  0.50439502  0.58287602
   0.57174905  0.50178105  0.41713580
   0.57125248  0.50028909  0.47254652
   0.57049426  0.50164090  0.52805353
   0.57036131  0.50744730  0.58381157
   0.31328490  0.49700670  0.38958305
   0.81325845  0.50777137  0.38963301
   0.29202014  0.48996872  0.65310323
   0.29928167  0.48966340  0.34663464
   0.79904377  0.51738947  0.34674025
   0.77924270  0.42934254  0.64737259
   0.77645607  0.61463730  0.64137516
   0.15487996  0.50040006  0.44473734
   0.15414052  0.50048915  0.50001177
   0.15307883  0.50226653  0.55523860
   0.65488192  0.50093276  0.44480530
   0.65409404  0.50038429  0.50016394
   0.65280211  0.50393391  0.55557234
   0.40508441  0.49983587  0.41646981
   0.40465285  0.50020300  0.47228900
   0.40356055  0.50132427  0.52786414
   0.40160345  0.50392141  0.58365467
   0.90509237  0.50361547  0.41649722
   0.90457155  0.50037974  0.47231364
   0.90350775  0.50151251  0.52788104
   0.90353481  0.50668375  0.58352140
   0.15180405  0.50359059  0.60884264
   0.64804541  0.51477090  0.60923993
   0.37180054  0.49256373  0.63818938
   0.15494540  0.49900872  0.39121050
   0.65496430  0.50538519  0.39128354
   0.37676112  0.49162151  0.36200640
   0.87662903  0.51478090  0.36207944
   0.85280251  0.43324433  0.63143554
   0.85927052  0.59737368  0.62841236
 
 position of ions in cartesian coordinates  (Angst):
   7.50160965 -2.80132528 20.00317526
   7.50890553 -2.78984727 22.50618819
   7.53760550 -2.78016990 25.00667965
   7.50666383 -2.69358452 27.46711846
   7.52367892 -7.15273873 20.00513176
   7.50923466 -7.14170313 22.51077323
   7.56269606 -7.14163805 25.03002446
   7.69523352 -7.11037416 27.61252999
   7.51927633 -0.62443638 18.76885900
   7.50680802 -0.61826971 21.25961061
   7.52068531 -0.60613725 23.74824912
   7.56592537 -0.58051667 26.22942104
   7.52671579 -4.97564612 18.77111122
   7.50433632 -4.97132470 21.26459346
   7.52461344 -4.96472628 23.76240866
   7.61170950 -4.96356927 26.27152049
   7.45510048 -2.72636185 17.53123713
   7.61657059 -7.07738168 17.53348530
   7.34953083 -2.54130527 29.38964556
   7.34495095 -2.60449875 15.59855874
   7.76084199 -6.95367838 15.60331113
   6.44013814 -6.78135962 29.13176633
   9.21955948 -6.75710897 28.86188225
   7.50600096 -1.34784286 20.01318046
   7.50733726 -1.34140784 22.50052965
   7.53399793 -1.33216855 24.98573707
   7.51399139 -5.69910988 20.01623838
   7.50576438 -5.69225336 22.50737712
   7.55900860 -5.68101037 25.00075535
   7.49753801 -3.52524705 18.74114125
   7.50304500 -3.52149145 21.25300510
   7.51986408 -3.51198570 23.75388640
   7.55882109 -3.49495405 26.26446032
   7.55423210 -7.87656638 18.74237483
   7.50569611 -7.87203392 21.25411377
   7.52268762 -7.86277619 23.75464673
   7.60025630 -7.86301168 26.25846291
   7.55385880 -1.32107476 27.39791896
   7.72156353 -5.63961517 27.41579676
   7.38845589 -3.23559417 28.71852196
   7.48513073 -1.34841235 17.60447257
   7.58077787 -5.69982678 17.60775947
   7.37432270 -3.27876366 16.29028778
   7.72171357 -7.62886415 16.29357501
   6.49866493 -7.42151382 28.41459922
   8.96060519 -7.47780167 28.27855609
 


--------------------------------------------------------------------------------------------------------


 k-point  1 :   0.1250 0.1250 0.0000  plane waves:  172058
 k-point  2 :   0.3750 0.1250 0.0000  plane waves:  171988
 k-point  3 :  -0.3750 0.1250 0.0000  plane waves:  171988
 k-point  4 :  -0.1250 0.1250 0.0000  plane waves:  172058
 k-point  5 :   0.1250 0.3750 0.0000  plane waves:  172081
 k-point  6 :   0.3750 0.3750 0.0000  plane waves:  171978
 k-point  7 :  -0.3750 0.3750 0.0000  plane waves:  171978
 k-point  8 :  -0.1250 0.3750 0.0000  plane waves:  172081

 maximum and minimum number of plane-waves per node :     14366    14280

 maximum number of plane-waves:    172081
 maximum index in each direction: 
   IXMAX=   17   IYMAX=   28   IZMAX=   86
   IXMIN=  -17   IYMIN=  -29   IZMIN=  -86


 real space projection operators:
  total allocation   :      11196.88 KBytes
  max/ min on nodes  :        961.45        838.80


 parallel 3D FFT for wavefunctions:
    minimum data exchange during FFTs selected (reduces bandwidth)
 parallel 3D FFT for charge:
    minimum data exchange during FFTs selected (reduces bandwidth)


 total amount of memory used by VASP MPI-rank0   282014. kBytes
=======================================================================

   base      :      30000. kBytes
   nonlr-proj:       5750. kBytes
   fftplans  :      24463. kBytes
   grid      :      92897. kBytes
   one-center:         24. kBytes
   wavefun   :     128880. kBytes
 
     INWAV:  cpu time   25.2224: real time   38.3067
 Broyden mixing: mesh for mixing (old mesh)
   NGX = 33   NGY = 57   NGZ =173
  (NGX  =140   NGY  =240   NGZ  =700)
  gives a total of 325413 points

 charge density for first step will be calculated from the start-wavefunctions


--------------------------------------------------------------------------------------------------------


 Maximum index for non-local projection operator          592
 Maximum index for augmentation-charges          433 (set IRDMAX)


--------------------------------------------------------------------------------------------------------


 initial charge from wavefunction
 First call to EWALD:  gamma=   0.098
 Maximum number of real-space cells 5x 3x 1
 Maximum number of reciprocal cells 2x 2x 6

    FEWALD:  cpu time    0.0084: real time    0.0043


--------------------------------------- Iteration      1(   1)  ---------------------------------------


    POTLOK:  cpu time   19.2100: real time   19.1652
    SETDIJ:  cpu time    0.8934: real time    0.6982
     EDDAV:  cpu time   63.8753: real time   32.1617
       DOS:  cpu time    0.2577: real time    0.1359
    CHARGE:  cpu time    6.8665: real time    6.1232
    MIXING:  cpu time    0.1054: real time    0.0530
    --------------------------------------------
      LOOP:  cpu time   91.2086: real time   58.3374

 eigenvalue-minimisations  :  4480
 total energy-change (2. order) :-0.4154292E+03  (-0.1967054E+01)
 number of electron     184.0000002 magnetization       0.0000000
 augmentation part        9.3044964 magnetization      -0.0000002

 Broyden mixing:
  rms(total) = 0.42344E+00    rms(broyden)= 0.42324E+00
  rms(prec ) = 0.42776E+00
  weight for this iteration     100.00

 Free energy of the ion-electron system (eV)
  ---------------------------------------------------
  alpha Z        PSCENC =        29.13052198
  Ewald energy   TEWEN  =     56213.07033934
  -Hartree energ DENC   =    -64437.15190097
  -exchange      EXHF   =         0.00000000
  -V(xc)+E(xc)   XCENC  =       855.16396406
  PAW double counting   =     20518.01009941   -20598.90391314
  entropy T*S    EENTRO =        -0.00000000
  eigenvalues    EBANDS =     -2503.38654705
  atomic energy  EATOM  =      8938.23894977
  Solvation  Ediel_sol  =       570.39923693
  ---------------------------------------------------
  free energy    TOTEN  =      -415.42924966 eV

  energy without entropy =     -415.42924966  energy(sigma->0) =     -415.42924966


--------------------------------------------------------------------------------------------------------




--------------------------------------- Iteration      1(   2)  ---------------------------------------


    POTLOK:  cpu time   16.7665: real time   16.7304
    SETDIJ:  cpu time    0.6213: real time    0.4254
    EDDIAG:  cpu time   11.3623: real time    7.3799
  RMM-DIIS:  cpu time   83.5266: real time   42.0646
    ORTHCH:  cpu time    0.2704: real time    0.1358
       DOS:  cpu time    0.0070: real time    0.0035
    CHARGE:  cpu time    6.7655: real time    6.0666
    MIXING:  cpu time    0.0881: real time    0.0443
    --------------------------------------------
      LOOP:  cpu time  119.4078: real time   72.8505

 eigenvalue-minimisations  :  4480
 total energy-change (2. order) : 0.2518282E+00  (-0.8047933E-01)
 number of electron     184.0000002 magnetization       0.0000000
 augmentation part        9.2835856 magnetization      -0.0000000

 Broyden mixing:
  rms(total) = 0.24293E+00    rms(broyden)= 0.24292E+00
  rms(prec ) = 0.24581E+00
  weight for this iteration     100.00

 eigenvalues of (default mixing * dielectric matrix)
  average eigenvalue GAMMA=   2.0500
  2.0500

 Free energy of the ion-electron system (eV)
  ---------------------------------------------------
  alpha Z        PSCENC =        29.13052198
  Ewald energy   TEWEN  =     56213.07033934
  -Hartree energ DENC   =    -64442.84694878
  -exchange      EXHF   =         0.00000000
  -V(xc)+E(xc)   XCENC  =       855.17514561
  PAW double counting   =     20487.23003674   -20568.28680649
  entropy T*S    EENTRO =        -0.00000000
  eigenvalues    EBANDS =     -2499.41543237
  atomic energy  EATOM  =      8938.23894977
  Solvation  Ediel_sol  =       572.52677270
  ---------------------------------------------------
  free energy    TOTEN  =      -415.17742150 eV

  energy without entropy =     -415.17742150  energy(sigma->0) =     -415.17742150


--------------------------------------------------------------------------------------------------------




--------------------------------------- Iteration      1(   3)  ---------------------------------------


    POTLOK:  cpu time   16.8768: real time   16.8109
    SETDIJ:  cpu time    0.6389: real time    0.4431
    EDDIAG:  cpu time   11.0960: real time    7.2451
  RMM-DIIS:  cpu time   82.1768: real time   42.0648
    ORTHCH:  cpu time    0.2735: real time    0.1390
       DOS:  cpu time    0.0019: real time    0.0009
    CHARGE:  cpu time    6.6968: real time    6.0304
    MIXING:  cpu time    0.0868: real time    0.0435
    --------------------------------------------
      LOOP:  cpu time  117.8476: real time   72.7777

 eigenvalue-minimisations  :  4480
 total energy-change (2. order) : 0.1265206E+00  (-0.5160517E-01)
 number of electron     184.0000002 magnetization       0.0000000
 augmentation part        9.2653386 magnetization       0.0000005

 Broyden mixing:
  rms(total) = 0.50129E-01    rms(broyden)= 0.50111E-01
  rms(prec ) = 0.50852E-01
  weight for this iteration     100.00

 eigenvalues of (default mixing * dielectric matrix)
  average eigenvalue GAMMA=   1.5161
  0.8196  2.2127

 Free energy of the ion-electron system (eV)
  ---------------------------------------------------
  alpha Z        PSCENC =        29.13052198
  Ewald energy   TEWEN  =     56213.07033934
  -Hartree energ DENC   =    -64451.57801457
  -exchange      EXHF   =         0.00000000
  -V(xc)+E(xc)   XCENC  =       855.29068250
  PAW double counting   =     20433.39383758   -20514.52420575
  entropy T*S    EENTRO =        -0.00000000
  eigenvalues    EBANDS =     -2494.57949268
  atomic energy  EATOM  =      8938.23894977
  Solvation  Ediel_sol  =       576.50648095
  ---------------------------------------------------
  free energy    TOTEN  =      -415.05090087 eV

  energy without entropy =     -415.05090087  energy(sigma->0) =     -415.05090087


--------------------------------------------------------------------------------------------------------




--------------------------------------- Iteration      1(   4)  ---------------------------------------


    POTLOK:  cpu time   15.9508: real time   15.8718
    SETDIJ:  cpu time    0.5889: real time    0.3933
    EDDIAG:  cpu time   11.0426: real time    7.2250
  RMM-DIIS:  cpu time   83.0664: real time   41.6794
    ORTHCH:  cpu time    0.2667: real time    0.1356
       DOS:  cpu time    0.0025: real time    0.0013
    CHARGE:  cpu time    6.7300: real time    6.0539
    MIXING:  cpu time    0.0890: real time    0.0446
    --------------------------------------------
      LOOP:  cpu time  117.7369: real time   71.4049

 eigenvalue-minimisations  :  4480
 total energy-change (2. order) :-0.3161005E-02  (-0.1970012E-02)
 number of electron     184.0000002 magnetization       0.0000000
 augmentation part        9.2664232 magnetization       0.0000005

 Broyden mixing:
  rms(total) = 0.32686E-01    rms(broyden)= 0.32684E-01
  rms(prec ) = 0.33353E-01
  weight for this iteration     100.00

 eigenvalues of (default mixing * dielectric matrix)
  average eigenvalue GAMMA=   1.6047
  2.2088  1.1289  1.4764

 Free energy of the ion-electron system (eV)
  ---------------------------------------------------
  alpha Z        PSCENC =        29.13052198
  Ewald energy   TEWEN  =     56213.07033934
  -Hartree energ DENC   =    -64452.69388268
  -exchange      EXHF   =         0.00000000
  -V(xc)+E(xc)   XCENC  =       855.19031751
  PAW double counting   =     20425.76499769   -20506.88173653
  entropy T*S    EENTRO =        -0.00000000
  eigenvalues    EBANDS =     -2494.65417769
  atomic energy  EATOM  =      8938.23894977
  Solvation  Ediel_sol  =       577.78060873
  ---------------------------------------------------
  free energy    TOTEN  =      -415.05406187 eV

  energy without entropy =     -415.05406187  energy(sigma->0) =     -415.05406187


--------------------------------------------------------------------------------------------------------




--------------------------------------- Iteration      1(   5)  ---------------------------------------


    POTLOK:  cpu time   16.1992: real time   16.1226
    SETDIJ:  cpu time    0.6579: real time    0.4620
    EDDIAG:  cpu time   11.0522: real time    7.2223
  RMM-DIIS:  cpu time   82.8300: real time   41.7080
    ORTHCH:  cpu time    0.2669: real time    0.1359
       DOS:  cpu time    0.0021: real time    0.0010
    CHARGE:  cpu time    6.7259: real time    6.0515
    MIXING:  cpu time    0.0966: real time    0.0486
    --------------------------------------------
      LOOP:  cpu time  117.8308: real time   71.7519

 eigenvalue-minimisations  :  4480
 total energy-change (2. order) :-0.2961854E-02  (-0.1115777E-02)
 number of electron     184.0000002 magnetization       0.0000000
 augmentation part        9.2714799 magnetization       0.0000002

 Broyden mixing:
  rms(total) = 0.12116E-01    rms(broyden)= 0.12112E-01
  rms(prec ) = 0.12902E-01
  weight for this iteration     100.00

 eigenvalues of (default mixing * dielectric matrix)
  average eigenvalue GAMMA=   1.7400
  2.5267  1.0033  1.7151  1.7151

 Free energy of the ion-electron system (eV)
  ---------------------------------------------------
  alpha Z        PSCENC =        29.13052198
  Ewald energy   TEWEN  =     56213.07033934
  -Hartree energ DENC   =    -64454.61716171
  -exchange      EXHF   =         0.00000000
  -V(xc)+E(xc)   XCENC  =       855.17111191
  PAW double counting   =     20420.51943696   -20501.61430463
  entropy T*S    EENTRO =        -0.00000000
  eigenvalues    EBANDS =     -2494.69490592
  atomic energy  EATOM  =      8938.23894977
  Solvation  Ediel_sol  =       579.73898857
  ---------------------------------------------------
  free energy    TOTEN  =      -415.05702373 eV

  energy without entropy =     -415.05702373  energy(sigma->0) =     -415.05702373


--------------------------------------------------------------------------------------------------------




--------------------------------------- Iteration      1(   6)  ---------------------------------------


    POTLOK:  cpu time   15.7727: real time   15.7344
    SETDIJ:  cpu time    0.5976: real time    0.4016
    EDDIAG:  cpu time   11.0613: real time    7.2315
  RMM-DIIS:  cpu time   82.8009: real time   41.7053
    ORTHCH:  cpu time    0.2672: real time    0.1360
       DOS:  cpu time    0.0029: real time    0.0014
    CHARGE:  cpu time    6.7383: real time    6.0639
    MIXING:  cpu time    0.0921: real time    0.0463
    --------------------------------------------
      LOOP:  cpu time  117.3330: real time   71.3205

 eigenvalue-minimisations  :  4480
 total energy-change (2. order) :-0.2441339E-02  (-0.3324801E-03)
 number of electron     184.0000002 magnetization       0.0000000
 augmentation part        9.2693569 magnetization       0.0000000

 Broyden mixing:
  rms(total) = 0.10323E-01    rms(broyden)= 0.10323E-01
  rms(prec ) = 0.10920E-01
  weight for this iteration     100.00

 eigenvalues of (default mixing * dielectric matrix)
  average eigenvalue GAMMA=   1.6629
  2.7647  2.2115  1.0079  1.1652  1.1652

 Free energy of the ion-electron system (eV)
  ---------------------------------------------------
  alpha Z        PSCENC =        29.13052198
  Ewald energy   TEWEN  =     56213.07033934
  -Hartree energ DENC   =    -64457.58467267
  -exchange      EXHF   =         0.00000000
  -V(xc)+E(xc)   XCENC  =       855.23177235
  PAW double counting   =     20418.62770184   -20499.72767693
  entropy T*S    EENTRO =        -0.00000000
  eigenvalues    EBANDS =     -2493.54337119
  atomic energy  EATOM  =      8938.23894977
  Solvation  Ediel_sol  =       581.49697044
  ---------------------------------------------------
  free energy    TOTEN  =      -415.05946507 eV

  energy without entropy =     -415.05946507  energy(sigma->0) =     -415.05946507


--------------------------------------------------------------------------------------------------------




--------------------------------------- Iteration      1(   7)  ---------------------------------------


    POTLOK:  cpu time   15.7877: real time   15.7154
    SETDIJ:  cpu time    0.6104: real time    0.4169
    EDDIAG:  cpu time   11.0696: real time    7.2327
  RMM-DIIS:  cpu time   83.4724: real time   42.2078
    ORTHCH:  cpu time    0.2702: real time    0.1418
       DOS:  cpu time    0.0021: real time    0.0011
    CHARGE:  cpu time    6.6958: real time    6.0016
    MIXING:  cpu time    0.0951: real time    0.0478
    --------------------------------------------
      LOOP:  cpu time  118.0033: real time   71.7650

 eigenvalue-minimisations  :  4480
 total energy-change (2. order) :-0.1996783E-02  (-0.2324128E-03)
 number of electron     184.0000002 magnetization       0.0000000
 augmentation part        9.2708353 magnetization       0.0000002

 Broyden mixing:
  rms(total) = 0.37099E-02    rms(broyden)= 0.37087E-02
  rms(prec ) = 0.45582E-02
  weight for this iteration     100.00

 eigenvalues of (default mixing * dielectric matrix)
  average eigenvalue GAMMA=   1.7367
  2.8300  2.3378  1.6382  1.6382  0.9880  0.9880

 Free energy of the ion-electron system (eV)
  ---------------------------------------------------
  alpha Z        PSCENC =        29.13052198
  Ewald energy   TEWEN  =     56213.07033934
  -Hartree energ DENC   =    -64459.37356187
  -exchange      EXHF   =         0.00000000
  -V(xc)+E(xc)   XCENC  =       855.21433348
  PAW double counting   =     20417.51353463   -20498.60439885
  entropy T*S    EENTRO =        -0.00000000
  eigenvalues    EBANDS =     -2493.38390449
  atomic energy  EATOM  =      8938.23894977
  Solvation  Ediel_sol  =       583.13272417
  ---------------------------------------------------
  free energy    TOTEN  =      -415.06146185 eV

  energy without entropy =     -415.06146185  energy(sigma->0) =     -415.06146185


--------------------------------------------------------------------------------------------------------




--------------------------------------- Iteration      1(   8)  ---------------------------------------


    POTLOK:  cpu time   15.5212: real time   15.4447
    SETDIJ:  cpu time    0.5983: real time    0.4023
    EDDIAG:  cpu time   11.0390: real time    7.2211
  RMM-DIIS:  cpu time   83.4241: real time   41.8262
    ORTHCH:  cpu time    0.2673: real time    0.1361
       DOS:  cpu time    0.0196: real time    0.0098
    CHARGE:  cpu time    6.7158: real time    6.0464
    MIXING:  cpu time    0.1001: real time    0.0505
    --------------------------------------------
      LOOP:  cpu time  117.6854: real time   71.1372

 eigenvalue-minimisations  :  4480
 total energy-change (2. order) :-0.2291760E-02  (-0.1397717E-03)
 number of electron     184.0000002 magnetization       0.0000000
 augmentation part        9.2717038 magnetization      -0.0000011

 Broyden mixing:
  rms(total) = 0.58308E-02    rms(broyden)= 0.58300E-02
  rms(prec ) = 0.61511E-02
  weight for this iteration     100.00

 eigenvalues of (default mixing * dielectric matrix)
  average eigenvalue GAMMA=   1.7710
  3.6757  2.5958  1.9771  1.0709  1.0709  0.9554  1.0515

 Free energy of the ion-electron system (eV)
  ---------------------------------------------------
  alpha Z        PSCENC =        29.13052198
  Ewald energy   TEWEN  =     56213.07033934
  -Hartree energ DENC   =    -64461.91175072
  -exchange      EXHF   =         0.00000000
  -V(xc)+E(xc)   XCENC  =       855.22127522
  PAW double counting   =     20416.93667365   -20498.02644201
  entropy T*S    EENTRO =        -0.00000000
  eigenvalues    EBANDS =     -2493.07542161
  atomic energy  EATOM  =      8938.23894977
  Solvation  Ediel_sol  =       585.35210078
  ---------------------------------------------------
  free energy    TOTEN  =      -415.06375361 eV

  energy without entropy =     -415.06375361  energy(sigma->0) =     -415.06375361


--------------------------------------------------------------------------------------------------------




--------------------------------------- Iteration      1(   9)  ---------------------------------------


    POTLOK:  cpu time   15.5011: real time   15.4318
    SETDIJ:  cpu time    0.6105: real time    0.4146
    EDDIAG:  cpu time   11.0585: real time    7.2286
  RMM-DIIS:  cpu time   83.3643: real time   41.7837
    ORTHCH:  cpu time    0.2697: real time    0.1359
       DOS:  cpu time    0.0048: real time    0.0024
    CHARGE:  cpu time    6.7286: real time    6.0550
    MIXING:  cpu time    0.0955: real time    0.0479
    --------------------------------------------
      LOOP:  cpu time  117.6329: real time   71.0998

 eigenvalue-minimisations  :  4480
 total energy-change (2. order) :-0.1257202E-02  (-0.1256102E-03)
 number of electron     184.0000002 magnetization       0.0000000
 augmentation part        9.2705829 magnetization       0.0000001

 Broyden mixing:
  rms(total) = 0.17963E-02    rms(broyden)= 0.17941E-02
  rms(prec ) = 0.20752E-02
  weight for this iteration     100.00

 eigenvalues of (default mixing * dielectric matrix)
  average eigenvalue GAMMA=   1.8730
  5.0357  2.6078  1.9736  1.3022  1.3022  1.0168  1.0168  0.7291

 Free energy of the ion-electron system (eV)
  ---------------------------------------------------
  alpha Z        PSCENC =        29.13052198
  Ewald energy   TEWEN  =     56213.07033934
  -Hartree energ DENC   =    -64464.51822509
  -exchange      EXHF   =         0.00000000
  -V(xc)+E(xc)   XCENC  =       855.24637685
  PAW double counting   =     20416.90813293   -20498.00158526
  entropy T*S    EENTRO =        -0.00000000
  eigenvalues    EBANDS =     -2492.42352515
  atomic energy  EATOM  =      8938.23894977
  Solvation  Ediel_sol  =       587.28400381
  ---------------------------------------------------
  free energy    TOTEN  =      -415.06501081 eV

  energy without entropy =     -415.06501081  energy(sigma->0) =     -415.06501081


--------------------------------------------------------------------------------------------------------




--------------------------------------- Iteration      1(  10)  ---------------------------------------


    POTLOK:  cpu time   14.8260: real time   14.7533
    SETDIJ:  cpu time    0.6004: real time    0.4049
    EDDIAG:  cpu time   11.0424: real time    7.2228
  RMM-DIIS:  cpu time   82.0094: real time   41.2801
    ORTHCH:  cpu time    0.2683: real time    0.1363
       DOS:  cpu time    0.0053: real time    0.0027
    CHARGE:  cpu time    6.7492: real time    6.0572
    MIXING:  cpu time    0.0957: real time    0.0480
    --------------------------------------------
      LOOP:  cpu time  115.5967: real time   69.9052

 eigenvalue-minimisations  :  4430
 total energy-change (2. order) :-0.7162807E-03  (-0.3428605E-04)
 number of electron     184.0000002 magnetization       0.0000000
 augmentation part        9.2704682 magnetization      -0.0000003

 Broyden mixing:
  rms(total) = 0.20085E-02    rms(broyden)= 0.20081E-02
  rms(prec ) = 0.21406E-02
  weight for this iteration     100.00

 eigenvalues of (default mixing * dielectric matrix)
  average eigenvalue GAMMA=   1.9216
  6.0288  2.6202  1.8925  1.8925  1.0807  1.0807  1.0771  0.9943  0.6273

 Free energy of the ion-electron system (eV)
  ---------------------------------------------------
  alpha Z        PSCENC =        29.13052198
  Ewald energy   TEWEN  =     56213.07033934
  -Hartree energ DENC   =    -64465.83439011
  -exchange      EXHF   =         0.00000000
  -V(xc)+E(xc)   XCENC  =       855.24356014
  PAW double counting   =     20416.77578236   -20497.86881099
  entropy T*S    EENTRO =        -0.00000000
  eigenvalues    EBANDS =     -2492.27748587
  atomic energy  EATOM  =      8938.23894977
  Solvation  Ediel_sol  =       588.45580630
  ---------------------------------------------------
  free energy    TOTEN  =      -415.06572709 eV

  energy without entropy =     -415.06572709  energy(sigma->0) =     -415.06572709


--------------------------------------------------------------------------------------------------------




--------------------------------------- Iteration      1(  11)  ---------------------------------------


    POTLOK:  cpu time   14.3733: real time   14.2961
    SETDIJ:  cpu time    0.6399: real time    0.4441
    EDDIAG:  cpu time   11.0259: real time    7.2182
  RMM-DIIS:  cpu time   80.5188: real time   40.5161
    ORTHCH:  cpu time    0.2669: real time    0.1355
       DOS:  cpu time    0.0042: real time    0.0021
    CHARGE:  cpu time    6.6946: real time    6.0205
    MIXING:  cpu time    0.2392: real time    0.1695
    --------------------------------------------
      LOOP:  cpu time  113.7627: real time   68.8022

 eigenvalue-minimisations  :  4280
 total energy-change (2. order) :-0.3481132E-03  (-0.1528279E-04)
 number of electron     184.0000002 magnetization       0.0000000
 augmentation part        9.2707791 magnetization      -0.0000002

 Broyden mixing:
  rms(total) = 0.52830E-03    rms(broyden)= 0.52790E-03
  rms(prec ) = 0.72719E-03
  weight for this iteration     100.00

 eigenvalues of (default mixing * dielectric matrix)
  average eigenvalue GAMMA=   2.0106
  6.9937  2.7049  2.2104  1.6773  1.6773  1.0859  1.0859  1.0268  1.0268  0.6175

 Free energy of the ion-electron system (eV)
  ---------------------------------------------------
  alpha Z        PSCENC =        29.13052198
  Ewald energy   TEWEN  =     56213.07033934
  -Hartree energ DENC   =    -64466.41769652
  -exchange      EXHF   =         0.00000000
  -V(xc)+E(xc)   XCENC  =       855.24066737
  PAW double counting   =     20416.64729635   -20497.73937032
  entropy T*S    EENTRO =        -0.00000000
  eigenvalues    EBANDS =     -2492.30393528
  atomic energy  EATOM  =      8938.23894977
  Solvation  Ediel_sol  =       589.06715211
  ---------------------------------------------------
  free energy    TOTEN  =      -415.06607520 eV

  energy without entropy =     -415.06607520  energy(sigma->0) =     -415.06607520


--------------------------------------------------------------------------------------------------------




--------------------------------------- Iteration      1(  12)  ---------------------------------------


    POTLOK:  cpu time   14.2232: real time   14.2580
    SETDIJ:  cpu time    0.5503: real time    0.3543
    EDDIAG:  cpu time   11.0549: real time    7.2307
  RMM-DIIS:  cpu time   76.7528: real time   38.8186
    ORTHCH:  cpu time    0.2671: real time    0.1359
       DOS:  cpu time    0.0063: real time    0.0032
    CHARGE:  cpu time    6.7206: real time    6.0415
    MIXING:  cpu time    0.1007: real time    0.0506
    --------------------------------------------
      LOOP:  cpu time  109.6760: real time   66.8928

 eigenvalue-minimisations  :  3917
 total energy-change (2. order) :-0.4513670E-03  (-0.7708311E-05)
 number of electron     184.0000002 magnetization       0.0000000
 augmentation part        9.2707945 magnetization      -0.0000003

 Broyden mixing:
  rms(total) = 0.43076E-03    rms(broyden)= 0.43057E-03
  rms(prec ) = 0.51854E-03
  weight for this iteration     100.00

 eigenvalues of (default mixing * dielectric matrix)
  average eigenvalue GAMMA=   2.0119
  7.4534  3.0060  2.5552  1.7215  1.7215  1.0637  1.0637  1.0371  1.0371  0.8548
  0.6172

 Free energy of the ion-electron system (eV)
  ---------------------------------------------------
  alpha Z        PSCENC =        29.13052198
  Ewald energy   TEWEN  =     56213.07033934
  -Hartree energ DENC   =    -64467.25465805
  -exchange      EXHF   =         0.00000000
  -V(xc)+E(xc)   XCENC  =       855.24321536
  PAW double counting   =     20416.57835030   -20497.67056313
  entropy T*S    EENTRO =        -0.00000000
  eigenvalues    EBANDS =     -2492.26740374
  atomic energy  EATOM  =      8938.23894977
  Solvation  Ediel_sol  =       589.86472161
  ---------------------------------------------------
  free energy    TOTEN  =      -415.06652657 eV

  energy without entropy =     -415.06652657  energy(sigma->0) =     -415.06652657


--------------------------------------------------------------------------------------------------------




--------------------------------------- Iteration      1(  13)  ---------------------------------------


    POTLOK:  cpu time   13.9786: real time   13.9030
    SETDIJ:  cpu time    0.6116: real time    0.4155
    EDDIAG:  cpu time   11.0500: real time    7.2270
  RMM-DIIS:  cpu time   72.4186: real time   36.3857
    ORTHCH:  cpu time    0.2681: real time    0.1363
       DOS:  cpu time    0.0104: real time    0.0052
    CHARGE:  cpu time    6.7218: real time    6.0471
    MIXING:  cpu time    0.1039: real time    0.0523
    --------------------------------------------
      LOOP:  cpu time  105.1630: real time   64.1721

 eigenvalue-minimisations  :  3596
 total energy-change (2. order) :-0.2148026E-03  (-0.4375533E-05)
 number of electron     184.0000002 magnetization       0.0000000
 augmentation part        9.2708045 magnetization      -0.0000001

 Broyden mixing:
  rms(total) = 0.25869E-03    rms(broyden)= 0.25864E-03
  rms(prec ) = 0.31638E-03
  weight for this iteration     100.00

 eigenvalues of (default mixing * dielectric matrix)
  average eigenvalue GAMMA=   2.0524
  7.6631  3.7129  2.6373  2.0242  1.5256  1.5256  1.0902  1.0902  1.0286  1.0152
  0.6992  0.6173

 Free energy of the ion-electron system (eV)
  ---------------------------------------------------
  alpha Z        PSCENC =        29.13052198
  Ewald energy   TEWEN  =     56213.07033934
  -Hartree energ DENC   =    -64467.56354013
  -exchange      EXHF   =         0.00000000
  -V(xc)+E(xc)   XCENC  =       855.24321435
  PAW double counting   =     20416.55977027   -20497.65189783
  entropy T*S    EENTRO =        -0.00000000
  eigenvalues    EBANDS =     -2492.28400803
  atomic energy  EATOM  =      8938.23894977
  Solvation  Ediel_sol  =       590.18990891
  ---------------------------------------------------
  free energy    TOTEN  =      -415.06674137 eV

  energy without entropy =     -415.06674137  energy(sigma->0) =     -415.06674137


--------------------------------------------------------------------------------------------------------




--------------------------------------- Iteration      1(  14)  ---------------------------------------


    POTLOK:  cpu time   13.8515: real time   13.7761
    SETDIJ:  cpu time    0.5830: real time    0.3871
    EDDIAG:  cpu time   11.0482: real time    7.2223
  RMM-DIIS:  cpu time   71.0385: real time   35.6077
    ORTHCH:  cpu time    0.2672: real time    0.1358
       DOS:  cpu time    0.0021: real time    0.0011
    CHARGE:  cpu time    6.7510: real time    6.0745
    MIXING:  cpu time    0.1064: real time    0.0533
    --------------------------------------------
      LOOP:  cpu time  103.6478: real time   63.2579

 eigenvalue-minimisations  :  3480
 total energy-change (2. order) :-0.1442730E-03  (-0.2903182E-05)
 number of electron     184.0000002 magnetization       0.0000000
 augmentation part        9.2708201 magnetization      -0.0000000

 Broyden mixing:
  rms(total) = 0.18461E-03    rms(broyden)= 0.18456E-03
  rms(prec ) = 0.21062E-03
  weight for this iteration     100.00

 eigenvalues of (default mixing * dielectric matrix)
  average eigenvalue GAMMA=   2.1299
  8.5255  4.5522  2.6332  2.2330  1.6894  1.6894  1.0814  1.0814  1.0000  1.0000
  0.9358  0.6167  0.6507

 Free energy of the ion-electron system (eV)
  ---------------------------------------------------
  alpha Z        PSCENC =        29.13052198
  Ewald energy   TEWEN  =     56213.07033934
  -Hartree energ DENC   =    -64467.80827608
  -exchange      EXHF   =         0.00000000
  -V(xc)+E(xc)   XCENC  =       855.24311203
  PAW double counting   =     20416.52317196   -20497.61523271
  entropy T*S    EENTRO =        -0.00000000
  eigenvalues    EBANDS =     -2492.29614251
  atomic energy  EATOM  =      8938.23894977
  Solvation  Ediel_sol  =       590.44667057
  ---------------------------------------------------
  free energy    TOTEN  =      -415.06688565 eV

  energy without entropy =     -415.06688565  energy(sigma->0) =     -415.06688565


--------------------------------------------------------------------------------------------------------




--------------------------------------- Iteration      1(  15)  ---------------------------------------


    POTLOK:  cpu time   13.1356: real time   13.0572
    SETDIJ:  cpu time    0.6302: real time    0.4342
    EDDIAG:  cpu time   11.0620: real time    7.2269
  RMM-DIIS:  cpu time   64.7842: real time   32.7070
    ORTHCH:  cpu time    0.2677: real time    0.1361
       DOS:  cpu time    0.0038: real time    0.0019
    CHARGE:  cpu time    6.7346: real time    6.0238
    MIXING:  cpu time    0.1056: real time    0.0529
    --------------------------------------------
      LOOP:  cpu time   96.7236: real time   59.6400

 eigenvalue-minimisations  :  3069
 total energy-change (2. order) :-0.5810208E-04  (-0.1310789E-05)
 number of electron     184.0000002 magnetization       0.0000000
 augmentation part        9.2708105 magnetization      -0.0000001

 Broyden mixing:
  rms(total) = 0.10418E-03    rms(broyden)= 0.10416E-03
  rms(prec ) = 0.11991E-03
  weight for this iteration     100.00

 eigenvalues of (default mixing * dielectric matrix)
  average eigenvalue GAMMA=   2.1230
  8.9762  4.8142  2.6457  2.3038  1.9200  1.1356  1.1356  1.2461  1.2461  1.1189
  0.9624  0.9624  0.6177  0.6366

 Free energy of the ion-electron system (eV)
  ---------------------------------------------------
  alpha Z        PSCENC =        29.13052198
  Ewald energy   TEWEN  =     56213.07033934
  -Hartree energ DENC   =    -64467.95995211
  -exchange      EXHF   =         0.00000000
  -V(xc)+E(xc)   XCENC  =       855.24343390
  PAW double counting   =     20416.49523264   -20497.58734497
  entropy T*S    EENTRO =        -0.00000000
  eigenvalues    EBANDS =     -2492.29154758
  atomic energy  EATOM  =      8938.23894977
  Solvation  Ediel_sol  =       590.59342327
  ---------------------------------------------------
  free energy    TOTEN  =      -415.06694375 eV

  energy without entropy =     -415.06694375  energy(sigma->0) =     -415.06694375


--------------------------------------------------------------------------------------------------------




--------------------------------------- Iteration      1(  16)  ---------------------------------------


    POTLOK:  cpu time   12.5944: real time   12.5153
    SETDIJ:  cpu time    0.5975: real time    0.4015
    EDDIAG:  cpu time   11.0654: real time    7.2338
  RMM-DIIS:  cpu time   64.4627: real time   32.7826
    ORTHCH:  cpu time    0.2763: real time    0.1404
       DOS:  cpu time    0.0021: real time    0.0010
    CHARGE:  cpu time    6.7267: real time    6.0529
    MIXING:  cpu time    0.1109: real time    0.0556
    --------------------------------------------
      LOOP:  cpu time   95.8360: real time   59.1832

 eigenvalue-minimisations  :  3008
 total energy-change (2. order) :-0.2945358E-04  (-0.6621314E-06)
 number of electron     184.0000002 magnetization       0.0000000
 augmentation part        9.2707948 magnetization       0.0000001

 Broyden mixing:
  rms(total) = 0.88443E-04    rms(broyden)= 0.88419E-04
  rms(prec ) = 0.97101E-04
  weight for this iteration     100.00

 eigenvalues of (default mixing * dielectric matrix)
  average eigenvalue GAMMA=   2.1639
  9.5003  5.3032  2.7635  2.3753  2.0415  1.6562  1.6562  1.0909  1.0909  1.0163
  0.9934  0.9934  0.7361  0.6157  0.6262

 Free energy of the ion-electron system (eV)
  ---------------------------------------------------
  alpha Z        PSCENC =        29.13052198
  Ewald energy   TEWEN  =     56213.07033934
  -Hartree energ DENC   =    -64468.02714106
  -exchange      EXHF   =         0.00000000
  -V(xc)+E(xc)   XCENC  =       855.24355393
  PAW double counting   =     20416.47760841   -20497.56974906
  entropy T*S    EENTRO =        -0.00000000
  eigenvalues    EBANDS =     -2492.28778317
  atomic energy  EATOM  =      8938.23894977
  Solvation  Ediel_sol  =       590.65672666
  ---------------------------------------------------
  free energy    TOTEN  =      -415.06697320 eV

  energy without entropy =     -415.06697320  energy(sigma->0) =     -415.06697320


--------------------------------------------------------------------------------------------------------




--------------------------------------- Iteration      1(  17)  ---------------------------------------


    POTLOK:  cpu time   12.4398: real time   12.3631
    SETDIJ:  cpu time    0.6178: real time    0.4219
    EDDIAG:  cpu time   11.0822: real time    7.2405
  RMM-DIIS:  cpu time   64.2105: real time   32.2757
    ORTHCH:  cpu time    0.2676: real time    0.1359
       DOS:  cpu time    0.0021: real time    0.0010
    CHARGE:  cpu time    6.7110: real time    6.0269
    MIXING:  cpu time    0.1093: real time    0.0548
    --------------------------------------------
      LOOP:  cpu time   95.4402: real time   58.5198

 eigenvalue-minimisations  :  3008
 total energy-change (2. order) :-0.1886898E-04  (-0.5472718E-06)
 number of electron     184.0000002 magnetization       0.0000000
 augmentation part        9.2707892 magnetization      -0.0000003

 Broyden mixing:
  rms(total) = 0.69980E-04    rms(broyden)= 0.69974E-04
  rms(prec ) = 0.74822E-04
  weight for this iteration     100.00

 eigenvalues of (default mixing * dielectric matrix)
  average eigenvalue GAMMA=   2.1317
  9.6845  5.5524  2.9543  2.5402  1.9591  1.9591  1.1034  1.1034  1.2636  1.0275
  1.0275  1.0363  0.9802  0.6812  0.6271  0.6069

 Free energy of the ion-electron system (eV)
  ---------------------------------------------------
  alpha Z        PSCENC =        29.13052198
  Ewald energy   TEWEN  =     56213.07033934
  -Hartree energ DENC   =    -64468.06216400
  -exchange      EXHF   =         0.00000000
  -V(xc)+E(xc)   XCENC  =       855.24351315
  PAW double counting   =     20416.46823697   -20497.56036691
  entropy T*S    EENTRO =        -0.00000000
  eigenvalues    EBANDS =     -2492.28816618
  atomic energy  EATOM  =      8938.23894977
  Solvation  Ediel_sol  =       590.69214380
  ---------------------------------------------------
  free energy    TOTEN  =      -415.06699207 eV

  energy without entropy =     -415.06699207  energy(sigma->0) =     -415.06699207


--------------------------------------------------------------------------------------------------------




--------------------------------------- Iteration      1(  18)  ---------------------------------------


    POTLOK:  cpu time   12.1590: real time   12.0827
    SETDIJ:  cpu time    0.6048: real time    0.4092
    EDDIAG:  cpu time   11.0487: real time    7.2188
  RMM-DIIS:  cpu time   64.3609: real time   32.2601
    ORTHCH:  cpu time    0.2711: real time    0.1361
       DOS:  cpu time    0.0020: real time    0.0010
    --------------------------------------------
      LOOP:  cpu time   88.4464: real time   52.1079

 eigenvalue-minimisations  :  3008
 total energy-change (2. order) :-0.7792152E-05  (-0.3265106E-06)
 number of electron     184.0000002 magnetization       0.0000000
 augmentation part        9.2707892 magnetization      -0.0000003

 Free energy of the ion-electron system (eV)
  ---------------------------------------------------
  alpha Z        PSCENC =        29.13052198
  Ewald energy   TEWEN  =     56213.07033934
  -Hartree energ DENC   =    -64468.07190501
  -exchange      EXHF   =         0.00000000
  -V(xc)+E(xc)   XCENC  =       855.24348181
  PAW double counting   =     20416.46529660   -20497.55741696
  entropy T*S    EENTRO =        -0.00000000
  eigenvalues    EBANDS =     -2492.28912181
  atomic energy  EATOM  =      8938.23894977
  Solvation  Ediel_sol  =       590.70285441
  ---------------------------------------------------
  free energy    TOTEN  =      -415.06699986 eV

  energy without entropy =     -415.06699986  energy(sigma->0) =     -415.06699986


--------------------------------------------------------------------------------------------------------




 average (electrostatic) potential at core
  the test charge radii are     0.7672  0.5201  0.7089  0.7215
  (the norm of the test charge is              1.0000)
       1 -38.4471       2 -38.2633       3 -38.1166       4 -38.7012       5 -38.4416
       6 -38.2175       7 -37.7931       8 -37.6182       9 -38.8385      10 -38.2978
      11 -38.0861      12 -38.1157      13 -38.8407      14 -38.3016      15 -38.0852
      16 -38.0065      17 -39.1038      18 -39.1026      19 -46.3292      20 -46.4861
      21 -46.4969      22 -45.4120      23 -45.4248      24 -75.9629      25 -75.8190
      26 -75.6200      27 -75.9619      28 -75.7988      29 -75.4488      30 -76.0464
      31 -75.9144      32 -75.7574      33 -75.5823      34 -76.0449      35 -75.9060
      36 -75.6612      37 -74.8444      38 -84.1023      39 -83.1157      40 -84.1910
      41 -84.5797      42 -84.5794      43 -84.4507      44 -84.4506      45 -82.6083
      46 -82.6284
 
 
 
 E-fermi :  -5.1704     XC(G=0):  -0.9163     alpha+bet : -0.6863


 spin component 1

 k-point     1 :       0.1250    0.1250    0.0000
  band No.  band energies     occupation 
      1     -27.4745      1.00000
      2     -27.2987      1.00000
      3     -27.0234      1.00000
      4     -26.5263      1.00000
      5     -26.3970      1.00000
      6     -26.0749      1.00000
      7     -25.9325      1.00000
      8     -24.7384      1.00000
      9     -24.4854      1.00000
     10     -24.2436      1.00000
     11     -23.4452      1.00000
     12     -23.4015      1.00000
     13     -22.9238      1.00000
     14     -22.7561      1.00000
     15     -22.4515      1.00000
     16     -22.2881      1.00000
     17     -22.0645      1.00000
     18     -21.6392      1.00000
     19     -21.5913      1.00000
     20     -21.4236      1.00000
     21     -21.2812      1.00000
     22     -20.9730      1.00000
     23     -20.7190      1.00000
     24     -15.1724      1.00000
     25     -15.0523      1.00000
     26     -14.7328      1.00000
     27     -14.6729      1.00000
     28     -14.3891      1.00000
     29     -14.2731      1.00000
     30     -14.1574      1.00000
[...]
   45        0.000   0.000   0.000   0.000
   46        0.000  -0.000   0.000  -0.000
--------------------------------------------------
tot          0.000   0.000   0.000   0.000
 
    CHARGE:  cpu time    0.8577: real time    0.6426
    FORLOC:  cpu time    0.2901: real time    0.1454
    FORNL :  cpu time    2.4719: real time    2.4283
    STRESS:  cpu time  120.7191: real time  110.8456
    FORCOR:  cpu time    1.3186: real time    1.2030
    FORHAR:  cpu time    0.1654: real time    0.1657
    MIXING:  cpu time    0.0470: real time    0.0470
    OFIELD:  cpu time    0.0001: real time    0.0001

  FORCE on cell =-STRESS in cart. coord.  units (eV):
  Direction    XX          YY          ZZ          XY          YZ          ZX
  --------------------------------------------------------------------------------------
  Alpha Z    29.13052    29.13052    29.13052
  Ewald   19497.81241 61956.57196-25244.37018     7.51169    36.00776   166.28821
  Hartree 25932.47003 62970.38907-24437.90076    -1.99109     7.08993   148.47025
  E(xc)    -798.00991  -793.37033  -793.67476    -0.08481    -0.36434    -0.01779
  Local  -47771.76850************ 47681.07944    -1.77847   -30.26644  -312.40797
  n-local  -446.90269  -454.09305  -453.48177    -0.01342     0.32573    -0.02873
  augment    87.67155    79.89360    79.14172    -0.24931    -1.09327    -0.09951
  Kinetic  3468.77771  3144.24869  3141.07922    -3.30986   -12.09192    -2.14610
  Fock        0.00000     0.00000     0.00000     0.00000     0.00000     0.00000
  -------------------------------------------------------------------------------------
  Total      -0.81888    -8.37649     1.00343     0.08473    -0.39257     0.05836
  in kB      -0.22335    -2.28468     0.27368     0.02311    -0.10707     0.01592
  external pressure =       -0.74 kB  Pullay stress =        0.00 kB


 VOLUME and BASIS-vectors are now :
 -----------------------------------------------------------------------------
  energy-cutoff  :      550.00
  volume of cell :     5874.19
      direct lattice vectors                 reciprocal lattice vectors
     0.000000000 -8.702500000  0.000000000     0.000000000 -0.114909509  0.000000000
    15.000000000  0.000000000  0.000000000     0.066666667  0.000000000  0.000000000
     0.000000000  0.000000000 45.000000000     0.000000000  0.000000000  0.022222222

  length of vectors
     8.702500000 15.000000000 45.000000000     0.114909509  0.066666667  0.022222222


 FORCES acting on ions
    electron-ion (+dipol)            ewald-force                    non-local-force                 convergence-correction
 -----------------------------------------------------------------------------------------------
   0.205E+01 0.151E+01 0.122E+03   -.204E+01 -.161E+01 -.121E+03   -.297E-02 0.944E-01 -.206E+00   0.810E-03 -.289E-04 -.114E-03
   0.302E+01 0.427E-01 0.149E+02   -.299E+01 -.660E-01 -.131E+02   -.176E-01 0.427E-01 -.201E+00   -.355E-03 -.533E-03 -.137E-02
   0.139E+01 0.341E+01 -.940E+02   -.134E+01 -.344E+01 0.955E+02   -.120E-01 0.103E-01 -.150E+00   -.108E-02 0.672E-03 0.325E-03
   0.376E+01 0.217E+02 -.234E+03   -.366E+01 -.227E+02 0.233E+03   -.426E-02 0.107E+01 0.122E+01   -.167E-02 -.192E-03 -.441E-03
   0.147E+01 0.130E+01 0.122E+03   -.147E+01 -.140E+01 -.121E+03   -.101E-01 0.956E-01 -.226E+00   0.167E-02 0.369E-04 -.829E-03
   0.424E+01 -.108E+01 0.173E+02   -.420E+01 0.100E+01 -.152E+02   -.256E-01 0.619E-01 -.318E+00   0.645E-03 0.543E-03 -.110E-02
   0.150E+01 -.309E+01 -.796E+02   -.140E+01 0.270E+01 0.822E+02   -.624E-01 0.280E+00 -.808E+00   0.690E-03 -.254E-03 0.807E-03
   -.965E+01 0.111E+02 -.239E+03   0.950E+01 -.125E+02 0.239E+03   0.676E-01 0.856E+00 0.264E+00   0.297E-04 -.235E-02 0.837E-03
   -.496E+00 -.215E+02 0.175E+03   0.569E+00 0.223E+02 -.172E+03   -.452E-01 -.643E+00 -.157E+01   0.632E-03 0.155E-03 0.139E-03
   0.259E+01 -.196E+01 0.674E+02   -.256E+01 0.192E+01 -.657E+02   -.228E-01 0.965E-01 -.187E+00   0.822E-03 -.642E-03 -.166E-02
   0.342E+01 0.558E+00 -.335E+02   -.335E+01 -.349E+00 0.355E+02   -.296E-01 -.347E-01 -.251E+00   0.603E-04 -.764E-03 -.317E-05
   0.382E+00 0.199E+00 -.143E+03   -.241E+00 0.223E+01 0.143E+03   -.430E-01 -.172E+01 0.139E+01   -.141E-02 -.162E-03 0.186E-02
   0.156E+01 -.215E+02 0.174E+03   -.166E+01 0.223E+02 -.172E+03   0.652E-01 -.647E+00 -.157E+01   0.791E-03 -.736E-03 0.558E-04
   0.374E+01 -.235E+01 0.667E+02   -.374E+01 0.221E+01 -.650E+02   -.112E-01 0.108E+00 -.212E+00   0.846E-03 0.366E-03 -.674E-03
   0.385E+01 -.459E+01 -.353E+02   -.382E+01 0.415E+01 0.374E+02   -.154E-01 0.218E+00 -.401E+00   -.342E-03 0.791E-03 -.182E-02
   -.196E+01 -.370E+02 -.137E+03   0.183E+01 0.365E+02 0.138E+03   0.111E+00 0.233E-01 0.656E+00   0.968E-04 0.757E-04 0.120E-02
   0.459E+01 0.174E+02 0.246E+03   -.456E+01 -.189E+02 -.244E+03   -.382E-02 0.115E+01 -.949E+00   -.500E-03 0.634E-03 0.127E-02
   -.612E+01 0.175E+02 0.246E+03   0.606E+01 -.189E+02 -.244E+03   0.252E-01 0.115E+01 -.952E+00   0.710E-03 0.434E-03 0.116E-02
   0.975E+01 -.542E+02 -.178E+03   -.100E+02 0.597E+02 0.182E+03   0.381E+00 -.615E+01 -.627E+01   -.114E-02 -.172E-04 -.371E-03
   0.717E+01 -.530E+02 0.178E+03   -.738E+01 0.581E+02 -.183E+03   0.276E+00 -.597E+01 0.650E+01   -.194E-03 0.104E-02 -.119E-03
   -.923E+01 -.530E+02 0.178E+03   0.952E+01 0.582E+02 -.183E+03   -.369E+00 -.598E+01 0.650E+01   -.358E-03 0.120E-02 0.154E-03
   0.475E+02 -.537E+02 -.175E+03   -.481E+02 0.588E+02 0.181E+03   0.683E+00 -.562E+01 -.646E+01   0.591E-03 -.789E-03 0.601E-03
   -.767E+02 -.610E+02 -.155E+03   0.788E+02 0.667E+02 0.160E+03   -.247E+01 -.636E+01 -.525E+01   0.194E-03 -.427E-03 -.493E-03
   0.334E+01 0.719E+00 0.196E+03   -.340E+01 -.969E+00 -.193E+03   0.889E-01 0.307E+00 -.487E+00   0.190E-02 -.148E-03 0.332E-02
   0.634E+01 0.293E+01 0.233E+02   -.646E+01 -.301E+01 -.202E+02   0.136E+00 0.238E+00 -.498E+00   0.357E-02 -.428E-02 -.586E-02
   0.542E+01 0.970E+01 -.149E+03   -.549E+01 -.910E+01 0.152E+03   0.180E+00 0.117E-01 -.587E+00   -.526E-02 0.268E-03 0.482E-03
   0.477E+01 0.160E+00 0.195E+03   -.492E+01 -.430E+00 -.192E+03   0.110E+00 0.273E+00 -.522E+00   0.318E-02 -.372E-02 0.315E-02
   0.837E+01 -.543E+00 0.232E+02   -.855E+01 0.227E+00 -.198E+02   0.176E+00 0.174E+00 -.582E+00   0.202E-02 0.119E-02 -.283E-02
   0.419E+01 -.899E+01 -.144E+03   -.433E+01 0.794E+01 0.147E+03   0.144E+00 0.488E+00 -.870E+00   0.343E-02 -.175E-02 0.955E-03
   0.264E+01 0.110E+02 0.314E+03   -.255E+01 -.119E+02 -.313E+03   -.101E+00 0.703E+00 0.199E+00   0.193E-02 0.263E-02 0.531E-02
   0.499E+01 0.522E+00 0.110E+03   -.504E+01 -.656E+00 -.107E+03   0.458E-01 0.106E+00 -.367E+00   0.361E-02 -.267E-02 -.531E-03
   0.489E+01 0.651E+00 -.661E+02   -.492E+01 -.108E+01 0.691E+02   0.560E-01 0.303E+00 -.375E+00   -.901E-02 -.312E-02 -.655E-02
   -.132E+01 0.726E+01 -.276E+03   0.159E+01 -.985E+01 0.278E+03   -.220E+00 0.208E+01 -.168E+00   0.468E-02 0.259E-02 0.402E-02
   -.301E+01 0.111E+02 0.314E+03   0.301E+01 -.120E+02 -.313E+03   0.140E-01 0.699E+00 0.160E+00   0.108E-01 0.122E-02 0.301E-02
   0.675E+01 0.197E+00 0.111E+03   -.695E+01 -.198E+00 -.108E+03   0.193E+00 0.343E-01 -.513E+00   0.705E-03 -.409E-02 -.458E-02
   0.754E+01 -.609E+00 -.595E+02   -.769E+01 0.118E+01 0.637E+02   0.190E+00 -.444E+00 -.118E+01   0.278E-02 0.308E-03 0.457E-03
   -.376E+00 0.140E+02 -.243E+03   0.622E+00 -.110E+02 0.250E+03   -.188E+00 -.291E+01 -.500E+01   -.409E-03 0.170E-02 0.517E-02
   -.151E+01 -.288E+02 -.574E+03   0.252E+01 0.492E+02 0.604E+03   -.681E+00 -.179E+02 -.287E+02   -.134E-01 0.800E-02 -.623E-02
   -.486E+02 -.106E+03 -.556E+03   0.517E+02 0.113E+03 0.587E+03   -.324E+01 -.779E+01 -.299E+02   -.111E-01 0.626E-02 0.779E-02
   0.446E+02 0.713E+02 -.728E+03   -.458E+02 -.117E+03 0.731E+03   0.142E+01 0.427E+02 -.557E+01   -.164E-01 0.113E-02 -.974E-02
   0.883E+01 -.599E+02 0.604E+03   -.879E+01 0.779E+02 -.633E+03   0.139E+00 -.170E+02 0.298E+02   -.110E-01 0.910E-02 0.653E-02
   -.124E+02 -.599E+02 0.604E+03   0.129E+02 0.779E+02 -.632E+03   -.622E+00 -.170E+02 0.298E+02   0.123E-02 0.128E-02 0.330E-02
   0.330E+02 0.800E+02 0.734E+03   -.340E+02 -.126E+03 -.736E+03   0.103E+01 0.425E+02 0.556E+01   0.208E-03 0.801E-02 0.697E-02
   -.414E+02 0.800E+02 0.733E+03   0.427E+02 -.126E+03 -.735E+03   -.129E+01 0.425E+02 0.554E+01   -.704E-02 0.104E-01 0.120E-01
   0.353E+03 0.643E+02 -.631E+03   -.372E+03 -.977E+02 0.614E+03   0.186E+02 0.310E+02 0.148E+02   0.638E-02 -.170E-01 0.104E-01
   -.390E+03 0.804E+02 -.593E+03   0.403E+03 -.119E+03 0.580E+03   -.117E+02 0.351E+02 0.120E+02   0.706E-02 -.294E-02 -.661E-02
 -----------------------------------------------------------------------------------------------
   -.291E+01 -.108E+03 -.132E+02   -.568E-13 0.995E-13 -.227E-12   0.289E+01 0.108E+03 0.132E+02   -.185E-01 0.134E-01 0.293E-01
 
 
 POSITION                                       TOTAL-FORCE (eV/Angst)
 -----------------------------------------------------------------------------------
      7.50126     -2.80042     20.00350        -0.000826     -0.003750     -0.001801
      7.50890     -2.78994     22.50637         0.002128      0.013576     -0.000561
      7.53819     -2.77869     25.00682         0.000870     -0.008838      0.000094
      7.50692     -2.69511     27.46724         0.003424      0.009817      0.007727
      7.52303     -7.15130     20.00453        -0.002505     -0.005731      0.001820
      7.50907     -7.14076     22.50948        -0.000821      0.002394      0.007289
      7.56250     -7.14242     25.03011        -0.001573      0.007139      0.000644
      7.69512     -7.10979     27.61258        -0.000532     -0.001047     -0.002840
      7.51899     -0.62452     18.76827        -0.001138     -0.006362     -0.001206
      7.50654     -0.61806     21.25932        -0.000955      0.002063      0.001900
      7.52056     -0.60541     23.74792         0.000535     -0.004665      0.001782
      7.56657     -0.58044     26.23124         0.001914     -0.001069     -0.005885
      7.52644     -4.97582     18.77062        -0.001076     -0.006359      0.001114
      7.50401     -4.97004     21.26424        -0.000472     -0.002181     -0.003601
      7.52458     -4.96447     23.76219         0.002737     -0.000992      0.001561
      7.61156     -4.96409     26.27008        -0.000330     -0.000336     -0.000453
      7.45550     -2.72828     17.53078         0.000069      0.007694     -0.007996
      7.61609     -7.07875     17.53324        -0.001148      0.000923     -0.008728
      7.35052     -2.53865     29.38906         0.005841     -0.002078     -0.013285
      7.34597     -2.60593     15.59851         0.003265     -0.004044     -0.004573
      7.76065     -6.95537     15.60328         0.000776     -0.001801     -0.007237
      6.44011     -6.78225     29.13372         0.000706     -0.005331      0.005762
      9.21834     -6.75725     28.86433        -0.006847     -0.005186      0.006570
      7.50593     -1.34715     20.01280        -0.002349     -0.003110      0.001644
      7.50682     -1.34127     22.50053        -0.001436      0.008540     -0.000678
      7.53472     -1.33037     24.98633         0.002495     -0.005897     -0.003686
      7.51373     -5.69799     20.01594        -0.002713     -0.007114      0.000702
      7.50561     -5.69149     22.50691        -0.001525      0.004199      0.002765
      7.55854     -5.68202     25.00013        -0.001716      0.006232      0.000103
      7.49731     -3.52545     18.74143        -0.000781     -0.000533     -0.003109
      7.50259     -3.52072     21.25298        -0.001575      0.001010     -0.002556
      7.52141     -3.51141     23.75431         0.001612     -0.001027     -0.004449
      7.55786     -3.49536     26.26376         0.000598      0.003093      0.004484
      7.55255     -7.87651     18.74218        -0.002883     -0.004348     -0.003675
      7.50590     -7.87154     21.25316        -0.002315      0.002750      0.002108
      7.52232     -7.86221     23.75392        -0.001024     -0.000775      0.001732
      7.60037     -7.86299     26.25944         0.000544      0.001558     -0.002160
      7.55496     -1.32237     27.39845         0.003818     -0.000757     -0.002484
      7.72285     -5.63900     27.41558         0.001885      0.001455     -0.001995
      7.39005     -3.23483     28.71988         0.004888      0.006846      0.006901
      7.48621     -1.35009     17.60451         0.003267      0.000064     -0.003565
      7.58068     -5.70115     17.60776        -0.001321      0.004541     -0.004647
      7.37431     -3.28086     16.28979         0.002512     -0.004120      0.014108
      7.72232     -7.63036     16.29377        -0.000426     -0.007345      0.012377
      6.49755     -7.42035     28.41404        -0.002419      0.006980     -0.001568
      8.95973     -7.47776     28.27967        -0.003176      0.003921      0.009550
 -----------------------------------------------------------------------------------
    total drift:                               -0.036723      0.089627     -0.021817


--------------------------------------------------------------------------------------------------------



  FREE ENERGIE OF THE ION-ELECTRON SYSTEM (eV)
  ---------------------------------------------------
  free  energy   TOTEN  =      -415.06736457 eV

  energy  without entropy=     -415.06736457  energy(sigma->0) =     -415.06736457
 
 d Force = 0.7148058E-04[ 0.307E-04, 0.112E-03]  d Energy = 0.7426870E-04-0.279E-05
 d Force = 0.8813870E+00[ 0.882E+00, 0.881E+00]  d Ewald  = 0.8813870E+00 0.113E-08


--------------------------------------------------------------------------------------------------------


    POTLOK:  cpu time   14.5736: real time   14.4086


--------------------------------------------------------------------------------------------------------


 Conjugate gradient step on ions:
 trial-energy change:   -0.000074  1 .order   -0.000071   -0.000112   -0.000031
  (g-gl).g = 0.217E-03      g.g   = 0.231E-03  gl.gl    = 0.253E-03
 g(Force)  = 0.231E-03   g(Stress)= 0.000E+00 ortho     =-0.146E-04
 gamma     =   0.85909
 trial     =   0.51426
 opt step  =   0.70744  (harmonic =   0.70744) maximal distance =0.00132626
 next E    =  -415.067368   (d E  =  -0.00008)


--------------------------------------------------------------------------------------------------------


  
 reached required accuracy - stopping structural energy minimisation
 writing wavefunctions
     LOOP+:  cpu time  601.1638: real time  524.1198
    4ORBIT:  cpu time    0.0000: real time    0.0000
 


 total charge     
 
# of ion       s       p       d       tot
------------------------------------------
    1        0.744   1.394   0.000   2.139
    2        0.747   1.405   0.000   2.152
    3        0.746   1.401   0.000   2.147
    4        0.745   1.424   0.000   2.169
    5        0.745   1.395   0.000   2.139
    6        0.747   1.405   0.000   2.152
    7        0.744   1.399   0.000   2.143
    8        0.663   1.308   0.000   1.971
    9        0.745   1.409   0.000   2.154
   10        0.751   1.415   0.000   2.166
   11        0.751   1.418   0.000   2.170
   12        0.748   1.419   0.000   2.167
   13        0.745   1.409   0.000   2.154
   14        0.750   1.413   0.000   2.163
   15        0.749   1.412   0.000   2.161
   16        0.747   1.429   0.000   2.175
   17        0.743   1.420   0.000   2.163
   18        0.743   1.421   0.000   2.164
   19        0.613   0.134   0.000   0.746
   20        0.608   0.134   0.000   0.742
   21        0.608   0.135   0.000   0.742
   22        0.634   0.134   0.000   0.768
   23        0.633   0.134   0.000   0.767
   24        1.240   2.835   0.000   4.075
   25        1.240   2.833   0.000   4.073
   26        1.241   2.833   0.000   4.075
   27        1.240   2.834   0.000   4.074
   28        1.240   2.831   0.000   4.071
   29        1.239   2.826   0.000   4.065
   30        1.236   2.826   0.000   4.061
   31        1.239   2.828   0.000   4.067
   32        1.239   2.826   0.000   4.065
   33        1.237   2.822   0.000   4.059
   34        1.236   2.825   0.000   4.061
   35        1.239   2.827   0.000   4.066
   36        1.239   2.823   0.000   4.063
   37        1.240   2.814   0.000   4.054
   38        1.567   3.722   0.000   5.288
   39        1.567   3.707   0.000   5.275
   40        1.570   3.695   0.000   5.265
   41        1.567   3.725   0.000   5.291
   42        1.567   3.725   0.000   5.292
   43        1.569   3.702   0.000   5.271
   44        1.569   3.703   0.000   5.271
   45        1.566   3.659   0.000   5.225
   46        1.565   3.659   0.000   5.225
--------------------------------------------------
tot         47.900  98.847   0.000 146.747
 


 magnetization (x)
 
# of ion       s       p       d       tot
------------------------------------------
    1       -0.000   0.000   0.000   0.000
    2        0.000  -0.000   0.000  -0.000
    3       -0.000   0.000   0.000  -0.000
    4       -0.000   0.000   0.000   0.000
    5        0.000  -0.000   0.000  -0.000
    6        0.000   0.000   0.000   0.000
    7        0.000   0.000   0.000   0.000
    8        0.000   0.000   0.000   0.000
    9       -0.000   0.000   0.000   0.000
   10        0.000   0.000   0.000   0.000
   11       -0.000  -0.000   0.000  -0.000
   12        0.000   0.000   0.000   0.000
   13       -0.000   0.000   0.000  -0.000
   14        0.000  -0.000   0.000  -0.000
   15       -0.000   0.000   0.000   0.000
   16       -0.000  -0.000   0.000  -0.000
   17        0.000  -0.000   0.000  -0.000
   18        0.000   0.000   0.000   0.000
   19        0.000  -0.000   0.000  -0.000
   20       -0.000   0.000   0.000   0.000
   21       -0.000   0.000   0.000   0.000
   22        0.000  -0.000   0.000   0.000
   23        0.000  -0.000   0.000  -0.000
   24        0.000  -0.000   0.000  -0.000
   25       -0.000   0.000   0.000   0.000
   26        0.000   0.000   0.000   0.000
   27       -0.000   0.000   0.000   0.000
   28       -0.000   0.000   0.000   0.000
   29        0.000  -0.000   0.000  -0.000
   30        0.000   0.000   0.000   0.000
   31       -0.000   0.000   0.000   0.000
   32        0.000   0.000   0.000   0.000
   33       -0.000  -0.000   0.000  -0.000
   34       -0.000   0.000   0.000   0.000
   35        0.000  -0.000   0.000   0.000
   36       -0.000   0.000   0.000   0.000
   37       -0.000  -0.000   0.000  -0.000
   38        0.000   0.000   0.000   0.000
   39       -0.000   0.000   0.000   0.000
   40        0.000   0.000   0.000   0.000
   41       -0.000  -0.000   0.000  -0.000
   42        0.000   0.000   0.000   0.000
   43       -0.000   0.000   0.000   0.000
   44        0.000   0.000   0.000   0.000
   45        0.000   0.000   0.000   0.000
   46        0.000  -0.000   0.000  -0.000
--------------------------------------------------
tot          0.000   0.000   0.000   0.000
 

 total amount of memory used by VASP MPI-rank0   282014. kBytes
=======================================================================

   base      :      30000. kBytes
   nonlr-proj:       5750. kBytes
   fftplans  :      24463. kBytes
   grid      :      92897. kBytes
   one-center:         24. kBytes
   wavefun   :     128880. kBytes
 
  
  
 General timing and accounting informations for this job:
 ========================================================
  
                  Total CPU time used (sec):     5602.821
                            User time (sec):     5325.442
                          System time (sec):      277.378
                         Elapsed time (sec):     3973.443
  
                   Maximum memory used (kb):      880996.
                   Average memory used (kb):           0.
  
                          Minor page faults:      1600444
                          Major page faults:            1
                 Voluntary context switches:        35714
