 vasp.5.4.4.18Apr17-6-g9f103f2a35 (build May 01 2020 14:57:12) complex          
  
 executed on             LinuxIFC date 2020.08.06  22:07:24
 running on   48 total cores
 distrk:  each k-point on   12 cores,    4 groups
 distr:  one band on NCORES_PER_BAND=   3 cores,    4 groups


--------------------------------------------------------------------------------------------------------


 INCAR:
 POTCAR:    PAW_PBE B 06Sep2000                   
 POTCAR:    PAW_PBE N 08Apr2002                   

 ----------------------------------------------------------------------------- 
|                                                                             |
|           W    W    AA    RRRRR   N    N  II  N    N   GGGG   !!!           |
|           W    W   A  A   R    R  NN   N  II  NN   N  G    G  !!!           |
|           W    W  A    A  R    R  N N  N  II  N N  N  G       !!!           |
|           W WW W  AAAAAA  RRRRR   N  N N  II  N  N N  G  GGG   !            |
|           WW  WW  A    A  R   R   N   NN  II  N   NN  G    G                |
|           W    W  A    A  R    R  N    N  II  N    N   GGGG   !!!           |
|                                                                             |
|      For optimal performance we recommend to set                            |
|        NCORE= 4 - approx SQRT( number of cores)                             |
|      NCORE specifies how many cores store one orbital (NPAR=cpu/NCORE).     |
|      This setting can  greatly improve the performance of VASP for DFT.     |
|      The default,   NCORE=1            might be grossly inefficient         |
|      on modern multi-core architectures or massively parallel machines.     |
|      Do your own testing !!!!                                               |
|      Unfortunately you need to use the default for GW and RPA calculations. |
|      (for HF NCORE is supported but not extensively tested yet)             |
|                                                                             |
 ----------------------------------------------------------------------------- 


 ----------------------------------------------------------------------------- 
|                                                                             |
|           W    W    AA    RRRRR   N    N  II  N    N   GGGG   !!!           |
|           W    W   A  A   R    R  NN   N  II  NN   N  G    G  !!!           |
|           W    W  A    A  R    R  N N  N  II  N N  N  G       !!!           |
|           W WW W  AAAAAA  RRRRR   N  N N  II  N  N N  G  GGG   !            |
|           WW  WW  A    A  R   R   N   NN  II  N   NN  G    G                |
|           W    W  A    A  R    R  N    N  II  N    N   GGGG   !!!           |
|                                                                             |
|      You have enabled k-point parallelism (KPAR>1).                         |
|      This developmental code was originally  written by Paul Kent at ORNL,  |
|      and carefully double checked in Vienna.                                |
|      GW as well as linear response parallelism added by Martijn Marsman     |
|      and Georg Kresse.                                                      |
|      Carefully verify results versus KPAR=1.                                |
|      Report problems to Paul Kent and Vienna.                               |
|                                                                             |
 ----------------------------------------------------------------------------- 

 POTCAR:    PAW_PBE B 06Sep2000                   
   VRHFIN =B: s2p1                                                              
   LEXCH  = PE                                                                  
   EATOM  =    71.1703 eV,    5.2309 Ry                                         
                                                                                
   TITEL  = PAW_PBE B 06Sep2000                                                 
   LULTRA =        F    use ultrasoft PP ?                                      
   IUNSCR =        1    unscreen: 0-lin 1-nonlin 2-no                           
   RPACOR =    1.200    partial core radius                                     
   POMASS =   10.811; ZVAL   =    3.000    mass and valenz                      
   RCORE  =    1.700    outmost cutoff radius                                   
   RWIGS  =    1.710; RWIGS  =    0.905    wigner-seitz radius (au A)           
   ENMAX  =  318.614; ENMIN  =  238.960 eV                                      
   ICORE  =        2    local potential                                         
   LCOR   =        T    correct aug charges                                     
   LPAW   =        T    paw PP                                                  
   EAUG   =  535.514                                                            
   DEXC   =    0.000                                                            
   RMAX   =    1.732    core radius for proj-oper                               
   RAUG   =    1.300    factor for augmentation sphere                          
   RDEP   =    1.757    radius for radial grids                                 
   RDEPT  =    1.436    core radius for aug-charge                              
                                                                                
   Atomic configuration                                                         
    4 entries                                                                   
     n  l   j            E        occ.                                          
     1  0  0.50      -180.5896   2.0000                                         
     2  0  0.50        -9.4431   2.0000                                         
     2  1  0.50        -3.6068   1.0000                                         
     3  2  1.50        -4.0817   0.0000                                         
   Description                                                                  
     l       E           TYP  RCUT    TYP  RCUT                                 
     0     -9.4430752     23  1.500                                             
     0      0.8675899     23  1.500                                             
     1     -3.6067955     23  1.700                                             
     1      6.1086146     23  1.700                                             
     2     -4.0817478      7  1.700                                             
  local pseudopotential read in
  partial core-charges read in
  partial kinetic energy density read in
  atomic valenz-charges read in
  non local Contribution for L=           0  read in
    real space projection operators read in
  non local Contribution for L=           0  read in
    real space projection operators read in
  non local Contribution for L=           1  read in
    real space projection operators read in
  non local Contribution for L=           1  read in
    real space projection operators read in
    PAW grid and wavefunctions read in
 
   number of l-projection  operators is LMAX  =           4
   number of lm-projection operators is LMMAX =           8
 
 POTCAR:    PAW_PBE N 08Apr2002                   
   VRHFIN =N: s2p3                                                              
   LEXCH  = PE                                                                  
   EATOM  =   264.5486 eV,   19.4438 Ry                                         
                                                                                
   TITEL  = PAW_PBE N 08Apr2002                                                 
   LULTRA =        F    use ultrasoft PP ?                                      
   IUNSCR =        1    unscreen: 0-lin 1-nonlin 2-no                           
   RPACOR =    1.200    partial core radius                                     
   POMASS =   14.001; ZVAL   =    5.000    mass and valenz                      
   RCORE  =    1.500    outmost cutoff radius                                   
   RWIGS  =    1.400; RWIGS  =    0.741    wigner-seitz radius (au A)           
   ENMAX  =  400.000; ENMIN  =  300.000 eV                                      
   ICORE  =        2    local potential                                         
   LCOR   =        T    correct aug charges                                     
   LPAW   =        T    paw PP                                                  
   EAUG   =  627.112                                                            
   DEXC   =    0.000                                                            
   RMAX   =    1.529    core radius for proj-oper                               
   RAUG   =    1.300    factor for augmentation sphere                          
   RDEP   =    1.514    radius for radial grids                                 
   RDEPT  =    1.338    core radius for aug-charge                              
                                                                                
   Atomic configuration                                                         
    4 entries                                                                   
     n  l   j            E        occ.                                          
     1  0  0.50      -384.7179   2.0000                                         
     2  0  0.50       -18.5828   2.0000                                         
     2  1  0.50        -7.0898   3.0000                                         
     3  2  1.50        -6.8029   0.0000                                         
   Description                                                                  
     l       E           TYP  RCUT    TYP  RCUT                                 
     0    -18.5828119     23  1.200                                             
     0    -13.5018863     23  1.200                                             
     1     -7.0897853     23  1.500                                             
     1      9.5240782     23  1.500                                             
     2     -6.8029130      7  1.500                                             
  local pseudopotential read in
  partial core-charges read in
  partial kinetic energy density read in
  atomic valenz-charges read in
  non local Contribution for L=           0  read in
    real space projection operators read in
  non local Contribution for L=           0  read in
    real space projection operators read in
  non local Contribution for L=           1  read in
    real space projection operators read in
  non local Contribution for L=           1  read in
    real space projection operators read in
    PAW grid and wavefunctions read in
 
   number of l-projection  operators is LMAX  =           4
   number of lm-projection operators is LMMAX =           8
 

 ----------------------------------------------------------------------------- 
|                                                                             |
|  ADVICE TO THIS USER RUNNING 'VASP/VAMP'   (HEAR YOUR MASTER'S VOICE ...):  |
|                                                                             |
|      You have a (more or less) 'small supercell' and for smaller cells      |
|      it is recommended  to use the reciprocal-space projection scheme!      |
|      The real space optimization is not  efficient for small cells and it   |
|      is also less accurate ...                                              |
|      Therefore set LREAL=.FALSE. in the  INCAR file                         |
|                                                                             |
 ----------------------------------------------------------------------------- 

 Optimization of the real space projectors (new method)

 maximal supplied QI-value         = 22.11
 optimisation between [QCUT,QGAM] = [ 11.94, 23.88] = [ 39.92,159.67] Ry 
 Optimized for a Real-space Cutoff    1.18 Angstroem

   l    n(q)    QCUT    max X(q) W(low)/X(q) W(high)/X(q)  e(spline) 
   0      8    11.939    53.033    0.11E-03    0.34E-03    0.60E-07
   0      8    11.939    34.740    0.11E-03    0.34E-03    0.59E-07
   1      8    11.939    30.949    0.22E-03    0.20E-03    0.17E-06
   1      8    11.939    19.518    0.20E-03    0.18E-03    0.16E-06
 Optimization of the real space projectors (new method)

 maximal supplied QI-value         = 25.13
 optimisation between [QCUT,QGAM] = [ 11.81, 23.88] = [ 39.08,159.64] Ry 
 Optimized for a Real-space Cutoff    1.41 Angstroem

   l    n(q)    QCUT    max X(q) W(low)/X(q) W(high)/X(q)  e(spline) 
   0     10    11.813    79.467    0.48E-04    0.30E-04    0.67E-06
   0     10    11.813    66.151    0.47E-04    0.30E-04    0.67E-06
   1     10    11.813    20.169    0.11E-03    0.17E-03    0.11E-05
   1     10    11.813    14.454    0.11E-03    0.17E-03    0.11E-05
  PAW_PBE B 06Sep2000                   :
 energy of atom  1       EATOM=  -71.1703
 kinetic energy error for atom=    0.0009 (will be added to EATOM!!)
  PAW_PBE N 08Apr2002                   :
 energy of atom  2       EATOM= -264.5486
 kinetic energy error for atom=    0.0116 (will be added to EATOM!!)
 
 
 POSCAR: B N                                     
  positions in direct lattice
  velocities in cartesian coordinates
 exchange correlation table for  LEXCH =        8
   RHO(1)=    0.500       N(1)  =     2000
   RHO(2)=  100.500       N(2)  =     4000
 


--------------------------------------------------------------------------------------------------------


 ion  position               nearest neighbor table
   1  0.667  0.333  0.500-   2 1.45   2 1.45   2 1.45
   2  0.333  0.667  0.500-   1 1.45   1 1.45   1 1.45
 
  Warning from LATTYP: Got some problem with cell dimensions!
  Tried to take original basis but could not verify dimensions!
  LATTYP: Found a hexagonal cell.
 ALAT       =     2.5121833522
 C/A-ratio  =    13.9777474261
  
  Lattice vectors:
  
 A1 = (   2.5121833522,   0.0000000000,   0.0000000000)
 A2 = (  -1.2560916761,  -2.1756243432,   0.0000000000)
 A3 = (   0.0000000000,   0.0000000000, -35.1146643856)


Analysis of symmetry for initial positions (statically):
=====================================================================
 Subroutine PRICEL returns:
 Original cell was already a primitive cell.
 

 Routine SETGRP: Setting up the symmetry group for a 
 hexagonal supercell.


 Subroutine GETGRP returns: Found 12 space group operations
 (whereof 12 operations were pure point group operations)
 out of a pool of 24 trial point group operations.


The static configuration has the point symmetry D_3h.


Analysis of symmetry for dynamics (positions and initial velocities):
=====================================================================
 Subroutine PRICEL returns:
 Original cell was already a primitive cell.
 

 Routine SETGRP: Setting up the symmetry group for a 
 hexagonal supercell.


 Subroutine GETGRP returns: Found 12 space group operations
 (whereof 12 operations were pure point group operations)
 out of a pool of 24 trial point group operations.


The dynamic configuration has the point symmetry D_3h.


Analysis of constrained symmetry for selective dynamics:
=====================================================================
 Subroutine PRICEL returns:
 Original cell was already a primitive cell.
 

 Routine SETGRP: Setting up the symmetry group for a 
 hexagonal supercell.


 Subroutine GETGRP returns: Found 12 space group operations
 (whereof 12 operations were pure point group operations)
 out of a pool of 24 trial point group operations.


The constrained configuration has the point symmetry D_3h.


Analysis of structural, dynamic, and magnetic symmetry:
=====================================================================
 Subroutine PRICEL returns:
 Original cell was already a primitive cell.
 

 Routine SETGRP: Setting up the symmetry group for a 
 hexagonal supercell.


 Subroutine GETGRP returns: Found 12 space group operations
 (whereof 12 operations were pure point group operations)
 out of a pool of 24 trial point group operations.


The magnetic configuration has the point symmetry D_3h.


 Subroutine INISYM returns: Found 12 space group operations
 (whereof 12 operations are pure point group operations),
 and found     1 'primitive' translations

 
 
 KPOINTS: K-Point Grid                            

Automatic generation of k-mesh.
Space group operators:
 irot       det(A)        alpha          n_x          n_y          n_z        tau_x        tau_y        tau_z
    1     1.000000     0.000000     1.000000     0.000000     0.000000     0.000000     0.000000     0.000000
    2    -1.000000    60.000000     0.000000     0.000000     1.000000     0.000000     0.000000     0.000000
    3     1.000000   120.000000     0.000000     0.000000     1.000000     0.000000     0.000000     0.000000
    4    -1.000000   180.000000     0.000000     0.000000     1.000000     0.000000     0.000000     0.000000
    5     1.000000   120.000000     0.000000     0.000000    -1.000000     0.000000     0.000000     0.000000
    6    -1.000000    60.000000     0.000000     0.000000    -1.000000     0.000000     0.000000     0.000000
    7    -1.000000   180.000000     1.000000     0.000000     0.000000     0.000000     0.000000     0.000000
    8     1.000000   180.000000     0.866026     0.499998     0.000000     0.000000     0.000000     0.000000
    9    -1.000000   180.000000    -0.500002    -0.866024     0.000000     0.000000     0.000000     0.000000
   10     1.000000   180.000000     0.000000     1.000000     0.000000     0.000000     0.000000     0.000000
   11    -1.000000   180.000000     0.500002    -0.866024     0.000000     0.000000     0.000000     0.000000
   12     1.000000   180.000000     0.866026    -0.499998     0.000000     0.000000     0.000000     0.000000
 
 Subroutine IBZKPT returns following result:
 ===========================================
 
 Found     72 irreducible k-points:
 
 Following reciprocal coordinates:
            Coordinates               Weight
  0.031250  0.031250  0.000000     48.000000
  0.093750  0.031250  0.000000     96.000000
  0.156250  0.031250  0.000000     96.000000
  0.218750  0.031250  0.000000     96.000000
  0.281250  0.031250  0.000000     96.000000
  0.343750  0.031250  0.000000     96.000000
  0.406250  0.031250  0.000000     96.000000
  0.468750  0.031250  0.000000     96.000000
 -0.468750  0.031250  0.000000     96.000000
 -0.406250  0.031250  0.000000     96.000000
 -0.343750  0.031250  0.000000     96.000000
 -0.281250  0.031250  0.000000     96.000000
 -0.218750  0.031250  0.000000     96.000000
 -0.156250  0.031250  0.000000     96.000000
 -0.093750  0.031250  0.000000     96.000000
 -0.031250  0.031250  0.000000     48.000000
  0.093750  0.093750  0.000000     48.000000
  0.156250  0.093750  0.000000     96.000000
  0.218750  0.093750  0.000000     96.000000
  0.281250  0.093750  0.000000     96.000000
  0.343750  0.093750  0.000000     96.000000
  0.406250  0.093750  0.000000     96.000000
  0.468750  0.093750  0.000000     96.000000
 -0.468750  0.093750  0.000000     96.000000
 -0.406250  0.093750  0.000000     96.000000
 -0.343750  0.093750  0.000000     96.000000
 -0.281250  0.093750  0.000000     96.000000
 -0.218750  0.093750  0.000000     96.000000
 -0.156250  0.093750  0.000000     96.000000
 -0.093750  0.093750  0.000000     48.000000
  0.156250  0.156250  0.000000     48.000000
  0.218750  0.156250  0.000000     96.000000
  0.281250  0.156250  0.000000     96.000000
  0.343750  0.156250  0.000000     96.000000
  0.406250  0.156250  0.000000     96.000000
  0.468750  0.156250  0.000000     96.000000
 -0.468750  0.156250  0.000000     96.000000
 -0.406250  0.156250  0.000000     96.000000
 -0.343750  0.156250  0.000000     96.000000
 -0.281250  0.156250  0.000000     96.000000
 -0.218750  0.156250  0.000000     96.000000
 -0.156250  0.156250  0.000000     48.000000
  0.218750  0.218750  0.000000     48.000000
  0.281250  0.218750  0.000000     96.000000
  0.343750  0.218750  0.000000     96.000000
  0.406250  0.218750  0.000000     96.000000
  0.468750  0.218750  0.000000     96.000000
 -0.468750  0.218750  0.000000     96.000000
 -0.406250  0.218750  0.000000     96.000000
 -0.343750  0.218750  0.000000     96.000000
 -0.281250  0.218750  0.000000     96.000000
 -0.218750  0.218750  0.000000     48.000000
  0.281250  0.281250  0.000000     48.000000
  0.343750  0.281250  0.000000     96.000000
  0.406250  0.281250  0.000000     96.000000
  0.468750  0.281250  0.000000     96.000000
 -0.468750  0.281250  0.000000     96.000000
 -0.406250  0.281250  0.000000     96.000000
 -0.343750  0.281250  0.000000     96.000000
 -0.281250  0.281250  0.000000     48.000000
  0.343750  0.343750  0.000000     48.000000
  0.406250  0.343750  0.000000     96.000000
  0.468750  0.343750  0.000000     96.000000
 -0.468750  0.343750  0.000000     96.000000
 -0.406250  0.343750  0.000000     96.000000
 -0.343750  0.343750  0.000000     48.000000
  0.406250  0.406250  0.000000     48.000000
  0.468750  0.406250  0.000000     96.000000
 -0.468750  0.406250  0.000000     96.000000
 -0.406250  0.406250  0.000000     48.000000
  0.468750  0.468750  0.000000     48.000000
 -0.468750  0.468750  0.000000     48.000000
 
 Following cartesian coordinates:
            Coordinates               Weight
  0.024879  0.000000  0.000000     48.000000
  0.049758 -0.014364  0.000000     96.000000
  0.074636 -0.028727  0.000000     96.000000
  0.099515 -0.043091  0.000000     96.000000
  0.124394 -0.057455  0.000000     96.000000
  0.149273 -0.071818  0.000000     96.000000
  0.174151 -0.086182  0.000000     96.000000
  0.199030 -0.100546  0.000000     96.000000
 -0.174151  0.114910  0.000000     96.000000
 -0.149273  0.100546  0.000000     96.000000
 -0.124394  0.086182  0.000000     96.000000
 -0.099515  0.071818  0.000000     96.000000
 -0.074636  0.057455  0.000000     96.000000
 -0.049758  0.043091  0.000000     96.000000
 -0.024879  0.028727  0.000000     96.000000
  0.000000  0.014364  0.000000     48.000000
  0.074636  0.000000  0.000000     48.000000
  0.099515 -0.014364  0.000000     96.000000
  0.124394 -0.028727  0.000000     96.000000
  0.149273 -0.043091  0.000000     96.000000
  0.174151 -0.057455  0.000000     96.000000
  0.199030 -0.071818  0.000000     96.000000
  0.223909 -0.086182  0.000000     96.000000
 -0.149273  0.129273  0.000000     96.000000
 -0.124394  0.114910  0.000000     96.000000
 -0.099515  0.100546  0.000000     96.000000
 -0.074636  0.086182  0.000000     96.000000
 -0.049758  0.071818  0.000000     96.000000
 -0.024879  0.057455  0.000000     96.000000
  0.000000  0.043091  0.000000     48.000000
  0.124394  0.000000  0.000000     48.000000
  0.149273 -0.014364  0.000000     96.000000
  0.174151 -0.028727  0.000000     96.000000
  0.199030 -0.043091  0.000000     96.000000
  0.223909 -0.057455  0.000000     96.000000
  0.248788 -0.071818  0.000000     96.000000
 -0.124394  0.143637  0.000000     96.000000
 -0.099515  0.129273  0.000000     96.000000
 -0.074636  0.114910  0.000000     96.000000
 -0.049758  0.100546  0.000000     96.000000
 -0.024879  0.086182  0.000000     96.000000
  0.000000  0.071818  0.000000     48.000000
  0.174151  0.000000  0.000000     48.000000
  0.199030 -0.014364  0.000000     96.000000
  0.223909 -0.028727  0.000000     96.000000
  0.248788 -0.043091  0.000000     96.000000
  0.273666 -0.057455  0.000000     96.000000
 -0.099515  0.158001  0.000000     96.000000
 -0.074636  0.143637  0.000000     96.000000
 -0.049758  0.129273  0.000000     96.000000
 -0.024879  0.114910  0.000000     96.000000
  0.000000  0.100546  0.000000     48.000000
  0.223909  0.000000  0.000000     48.000000
  0.248788 -0.014364  0.000000     96.000000
  0.273666 -0.028727  0.000000     96.000000
  0.298545 -0.043091  0.000000     96.000000
 -0.074636  0.172364  0.000000     96.000000
 -0.049758  0.158001  0.000000     96.000000
 -0.024879  0.143637  0.000000     96.000000
  0.000000  0.129273  0.000000     48.000000
  0.273666  0.000000  0.000000     48.000000
  0.298545 -0.014364  0.000000     96.000000
  0.323424 -0.028727  0.000000     96.000000
 -0.049758  0.186728  0.000000     96.000000
 -0.024879  0.172364  0.000000     96.000000
  0.000000  0.158001  0.000000     48.000000
  0.323424  0.000000  0.000000     48.000000
  0.348303 -0.014364  0.000000     96.000000
 -0.024879  0.201092  0.000000     96.000000
  0.000000  0.186728  0.000000     48.000000
  0.373181  0.000000  0.000000     48.000000
  0.000000  0.215455  0.000000     48.000000
 


--------------------------------------------------------------------------------------------------------




 Dimension of arrays:
   k-points           NKPTS =     72   k-points in BZ     NKDIM =     72   number of bands    NBANDS=     12
   number of dos      NEDOS =   1200   number of ions     NIONS =      2
   non local maximal  LDIM  =      4   non local SUM 2l+1 LMDIM =      8
   total plane-waves  NPLWV = 108000
   max r-space proj   IRMAX =   6598   max aug-charges    IRDMAX=   8974
   dimension x,y,z NGX =    20 NGY =   20 NGZ =  270
   dimension x,y,z NGXF=    40 NGYF=   40 NGZF=  540
   support grid    NGXF=    40 NGYF=   40 NGZF=  540
   ions per type =               1   1
   NGX,Y,Z   is equivalent  to a cutoff of  13.24, 13.24, 12.78 a.u.
   NGXF,Y,Z  is equivalent  to a cutoff of  26.47, 26.47, 25.57 a.u.

 SYSTEM =  SiC                                     
 POSCAR =  B N                                     

 Startparameter for this run:
   NWRITE =      2    write-flag & timer
   PREC   = accura    normal or accurate (medium, high low for compatibility)
   ISTART =      0    job   : 0-new  1-cont  2-samecut
   ICHARG =      2    charge: 1-file 2-atom 10-const
   ISPIN  =      2    spin polarized calculation?
   LNONCOLLINEAR =      F non collinear calculations
   LSORBIT =      F    spin-orbit coupling
   INIWAV =      1    electr: 0-lowe 1-rand  2-diag
   LASPH  =      F    aspherical Exc in radial PAW
   METAGGA=      F    non-selfconsistent MetaGGA calc.

 Electronic Relaxation 1
   ENCUT  =  550.0 eV  40.42 Ry    6.36 a.u.   4.80  4.80 67.15*2*pi/ulx,y,z
   ENINI  =  550.0     initial cutoff
   ENAUG  =  627.1 eV  augmentation charge cutoff
   NELM   =    100;   NELMIN=  2; NELMDL= -5     # of ELM steps 
   EDIFF  = 0.1E-04   stopping-criterion for ELM
   LREAL  =      T    real-space projection
   NLSPLINE    = F    spline interpolate recip. space projectors
   LCOMPAT=      F    compatible to vasp.4.4
   GGA_COMPAT  = T    GGA compatible to vasp.4.4-vasp.4.6
   LMAXPAW     = -100 max onsite density
   LMAXMIX     =    2 max onsite mixed and CHGCAR
   VOSKOWN=      0    Vosko Wilk Nusair interpolation
   ROPT   =   -0.00025  -0.00025
 Ionic relaxation
   EDIFFG = -.2E-01   stopping-criterion for IOM
   NSW    =    100    number of steps for IOM
   NBLOCK =      1;   KBLOCK =    100    inner block; outer block 
   IBRION =      2    ionic relax: 0-MD 1-quasi-New 2-CG
   NFREE  =      1    steps in history (QN), initial steepest desc. (CG)
   ISIF   =      2    stress and relaxation
   IWAVPR =     11    prediction:  0-non 1-charg 2-wave 3-comb
   ISYM   =      2    0-nonsym 1-usesym 2-fastsym
   LCORR  =      T    Harris-Foulkes like correction to forces

   POTIM  = 0.5000    time-step for ionic-motion
   TEIN   =    0.0    initial temperature
   TEBEG  =    0.0;   TEEND  =   0.0 temperature during run
   SMASS  =  -3.00    Nose mass-parameter (am)
   estimated Nose-frequenzy (Omega)   =  0.10E-29 period in steps =****** mass=  -0.144E-27a.u.
   SCALEE = 1.0000    scale energy and forces
   NPACO  =    256;   APACO  = 16.0  distance and # of slots for P.C.
   PSTRESS=    0.0 pullay stress

  Mass of Ions in am
   POMASS =  10.81 14.00
  Ionic Valenz
   ZVAL   =   3.00  5.00
  Atomic Wigner-Seitz radii
   RWIGS  =  -1.00 -1.00
  virtual crystal weights 
   VCA    =   1.00  1.00
   NELECT =       8.0000    total number of electrons
   NUPDOWN=      -1.0000    fix difference up-down

 DOS related values:
   EMIN   =  10.00;   EMAX   =-10.00  energy-range for DOS
   EFERMI =   0.00
   ISMEAR =     0;   SIGMA  =   0.05  broadening in eV -4-tet -1-fermi 0-gaus

 Electronic relaxation 2 (details)
   IALGO  =     68    algorithm
   LDIAG  =      T    sub-space diagonalisation (order eigenvalues)
   LSUBROT=      F    optimize rotation matrix (better conditioning)
   TURBO    =      0    0=normal 1=particle mesh
   IRESTART =      0    0=no restart 2=restart with 2 vectors
   NREBOOT  =      0    no. of reboots
   NMIN     =      0    reboot dimension
   EREF     =   0.00    reference energy to select bands
   IMIX   =      4    mixing-type and parameters
     AMIX     =   0.40;   BMIX     =  1.00
     AMIX_MAG =   1.60;   BMIX_MAG =  1.00
     AMIN     =   0.10
     WC   =   100.;   INIMIX=   1;  MIXPRE=   1;  MAXMIX= -45

 Intra band minimization:
   WEIMIN = 0.0010     energy-eigenvalue tresh-hold
   EBREAK =  0.21E-06  absolut break condition
   DEPER  =   0.30     relativ break condition  

   TIME   =   0.40     timestep for ELM

  volume/ion in A,a.u.               =      95.96       647.58
  Fermi-wavevector in a.u.,A,eV,Ry     =   0.567628  1.072661  4.383813  0.322201
  Thomas-Fermi vector in A             =   1.606518
 
 Write flags
   LWAVE        =      T    write WAVECAR
   LDOWNSAMPLE  =      F    k-point downsampling of WAVECAR
   LCHARG       =      F    write CHGCAR
   LVTOT        =      F    write LOCPOT, total local potential
   LVHAR        =      T    write LOCPOT, Hartree potential only
   LELF         =      F    write electronic localiz. function (ELF)
   LORBIT       =     11    0 simple, 1 ext, 2 COOP (PROOUT), +10 PAW based schemes


 Dipole corrections
   LMONO  =      F    monopole corrections only (constant potential shift)
   LDIPOL =      F    correct potential (dipole corrections)
   IDIPOL =      0    1-x, 2-y, 3-z, 4-all directions 
   EPSILON=  1.0000000 bulk dielectric constant

 Exchange correlation treatment:
   GGA     =    --    GGA type
   LEXCH   =     8    internal setting for exchange type
   VOSKOWN=      0    Vosko Wilk Nusair interpolation
   LHFCALC =     F    Hartree Fock is set to
   LHFONE  =     F    Hartree Fock one center treatment
   AEXX    =    0.0000 exact exchange contribution

 Linear response parameters
   LEPSILON=     F    determine dielectric tensor
   LRPA    =     F    only Hartree local field effects (RPA)
   LNABLA  =     F    use nabla operator in PAW spheres
   LVEL    =     F    velocity operator in full k-point grid
   LINTERFAST=   F  fast interpolation
   KINTER  =     0    interpolate to denser k-point grid
   CSHIFT  =0.1000    complex shift for real part using Kramers Kronig
   OMEGAMAX=  -1.0    maximum frequency
   DEG_THRESHOLD= 0.2000000E-02 threshold for treating states as degnerate
   RTIME   =   -0.100 relaxation time in fs
  (WPLASMAI=    0.000 imaginary part of plasma frequency in eV, 0.658/RTIME)
   DFIELD  = 0.0000000 0.0000000 0.0000000 field for delta impulse in time
 
 Orbital magnetization related:
   ORBITALMAG=     F  switch on orbital magnetization
   LCHIMAG   =     F  perturbation theory with respect to B field
   DQ        =  0.001000  dq finite difference perturbation B field
   LLRAUG    =     F  two centre corrections for induced B field



--------------------------------------------------------------------------------------------------------


 conjugate gradient relaxation of ions
   using selective dynamics as specified on POSCAR
 charge density and potential will be updated during run
 spin polarized calculation
 RMM-DIIS sequential band-by-band and
  variant of blocked Davidson during initial phase
 perform sub-space diagonalisation
    before iterative eigenvector-optimisation
 modified Broyden-mixing scheme, WC =      100.0
 initial mixing is a Kerker type mixing with AMIX =  0.4000 and BMIX =      1.0000
 Hartree-type preconditioning will be used
 using additional bands            8
 real space projection scheme for non local part
 use partial core corrections
 calculate Harris-corrections to forces 
   (improved forces if not selfconsistent)
 use gradient corrections 
 use of overlap-Matrix (Vanderbilt PP)
 Gauss-broadening in eV      SIGMA  =   0.05


--------------------------------------------------------------------------------------------------------


  energy-cutoff  :      550.00
  volume of cell :      191.92
      direct lattice vectors                 reciprocal lattice vectors
     1.256091676 -2.175624343  0.000000000     0.398060117 -0.229819087  0.000000000
     1.256091676  2.175624343  0.000000000     0.398060117  0.229819087  0.000000000
     0.000000000  0.000000000 35.114664386     0.000000000  0.000000000  0.028478131

  length of vectors
     2.512191788  2.512191788 35.114664386     0.459639717  0.459639717  0.028478131


 
 k-points in units of 2pi/SCALE and weight: K-Point Grid                            
   0.02487876  0.00000000  0.00000000       0.008
   0.04975751 -0.01436369  0.00000000       0.016
   0.07463627 -0.02872739  0.00000000       0.016
   0.09951503 -0.04309108  0.00000000       0.016
   0.12439379 -0.05745477  0.00000000       0.016
   0.14927254 -0.07181846  0.00000000       0.016
   0.17415130 -0.08618216  0.00000000       0.016
   0.19903006 -0.10054585  0.00000000       0.016
  -0.17415130  0.11490954  0.00000000       0.016
  -0.14927254  0.10054585  0.00000000       0.016
  -0.12439379  0.08618216  0.00000000       0.016
  -0.09951503  0.07181846  0.00000000       0.016
  -0.07463627  0.05745477  0.00000000       0.016
  -0.04975751  0.04309108  0.00000000       0.016
  -0.02487876  0.02872739  0.00000000       0.016
   0.00000000  0.01436369  0.00000000       0.008
   0.07463627  0.00000000  0.00000000       0.008
   0.09951503 -0.01436369  0.00000000       0.016
   0.12439379 -0.02872739  0.00000000       0.016
   0.14927254 -0.04309108  0.00000000       0.016
   0.17415130 -0.05745477  0.00000000       0.016
   0.19903006 -0.07181846  0.00000000       0.016
   0.22390882 -0.08618216  0.00000000       0.016
  -0.14927254  0.12927324  0.00000000       0.016
  -0.12439379  0.11490954  0.00000000       0.016
  -0.09951503  0.10054585  0.00000000       0.016
  -0.07463627  0.08618216  0.00000000       0.016
  -0.04975751  0.07181846  0.00000000       0.016
  -0.02487876  0.05745477  0.00000000       0.016
   0.00000000  0.04309108  0.00000000       0.008
   0.12439379  0.00000000  0.00000000       0.008
   0.14927254 -0.01436369  0.00000000       0.016
   0.17415130 -0.02872739  0.00000000       0.016
   0.19903006 -0.04309108  0.00000000       0.016
   0.22390882 -0.05745477  0.00000000       0.016
   0.24878757 -0.07181846  0.00000000       0.016
  -0.12439379  0.14363693  0.00000000       0.016
  -0.09951503  0.12927324  0.00000000       0.016
  -0.07463627  0.11490954  0.00000000       0.016
  -0.04975751  0.10054585  0.00000000       0.016
  -0.02487876  0.08618216  0.00000000       0.016
   0.00000000  0.07181846  0.00000000       0.008
   0.17415130  0.00000000  0.00000000       0.008
   0.19903006 -0.01436369  0.00000000       0.016
   0.22390882 -0.02872739  0.00000000       0.016
   0.24878757 -0.04309108  0.00000000       0.016
   0.27366633 -0.05745477  0.00000000       0.016
  -0.09951503  0.15800062  0.00000000       0.016
  -0.07463627  0.14363693  0.00000000       0.016
  -0.04975751  0.12927324  0.00000000       0.016
  -0.02487876  0.11490954  0.00000000       0.016
   0.00000000  0.10054585  0.00000000       0.008
   0.22390882  0.00000000  0.00000000       0.008
   0.24878757 -0.01436369  0.00000000       0.016
   0.27366633 -0.02872739  0.00000000       0.016
   0.29854509 -0.04309108  0.00000000       0.016
  -0.07463627  0.17236432  0.00000000       0.016
  -0.04975751  0.15800062  0.00000000       0.016
  -0.02487876  0.14363693  0.00000000       0.016
   0.00000000  0.12927324  0.00000000       0.008
   0.27366633  0.00000000  0.00000000       0.008
   0.29854509 -0.01436369  0.00000000       0.016
   0.32342385 -0.02872739  0.00000000       0.016
  -0.04975751  0.18672801  0.00000000       0.016
  -0.02487876  0.17236432  0.00000000       0.016
   0.00000000  0.15800062  0.00000000       0.008
   0.32342385  0.00000000  0.00000000       0.008
   0.34830260 -0.01436369  0.00000000       0.016
  -0.02487876  0.20109170  0.00000000       0.016
   0.00000000  0.18672801  0.00000000       0.008
   0.37318136  0.00000000  0.00000000       0.008
   0.00000000  0.21545539  0.00000000       0.008
 
 k-points in reciprocal lattice and weights: K-Point Grid                            
   0.03125000  0.03125000  0.00000000       0.008
   0.09375000  0.03125000  0.00000000       0.016
   0.15625000  0.03125000  0.00000000       0.016
   0.21875000  0.03125000  0.00000000       0.016
   0.28125000  0.03125000  0.00000000       0.016
   0.34375000  0.03125000  0.00000000       0.016
   0.40625000  0.03125000  0.00000000       0.016
   0.46875000  0.03125000  0.00000000       0.016
  -0.46875000  0.03125000  0.00000000       0.016
  -0.40625000  0.03125000  0.00000000       0.016
  -0.34375000  0.03125000  0.00000000       0.016
  -0.28125000  0.03125000  0.00000000       0.016
  -0.21875000  0.03125000  0.00000000       0.016
  -0.15625000  0.03125000  0.00000000       0.016
  -0.09375000  0.03125000  0.00000000       0.016
  -0.03125000  0.03125000  0.00000000       0.008
   0.09375000  0.09375000  0.00000000       0.008
   0.15625000  0.09375000  0.00000000       0.016
   0.21875000  0.09375000  0.00000000       0.016
   0.28125000  0.09375000  0.00000000       0.016
   0.34375000  0.09375000  0.00000000       0.016
   0.40625000  0.09375000  0.00000000       0.016
   0.46875000  0.09375000  0.00000000       0.016
  -0.46875000  0.09375000  0.00000000       0.016
  -0.40625000  0.09375000  0.00000000       0.016
  -0.34375000  0.09375000  0.00000000       0.016
  -0.28125000  0.09375000  0.00000000       0.016
  -0.21875000  0.09375000  0.00000000       0.016
  -0.15625000  0.09375000  0.00000000       0.016
  -0.09375000  0.09375000  0.00000000       0.008
   0.15625000  0.15625000  0.00000000       0.008
   0.21875000  0.15625000  0.00000000       0.016
   0.28125000  0.15625000  0.00000000       0.016
   0.34375000  0.15625000  0.00000000       0.016
   0.40625000  0.15625000  0.00000000       0.016
   0.46875000  0.15625000  0.00000000       0.016
  -0.46875000  0.15625000  0.00000000       0.016
  -0.40625000  0.15625000  0.00000000       0.016
  -0.34375000  0.15625000  0.00000000       0.016
  -0.28125000  0.15625000  0.00000000       0.016
  -0.21875000  0.15625000  0.00000000       0.016
  -0.15625000  0.15625000  0.00000000       0.008
   0.21875000  0.21875000  0.00000000       0.008
   0.28125000  0.21875000  0.00000000       0.016
   0.34375000  0.21875000  0.00000000       0.016
   0.40625000  0.21875000  0.00000000       0.016
   0.46875000  0.21875000  0.00000000       0.016
  -0.46875000  0.21875000  0.00000000       0.016
  -0.40625000  0.21875000  0.00000000       0.016
  -0.34375000  0.21875000  0.00000000       0.016
  -0.28125000  0.21875000  0.00000000       0.016
  -0.21875000  0.21875000  0.00000000       0.008
   0.28125000  0.28125000  0.00000000       0.008
   0.34375000  0.28125000  0.00000000       0.016
   0.40625000  0.28125000  0.00000000       0.016
   0.46875000  0.28125000  0.00000000       0.016
  -0.46875000  0.28125000  0.00000000       0.016
  -0.40625000  0.28125000  0.00000000       0.016
  -0.34375000  0.28125000  0.00000000       0.016
  -0.28125000  0.28125000  0.00000000       0.008
   0.34375000  0.34375000  0.00000000       0.008
   0.40625000  0.34375000  0.00000000       0.016
   0.46875000  0.34375000  0.00000000       0.016
  -0.46875000  0.34375000  0.00000000       0.016
  -0.40625000  0.34375000  0.00000000       0.016
  -0.34375000  0.34375000  0.00000000       0.008
   0.40625000  0.40625000  0.00000000       0.008
   0.46875000  0.40625000  0.00000000       0.016
  -0.46875000  0.40625000  0.00000000       0.016
  -0.40625000  0.40625000  0.00000000       0.008
   0.46875000  0.46875000  0.00000000       0.008
  -0.46875000  0.46875000  0.00000000       0.008
 
 position of ions in fractional coordinates (direct lattice) 
   0.66666858  0.33333541  0.50000000
   0.33333541  0.66666858  0.50000000
 
 position of ions in cartesian coordinates  (Angst):
   1.25609669 -0.72520776 17.55733219
   1.25609669  0.72520776 17.55733219
 


--------------------------------------------------------------------------------------------------------


 k-point  1 :   0.0312 0.0312 0.0000  plane waves:    5623
 k-point  2 :   0.0938 0.0312 0.0000  plane waves:    5617
 k-point  3 :   0.1562 0.0313 0.0000  plane waves:    5580
 k-point  4 :   0.2187 0.0313 0.0000  plane waves:    5585
 k-point  5 :   0.2812 0.0313 0.0000  plane waves:    5619
 k-point  6 :   0.3437 0.0313 0.0000  plane waves:    5618
 k-point  7 :   0.4062 0.0313 0.0000  plane waves:    5622
 k-point  8 :   0.4688 0.0312 0.0000  plane waves:    5652
 k-point  9 :  -0.4688 0.0312 0.0000  plane waves:    5648
 k-point 10 :  -0.4062 0.0312 0.0000  plane waves:    5626
 k-point 11 :  -0.3437 0.0312 0.0000  plane waves:    5619
 k-point 12 :  -0.2812 0.0312 0.0000  plane waves:    5600
 k-point 13 :  -0.2188 0.0312 0.0000  plane waves:    5570
 k-point 14 :  -0.1562 0.0312 0.0000  plane waves:    5601
 k-point 15 :  -0.0937 0.0312 0.0000  plane waves:    5623
 k-point 16 :  -0.0312 0.0312 0.0000  plane waves:    5637
 k-point 17 :   0.0938 0.0938 0.0000  plane waves:    5601
 k-point 18 :   0.1562 0.0938 0.0000  plane waves:    5579
 k-point 19 :   0.2187 0.0938 0.0000  plane waves:    5608
 k-point 20 :   0.2812 0.0938 0.0000  plane waves:    5625
 k-point 21 :   0.3437 0.0938 0.0000  plane waves:    5631
 k-point 22 :   0.4062 0.0938 0.0000  plane waves:    5646
 k-point 23 :   0.4688 0.0938 0.0000  plane waves:    5650
 k-point 24 :  -0.4688 0.0938 0.0000  plane waves:    5629
 k-point 25 :  -0.4062 0.0937 0.0000  plane waves:    5631
 k-point 26 :  -0.3438 0.0937 0.0000  plane waves:    5612
 k-point 27 :  -0.2812 0.0937 0.0000  plane waves:    5597
 k-point 28 :  -0.2187 0.0937 0.0000  plane waves:    5578
 k-point 29 :  -0.1562 0.0937 0.0000  plane waves:    5605
 k-point 30 :  -0.0937 0.0937 0.0000  plane waves:    5619
 k-point 31 :   0.1562 0.1562 0.0000  plane waves:    5603
 k-point 32 :   0.2188 0.1562 0.0000  plane waves:    5608
 k-point 33 :   0.2812 0.1562 0.0000  plane waves:    5618
 k-point 34 :   0.3437 0.1563 0.0000  plane waves:    5646
 k-point 35 :   0.4062 0.1562 0.0000  plane waves:    5639
 k-point 36 :   0.4688 0.1562 0.0000  plane waves:    5644
 k-point 37 :  -0.4687 0.1562 0.0000  plane waves:    5631
 k-point 38 :  -0.4062 0.1562 0.0000  plane waves:    5618
 k-point 39 :  -0.3437 0.1562 0.0000  plane waves:    5597
 k-point 40 :  -0.2812 0.1562 0.0000  plane waves:    5591
 k-point 41 :  -0.2187 0.1562 0.0000  plane waves:    5578
 k-point 42 :  -0.1562 0.1562 0.0000  plane waves:    5597
 k-point 43 :   0.2188 0.2188 0.0000  plane waves:    5631
 k-point 44 :   0.2812 0.2188 0.0000  plane waves:    5617
 k-point 45 :   0.3437 0.2187 0.0000  plane waves:    5654
 k-point 46 :   0.4062 0.2188 0.0000  plane waves:    5661
 k-point 47 :   0.4688 0.2188 0.0000  plane waves:    5631
 k-point 48 :  -0.4688 0.2188 0.0000  plane waves:    5619
 k-point 49 :  -0.4062 0.2187 0.0000  plane waves:    5606
 k-point 50 :  -0.3437 0.2187 0.0000  plane waves:    5616
 k-point 51 :  -0.2812 0.2187 0.0000  plane waves:    5598
 k-point 52 :  -0.2187 0.2187 0.0000  plane waves:    5576
 k-point 53 :   0.2812 0.2812 0.0000  plane waves:    5647
 k-point 54 :   0.3438 0.2812 0.0000  plane waves:    5656
 k-point 55 :   0.4062 0.2812 0.0000  plane waves:    5649
 k-point 56 :   0.4688 0.2812 0.0000  plane waves:    5635
 k-point 57 :  -0.4687 0.2812 0.0000  plane waves:    5618
 k-point 58 :  -0.4062 0.2812 0.0000  plane waves:    5623
 k-point 59 :  -0.3437 0.2812 0.0000  plane waves:    5631
 k-point 60 :  -0.2812 0.2812 0.0000  plane waves:    5618
 k-point 61 :   0.3438 0.3438 0.0000  plane waves:    5641
 k-point 62 :   0.4062 0.3438 0.0000  plane waves:    5656
 k-point 63 :   0.4688 0.3438 0.0000  plane waves:    5642
 k-point 64 :  -0.4687 0.3438 0.0000  plane waves:    5631
 k-point 65 :  -0.4062 0.3437 0.0000  plane waves:    5625
 k-point 66 :  -0.3437 0.3437 0.0000  plane waves:    5616
 k-point 67 :   0.4062 0.4062 0.0000  plane waves:    5656
 k-point 68 :   0.4688 0.4062 0.0000  plane waves:    5646
 k-point 69 :  -0.4687 0.4062 0.0000  plane waves:    5635
 k-point 70 :  -0.4062 0.4062 0.0000  plane waves:    5634
 k-point 71 :   0.4688 0.4688 0.0000  plane waves:    5652
 k-point 72 :  -0.4687 0.4687 0.0000  plane waves:    5646

 maximum and minimum number of plane-waves per node :      1905     1840

 maximum number of plane-waves:      5661
 maximum index in each direction: 
   IXMAX=    5   IYMAX=    4   IZMAX=   67
   IXMIN=   -5   IYMIN=   -5   IZMIN=  -67


 real space projection operators:
  total allocation   :        630.38 KBytes
  max/ min on nodes  :        220.19        191.69


 parallel 3D FFT for wavefunctions:
    minimum data exchange during FFTs selected (reduces bandwidth)
 parallel 3D FFT for charge:
    minimum data exchange during FFTs selected (reduces bandwidth)


 total amount of memory used by VASP MPI-rank0    57599. kBytes
=======================================================================

   base      :      30000. kBytes
   nonlr-proj:        493. kBytes
   fftplans  :       3897. kBytes
   grid      :       9960. kBytes
   one-center:          6. kBytes
   wavefun   :      13243. kBytes
 
     INWAV:  cpu time    0.0001: real time    0.0004
 Broyden mixing: mesh for mixing (old mesh)
   NGX =  9   NGY =  9   NGZ =135
  (NGX  = 40   NGY  = 40   NGZ  =540)
  gives a total of  10935 points

 initial charge density was supplied:
 charge density of overlapping atoms calculated
 number of electron       8.0000000 magnetization       2.0000000
 keeping initial charge density in first step


--------------------------------------------------------------------------------------------------------


 Maximum index for non-local projection operator         2215
 Maximum index for augmentation-charges          729 (set IRDMAX)


--------------------------------------------------------------------------------------------------------


 First call to EWALD:  gamma=   0.307
 Maximum number of real-space cells 6x 6x 1
 Maximum number of reciprocal cells 1x 1x14

    FEWALD:  cpu time    0.0083: real time    0.0051


--------------------------------------- Iteration      1(   1)  ---------------------------------------


    POTLOK:  cpu time    0.3389: real time    0.1788
    SETDIJ:  cpu time    0.0321: real time    0.0339
     EDDAV:  cpu time    2.2156: real time    1.1227
       DOS:  cpu time    0.0157: real time    0.0125
    --------------------------------------------
      LOOP:  cpu time    2.6025: real time    1.3481

 eigenvalue-minimisations  :  3720
 total energy-change (2. order) : 0.6340187E+02  (-0.3168557E+03)
 number of electron       8.0000000 magnetization       2.0000000
 augmentation part        8.0000000 magnetization       2.0000000

 Free energy of the ion-electron system (eV)
  ---------------------------------------------------
  alpha Z        PSCENC =         1.85412811
  Ewald energy   TEWEN  =      2557.01761615
  -Hartree energ DENC   =     -2799.82704540
  -exchange      EXHF   =         0.00000000
  -V(xc)+E(xc)   XCENC  =        27.22545552
  PAW double counting   =       248.18317831     -248.48689109
  entropy T*S    EENTRO =        -0.00207676
  eigenvalues    EBANDS =       -58.26884234
  atomic energy  EATOM  =       335.70634272
  Solvation  Ediel_sol  =         0.00000000
  ---------------------------------------------------
  free energy    TOTEN  =        63.40186523 eV

  energy without entropy =       63.40394199  energy(sigma->0) =       63.40290361


--------------------------------------------------------------------------------------------------------




--------------------------------------- Iteration      1(   2)  ---------------------------------------


     EDDAV:  cpu time    2.7801: real time    1.4036
       DOS:  cpu time    0.0016: real time    0.0008
    --------------------------------------------
      LOOP:  cpu time    2.7817: real time    1.4044

 eigenvalue-minimisations  :  5144
 total energy-change (2. order) :-0.7493450E+02  (-0.5918296E+02)
 number of electron       8.0000000 magnetization       2.0000000
 augmentation part        8.0000000 magnetization       2.0000000

 Free energy of the ion-electron system (eV)
  ---------------------------------------------------
  alpha Z        PSCENC =         1.85412811
  Ewald energy   TEWEN  =      2557.01761615
  -Hartree energ DENC   =     -2799.82704540
  -exchange      EXHF   =         0.00000000
  -V(xc)+E(xc)   XCENC  =        27.22545552
  PAW double counting   =       248.18317831     -248.48689109
  entropy T*S    EENTRO =        -0.00000000
  eigenvalues    EBANDS =      -133.20541828
  atomic energy  EATOM  =       335.70634272
  Solvation  Ediel_sol  =         0.00000000
  ---------------------------------------------------
  free energy    TOTEN  =       -11.53263396 eV

  energy without entropy =      -11.53263396  energy(sigma->0) =      -11.53263396


--------------------------------------------------------------------------------------------------------




--------------------------------------- Iteration      1(   3)  ---------------------------------------


     EDDAV:  cpu time    2.7791: real time    1.4118
       DOS:  cpu time    0.0021: real time    0.0010
    --------------------------------------------
      LOOP:  cpu time    2.7812: real time    1.4129

 eigenvalue-minimisations  :  5188
 total energy-change (2. order) :-0.7087856E+01  (-0.7078300E+01)
 number of electron       8.0000000 magnetization       2.0000000
 augmentation part        8.0000000 magnetization       2.0000000

 Free energy of the ion-electron system (eV)
  ---------------------------------------------------
  alpha Z        PSCENC =         1.85412811
  Ewald energy   TEWEN  =      2557.01761615
  -Hartree energ DENC   =     -2799.82704540
  -exchange      EXHF   =         0.00000000
  -V(xc)+E(xc)   XCENC  =        27.22545552
  PAW double counting   =       248.18317831     -248.48689109
  entropy T*S    EENTRO =        -0.00000000
  eigenvalues    EBANDS =      -140.29327466
  atomic energy  EATOM  =       335.70634272
  Solvation  Ediel_sol  =         0.00000000
  ---------------------------------------------------
  free energy    TOTEN  =       -18.62049034 eV

  energy without entropy =      -18.62049034  energy(sigma->0) =      -18.62049034


--------------------------------------------------------------------------------------------------------




--------------------------------------- Iteration      1(   4)  ---------------------------------------


     EDDAV:  cpu time    2.9551: real time    1.4978
       DOS:  cpu time    0.0016: real time    0.0008
    --------------------------------------------
      LOOP:  cpu time    2.9568: real time    1.4986

 eigenvalue-minimisations  :  5612
 total energy-change (2. order) :-0.8922299E-01  (-0.8920741E-01)
 number of electron       8.0000000 magnetization       2.0000000
 augmentation part        8.0000000 magnetization       2.0000000

 Free energy of the ion-electron system (eV)
  ---------------------------------------------------
  alpha Z        PSCENC =         1.85412811
  Ewald energy   TEWEN  =      2557.01761615
  -Hartree energ DENC   =     -2799.82704540
  -exchange      EXHF   =         0.00000000
  -V(xc)+E(xc)   XCENC  =        27.22545552
  PAW double counting   =       248.18317831     -248.48689109
  entropy T*S    EENTRO =        -0.00000000
  eigenvalues    EBANDS =      -140.38249765
  atomic energy  EATOM  =       335.70634272
  Solvation  Ediel_sol  =         0.00000000
  ---------------------------------------------------
  free energy    TOTEN  =       -18.70971332 eV

  energy without entropy =      -18.70971332  energy(sigma->0) =      -18.70971332


--------------------------------------------------------------------------------------------------------




--------------------------------------- Iteration      1(   5)  ---------------------------------------


     EDDAV:  cpu time    2.7395: real time    1.3938
       DOS:  cpu time    0.0017: real time    0.0009
    CHARGE:  cpu time    0.1537: real time    0.0819
    MIXING:  cpu time    0.0216: real time    0.0127
    --------------------------------------------
      LOOP:  cpu time    2.9166: real time    1.4893

 eigenvalue-minimisations  :  5160
 total energy-change (2. order) :-0.1662777E-03  (-0.1662660E-03)
 number of electron       7.9999999 magnetization       1.9007237
 augmentation part        0.3136322 magnetization       1.9032595

 Broyden mixing:
  rms(total) = 0.10529E+01    rms(broyden)= 0.10528E+01
  rms(prec ) = 0.10698E+01
  weight for this iteration     100.00

 Free energy of the ion-electron system (eV)
  ---------------------------------------------------
  alpha Z        PSCENC =         1.85412811
  Ewald energy   TEWEN  =      2557.01761615
  -Hartree energ DENC   =     -2799.82704540
  -exchange      EXHF   =         0.00000000
  -V(xc)+E(xc)   XCENC  =        27.22545552
  PAW double counting   =       248.18317831     -248.48689109
  entropy T*S    EENTRO =        -0.00000000
  eigenvalues    EBANDS =      -140.38266392
  atomic energy  EATOM  =       335.70634272
  Solvation  Ediel_sol  =         0.00000000
  ---------------------------------------------------
  free energy    TOTEN  =       -18.70987960 eV

  energy without entropy =      -18.70987960  energy(sigma->0) =      -18.70987960


--------------------------------------------------------------------------------------------------------




--------------------------------------- Iteration      1(   6)  ---------------------------------------


    POTLOK:  cpu time    0.3106: real time    0.1657
    SETDIJ:  cpu time    0.0067: real time    0.0048
    EDDIAG:  cpu time    0.4834: real time    0.2464
  RMM-DIIS:  cpu time    1.5163: real time    0.7595
    ORTHCH:  cpu time    0.0192: real time    0.0096
       DOS:  cpu time    0.0018: real time    0.0009
    CHARGE:  cpu time    0.1376: real time    0.0688
    MIXING:  cpu time    0.0155: real time    0.0084
    --------------------------------------------
      LOOP:  cpu time    2.4910: real time    1.2641

 eigenvalue-minimisations  :  3456
 total energy-change (2. order) : 0.6719246E+01  (-0.7082810E+00)
 number of electron       7.9999999 magnetization       1.7796765
 augmentation part        0.2726965 magnetization       1.7448736

 Broyden mixing:
  rms(total) = 0.52473E+00    rms(broyden)= 0.52467E+00
  rms(prec ) = 0.53271E+00
  weight for this iteration     100.00

 eigenvalues of (default mixing * dielectric matrix)
  average eigenvalue GAMMA=   1.1250
  1.1250

 Free energy of the ion-electron system (eV)
  ---------------------------------------------------
  alpha Z        PSCENC =         1.85412811
  Ewald energy   TEWEN  =      2557.01761615
  -Hartree energ DENC   =     -2817.66001111
  -exchange      EXHF   =         0.00000000
  -V(xc)+E(xc)   XCENC  =        32.01515711
  PAW double counting   =       448.30732436     -448.86449728
  entropy T*S    EENTRO =        -0.00000000
  eigenvalues    EBANDS =      -120.36669380
  atomic energy  EATOM  =       335.70634272
  Solvation  Ediel_sol  =         0.00000000
  ---------------------------------------------------
  free energy    TOTEN  =       -11.99063374 eV

  energy without entropy =      -11.99063374  energy(sigma->0) =      -11.99063374


--------------------------------------------------------------------------------------------------------




--------------------------------------- Iteration      1(   7)  ---------------------------------------


    POTLOK:  cpu time    0.3265: real time    0.1784
    SETDIJ:  cpu time    0.0026: real time    0.0026
    EDDIAG:  cpu time    0.4888: real time    0.2465
  RMM-DIIS:  cpu time    1.4721: real time    0.7361
    ORTHCH:  cpu time    0.0186: real time    0.0093
       DOS:  cpu time    0.0025: real time    0.0013
    CHARGE:  cpu time    0.1322: real time    0.0661
    MIXING:  cpu time    0.0127: real time    0.0063
    --------------------------------------------
      LOOP:  cpu time    2.4560: real time    1.2466

 eigenvalue-minimisations  :  3456
 total energy-change (2. order) :-0.1396170E+01  (-0.1340749E+00)
 number of electron       7.9999999 magnetization       1.6881817
 augmentation part        0.2417746 magnetization       1.6520909

 Broyden mixing:
  rms(total) = 0.36487E+00    rms(broyden)= 0.36483E+00
  rms(prec ) = 0.36794E+00
  weight for this iteration     100.00

 eigenvalues of (default mixing * dielectric matrix)
  average eigenvalue GAMMA=   1.0054
  1.1408  0.8701

 Free energy of the ion-electron system (eV)
  ---------------------------------------------------
  alpha Z        PSCENC =         1.85412811
  Ewald energy   TEWEN  =      2557.01761615
  -Hartree energ DENC   =     -2830.39996820
  -exchange      EXHF   =         0.00000000
  -V(xc)+E(xc)   XCENC  =        31.19121715
  PAW double counting   =       666.78915236     -667.48314801
  entropy T*S    EENTRO =        -0.00000000
  eigenvalues    EBANDS =      -108.06214393
  atomic energy  EATOM  =       335.70634272
  Solvation  Ediel_sol  =         0.00000000
  ---------------------------------------------------
  free energy    TOTEN  =       -13.38680365 eV

  energy without entropy =      -13.38680365  energy(sigma->0) =      -13.38680365


--------------------------------------------------------------------------------------------------------




--------------------------------------- Iteration      1(   8)  ---------------------------------------


    POTLOK:  cpu time    0.3543: real time    0.1784
    SETDIJ:  cpu time    0.0034: real time    0.0030
    EDDIAG:  cpu time    0.4837: real time    0.2438
  RMM-DIIS:  cpu time    1.5155: real time    0.7579
    ORTHCH:  cpu time    0.0298: real time    0.0188
       DOS:  cpu time    0.0018: real time    0.0009
    CHARGE:  cpu time    0.1314: real time    0.0657
    MIXING:  cpu time    0.0121: real time    0.0060
    --------------------------------------------
      LOOP:  cpu time    2.5319: real time    1.2744

 eigenvalue-minimisations  :  3456
 total energy-change (2. order) :-0.3718011E+00  (-0.1920669E-01)
 number of electron       7.9999999 magnetization       1.4854866
 augmentation part        0.2439623 magnetization       1.4561101

 Broyden mixing:
  rms(total) = 0.26171E+00    rms(broyden)= 0.26171E+00
  rms(prec ) = 0.26341E+00
  weight for this iteration     100.00

 eigenvalues of (default mixing * dielectric matrix)
  average eigenvalue GAMMA=   1.3748
  2.1220  1.2746  0.7277

 Free energy of the ion-electron system (eV)
  ---------------------------------------------------
  alpha Z        PSCENC =         1.85412811
  Ewald energy   TEWEN  =      2557.01761615
  -Hartree energ DENC   =     -2833.46151854
  -exchange      EXHF   =         0.00000000
  -V(xc)+E(xc)   XCENC  =        30.88058416
  PAW double counting   =       770.95701666     -771.68366494
  entropy T*S    EENTRO =        -0.00000000
  eigenvalues    EBANDS =      -105.02910906
  atomic energy  EATOM  =       335.70634272
  Solvation  Ediel_sol  =         0.00000000
  ---------------------------------------------------
  free energy    TOTEN  =       -13.75860475 eV

  energy without entropy =      -13.75860475  energy(sigma->0) =      -13.75860475


--------------------------------------------------------------------------------------------------------




--------------------------------------- Iteration      1(   9)  ---------------------------------------


    POTLOK:  cpu time    0.3161: real time    0.1587
    SETDIJ:  cpu time    0.0121: real time    0.0060
    EDDIAG:  cpu time    0.4865: real time    0.2433
  RMM-DIIS:  cpu time    1.5039: real time    0.7520
    ORTHCH:  cpu time    0.0186: real time    0.0093
       DOS:  cpu time    0.0020: real time    0.0010
    CHARGE:  cpu time    0.1316: real time    0.0658
    MIXING:  cpu time    0.0121: real time    0.0061
    --------------------------------------------
      LOOP:  cpu time    2.4830: real time    1.2422

 eigenvalue-minimisations  :  3456
 total energy-change (2. order) :-0.1532624E+01  (-0.8822871E-01)
 number of electron       7.9999999 magnetization       1.4138871
 augmentation part        0.2436497 magnetization       1.3928517

 Broyden mixing:
  rms(total) = 0.17462E+00    rms(broyden)= 0.17461E+00
  rms(prec ) = 0.17537E+00
  weight for this iteration     100.00

 eigenvalues of (default mixing * dielectric matrix)
  average eigenvalue GAMMA=   1.3121
  2.5243  1.2603  0.8121  0.6517

 Free energy of the ion-electron system (eV)
  ---------------------------------------------------
  alpha Z        PSCENC =         1.85412811
  Ewald energy   TEWEN  =      2557.01761615
  -Hartree energ DENC   =     -2840.48739133
  -exchange      EXHF   =         0.00000000
  -V(xc)+E(xc)   XCENC  =        29.93769858
  PAW double counting   =       961.48681498     -962.24914633
  entropy T*S    EENTRO =        -0.00000000
  eigenvalues    EBANDS =       -98.55729115
  atomic energy  EATOM  =       335.70634272
  Solvation  Ediel_sol  =         0.00000000
  ---------------------------------------------------
  free energy    TOTEN  =       -15.29122827 eV

  energy without entropy =      -15.29122827  energy(sigma->0) =      -15.29122827


--------------------------------------------------------------------------------------------------------




--------------------------------------- Iteration      1(  10)  ---------------------------------------


    POTLOK:  cpu time    0.3395: real time    0.1722
    SETDIJ:  cpu time    0.0124: real time    0.0062
    EDDIAG:  cpu time    0.4838: real time    0.2434
  RMM-DIIS:  cpu time    1.5134: real time    0.7567
    ORTHCH:  cpu time    0.0186: real time    0.0093
       DOS:  cpu time    0.0021: real time    0.0010
    CHARGE:  cpu time    0.1322: real time    0.0661
    MIXING:  cpu time    0.0125: real time    0.0062
    --------------------------------------------
      LOOP:  cpu time    2.5145: real time    1.2612

 eigenvalue-minimisations  :  3456
 total energy-change (2. order) :-0.3857007E+00  (-0.1498055E-01)
 number of electron       7.9999999 magnetization       1.1449058
 augmentation part        0.2397117 magnetization       1.1267035

 Broyden mixing:
  rms(total) = 0.15391E+00    rms(broyden)= 0.15391E+00
  rms(prec ) = 0.15439E+00
  weight for this iteration     100.00

 eigenvalues of (default mixing * dielectric matrix)
  average eigenvalue GAMMA=   1.3402
  2.0844  2.0844  0.9437  0.9437  0.6451

 Free energy of the ion-electron system (eV)
  ---------------------------------------------------
  alpha Z        PSCENC =         1.85412811
  Ewald energy   TEWEN  =      2557.01761615
  -Hartree energ DENC   =     -2842.13916023
  -exchange      EXHF   =         0.00000000
  -V(xc)+E(xc)   XCENC  =        29.74465990
  PAW double counting   =       970.95945085     -971.72532225
  entropy T*S    EENTRO =        -0.00000000
  eigenvalues    EBANDS =       -97.09464426
  atomic energy  EATOM  =       335.70634272
  Solvation  Ediel_sol  =         0.00000000
  ---------------------------------------------------
  free energy    TOTEN  =       -15.67692900 eV

  energy without entropy =      -15.67692900  energy(sigma->0) =      -15.67692900


--------------------------------------------------------------------------------------------------------




--------------------------------------- Iteration      1(  11)  ---------------------------------------


    POTLOK:  cpu time    0.2721: real time    0.1363
    SETDIJ:  cpu time    0.0123: real time    0.0062
    EDDIAG:  cpu time    0.4870: real time    0.2435
  RMM-DIIS:  cpu time    1.4666: real time    0.7334
    ORTHCH:  cpu time    0.0186: real time    0.0093
       DOS:  cpu time    0.0020: real time    0.0010
    CHARGE:  cpu time    0.1316: real time    0.0658
    MIXING:  cpu time    0.0130: real time    0.0065
    --------------------------------------------
      LOOP:  cpu time    2.4031: real time    1.2019

 eigenvalue-minimisations  :  3456
 total energy-change (2. order) :-0.8965713E+00  (-0.6955851E-01)
 number of electron       7.9999999 magnetization       0.9357690
 augmentation part        0.2344885 magnetization       0.9242350

 Broyden mixing:
  rms(total) = 0.11537E+00    rms(broyden)= 0.11535E+00
  rms(prec ) = 0.11591E+00
  weight for this iteration     100.00

 eigenvalues of (default mixing * dielectric matrix)
  average eigenvalue GAMMA=   1.6405
  3.9629  2.5421  1.1265  0.7956  0.7956  0.6205

 Free energy of the ion-electron system (eV)
  ---------------------------------------------------
  alpha Z        PSCENC =         1.85412811
  Ewald energy   TEWEN  =      2557.01761615
  -Hartree energ DENC   =     -2844.47017828
  -exchange      EXHF   =         0.00000000
  -V(xc)+E(xc)   XCENC  =        29.20815054
  PAW double counting   =       934.49643719     -935.23037886
  entropy T*S    EENTRO =        -0.00000000
  eigenvalues    EBANDS =       -95.15561786
  atomic energy  EATOM  =       335.70634272
  Solvation  Ediel_sol  =         0.00000000
  ---------------------------------------------------
  free energy    TOTEN  =       -16.57350029 eV

  energy without entropy =      -16.57350029  energy(sigma->0) =      -16.57350029


--------------------------------------------------------------------------------------------------------




--------------------------------------- Iteration      1(  12)  ---------------------------------------


    POTLOK:  cpu time    0.2684: real time    0.1345
    SETDIJ:  cpu time    0.0099: real time    0.0049
    EDDIAG:  cpu time    0.4827: real time    0.2414
  RMM-DIIS:  cpu time    1.5133: real time    0.7567
    ORTHCH:  cpu time    0.0187: real time    0.0093
       DOS:  cpu time    0.0096: real time    0.0083
    CHARGE:  cpu time    0.1306: real time    0.0653
    MIXING:  cpu time    0.0130: real time    0.0065
    --------------------------------------------
      LOOP:  cpu time    2.4462: real time    1.2270

 eigenvalue-minimisations  :  3456
 total energy-change (2. order) :-0.5145054E+00  (-0.3529278E-01)
 number of electron       7.9999999 magnetization       0.7575323
 augmentation part        0.2344754 magnetization       0.7512819

 Broyden mixing:
  rms(total) = 0.83548E-01    rms(broyden)= 0.83532E-01
  rms(prec ) = 0.84047E-01
  weight for this iteration     100.00

 eigenvalues of (default mixing * dielectric matrix)
  average eigenvalue GAMMA=   1.8321
  5.7432  2.1968  1.3324  1.3324  0.8870  0.7152  0.6174

 Free energy of the ion-electron system (eV)
  ---------------------------------------------------
  alpha Z        PSCENC =         1.85412811
  Ewald energy   TEWEN  =      2557.01761615
  -Hartree energ DENC   =     -2845.94683254
  -exchange      EXHF   =         0.00000000
  -V(xc)+E(xc)   XCENC  =        28.83699227
  PAW double counting   =       938.24537230     -938.96698739
  entropy T*S    EENTRO =        -0.00000000
  eigenvalues    EBANDS =       -93.83463731
  atomic energy  EATOM  =       335.70634272
  Solvation  Ediel_sol  =         0.00000000
  ---------------------------------------------------
  free energy    TOTEN  =       -17.08800569 eV

  energy without entropy =      -17.08800569  energy(sigma->0) =      -17.08800569


--------------------------------------------------------------------------------------------------------




--------------------------------------- Iteration      1(  13)  ---------------------------------------


    POTLOK:  cpu time    0.3578: real time    0.1799
    SETDIJ:  cpu time    0.0020: real time    0.0020
    EDDIAG:  cpu time    0.4833: real time    0.2436
  RMM-DIIS:  cpu time    1.4977: real time    0.7489
    ORTHCH:  cpu time    0.0281: real time    0.0178
       DOS:  cpu time    0.0017: real time    0.0009
    CHARGE:  cpu time    0.1318: real time    0.0659
    MIXING:  cpu time    0.0171: real time    0.0107
    --------------------------------------------
      LOOP:  cpu time    2.5195: real time    1.2697

 eigenvalue-minimisations  :  3456
 total energy-change (2. order) :-0.2216056E+00  (-0.1590476E-01)
 number of electron       7.9999999 magnetization       0.5897507
 augmentation part        0.2371083 magnetization       0.5869045

 Broyden mixing:
  rms(total) = 0.67913E-01    rms(broyden)= 0.67904E-01
  rms(prec ) = 0.68387E-01
  weight for this iteration     100.00

 eigenvalues of (default mixing * dielectric matrix)
  average eigenvalue GAMMA=   1.9602
  7.2548  2.3603  1.8702  1.1822  0.8330  0.8330  0.7297  0.6185

 Free energy of the ion-electron system (eV)
  ---------------------------------------------------
  alpha Z        PSCENC =         1.85412811
  Ewald energy   TEWEN  =      2557.01761615
  -Hartree energ DENC   =     -2845.95993479
  -exchange      EXHF   =         0.00000000
  -V(xc)+E(xc)   XCENC  =        28.63633385
  PAW double counting   =       940.00958671     -940.73378880
  entropy T*S    EENTRO =        -0.00000000
  eigenvalues    EBANDS =       -93.83989528
  atomic energy  EATOM  =       335.70634272
  Solvation  Ediel_sol  =         0.00000000
  ---------------------------------------------------
  free energy    TOTEN  =       -17.30961134 eV

  energy without entropy =      -17.30961134  energy(sigma->0) =      -17.30961134


--------------------------------------------------------------------------------------------------------




--------------------------------------- Iteration      1(  14)  ---------------------------------------


    POTLOK:  cpu time    0.2971: real time    0.1599
    SETDIJ:  cpu time    0.0097: real time    0.0048
    EDDIAG:  cpu time    0.4883: real time    0.2442
  RMM-DIIS:  cpu time    1.4940: real time    0.7470
    ORTHCH:  cpu time    0.0185: real time    0.0093
       DOS:  cpu time    0.0021: real time    0.0011
    CHARGE:  cpu time    0.1316: real time    0.0658
    MIXING:  cpu time    0.0131: real time    0.0066
    --------------------------------------------
      LOOP:  cpu time    2.4545: real time    1.2386

 eigenvalue-minimisations  :  3458
 total energy-change (2. order) :-0.4805550E-01  (-0.3962006E-02)
 number of electron       7.9999999 magnetization       0.4415488
 augmentation part        0.2363550 magnetization       0.4404650

 Broyden mixing:
  rms(total) = 0.49445E-01    rms(broyden)= 0.49441E-01
  rms(prec ) = 0.49756E-01
  weight for this iteration     100.00

 eigenvalues of (default mixing * dielectric matrix)
  average eigenvalue GAMMA=   2.1797
  9.0578  2.8897  2.1402  1.2595  1.2595  0.8510  0.8510  0.6912  0.6178

 Free energy of the ion-electron system (eV)
  ---------------------------------------------------
  alpha Z        PSCENC =         1.85412811
  Ewald energy   TEWEN  =      2557.01761615
  -Hartree energ DENC   =     -2845.45973094
  -exchange      EXHF   =         0.00000000
  -V(xc)+E(xc)   XCENC  =        28.58265870
  PAW double counting   =       915.95011473     -916.67682709
  entropy T*S    EENTRO =        -0.00000000
  eigenvalues    EBANDS =       -94.33196923
  atomic energy  EATOM  =       335.70634272
  Solvation  Ediel_sol  =         0.00000000
  ---------------------------------------------------
  free energy    TOTEN  =       -17.35766685 eV

  energy without entropy =      -17.35766685  energy(sigma->0) =      -17.35766685


--------------------------------------------------------------------------------------------------------




--------------------------------------- Iteration      1(  15)  ---------------------------------------


    POTLOK:  cpu time    0.2673: real time    0.1339
    SETDIJ:  cpu time    0.0105: real time    0.0053
    EDDIAG:  cpu time    0.4882: real time    0.2442
  RMM-DIIS:  cpu time    1.4916: real time    0.7458
    ORTHCH:  cpu time    0.0194: real time    0.0097
       DOS:  cpu time    0.0018: real time    0.0009
    CHARGE:  cpu time    0.1319: real time    0.0660
    MIXING:  cpu time    0.0150: real time    0.0075
    --------------------------------------------
      LOOP:  cpu time    2.4258: real time    1.2133

 eigenvalue-minimisations  :  3456
 total energy-change (2. order) :-0.8106795E-01  (-0.2153448E-02)
 number of electron       7.9999999 magnetization       0.3190534
 augmentation part        0.2338788 magnetization       0.3185429

 Broyden mixing:
  rms(total) = 0.43087E-01    rms(broyden)= 0.43084E-01
  rms(prec ) = 0.43426E-01
  weight for this iteration     100.00

 eigenvalues of (default mixing * dielectric matrix)
  average eigenvalue GAMMA=   2.2081
  9.9452  3.2110  2.3880  1.4947  1.1749  0.8846  0.8846  0.8074  0.6738  0.6167

 Free energy of the ion-electron system (eV)
  ---------------------------------------------------
  alpha Z        PSCENC =         1.85412811
  Ewald energy   TEWEN  =      2557.01761615
  -Hartree energ DENC   =     -2844.99910454
  -exchange      EXHF   =         0.00000000
  -V(xc)+E(xc)   XCENC  =        28.51398310
  PAW double counting   =       909.08734523     -909.82045935
  entropy T*S    EENTRO =        -0.00000000
  eigenvalues    EBANDS =       -94.79858623
  atomic energy  EATOM  =       335.70634272
  Solvation  Ediel_sol  =         0.00000000
  ---------------------------------------------------
  free energy    TOTEN  =       -17.43873480 eV

  energy without entropy =      -17.43873480  energy(sigma->0) =      -17.43873480


--------------------------------------------------------------------------------------------------------




--------------------------------------- Iteration      1(  16)  ---------------------------------------


    POTLOK:  cpu time    0.2729: real time    0.1368
    SETDIJ:  cpu time    0.0105: real time    0.0053
    EDDIAG:  cpu time    0.4917: real time    0.2459
  RMM-DIIS:  cpu time    1.4489: real time    0.7282
    ORTHCH:  cpu time    0.0186: real time    0.0093
       DOS:  cpu time    0.0020: real time    0.0010
    CHARGE:  cpu time    0.1321: real time    0.0661
    MIXING:  cpu time    0.0136: real time    0.0068
    --------------------------------------------
      LOOP:  cpu time    2.3904: real time    1.1993

 eigenvalue-minimisations  :  3456
 total energy-change (2. order) :-0.7126735E-01  (-0.7714779E-03)
 number of electron       7.9999999 magnetization       0.1864976
 augmentation part        0.2345156 magnetization       0.1863490

 Broyden mixing:
  rms(total) = 0.28965E-01    rms(broyden)= 0.28965E-01
  rms(prec ) = 0.29139E-01
  weight for this iteration     100.00

 eigenvalues of (default mixing * dielectric matrix)
  average eigenvalue GAMMA=   2.4748
 11.6804  4.7174  2.6701  1.9918  1.1828  1.1828  0.9047  0.9047  0.7178  0.6183
  0.6516

 Free energy of the ion-electron system (eV)
  ---------------------------------------------------
  alpha Z        PSCENC =         1.85412811
  Ewald energy   TEWEN  =      2557.01761615
  -Hartree energ DENC   =     -2843.94942021
  -exchange      EXHF   =         0.00000000
  -V(xc)+E(xc)   XCENC  =        28.42234006
  PAW double counting   =       919.28467718     -920.01795661
  entropy T*S    EENTRO =        -0.00000000
  eigenvalues    EBANDS =       -95.82772956
  atomic energy  EATOM  =       335.70634272
  Solvation  Ediel_sol  =         0.00000000
  ---------------------------------------------------
  free energy    TOTEN  =       -17.51000215 eV

  energy without entropy =      -17.51000215  energy(sigma->0) =      -17.51000215


--------------------------------------------------------------------------------------------------------




--------------------------------------- Iteration      1(  17)  ---------------------------------------


    POTLOK:  cpu time    0.2956: real time    0.1485
    SETDIJ:  cpu time    0.0124: real time    0.0062
    EDDIAG:  cpu time    0.4884: real time    0.2442
  RMM-DIIS:  cpu time    1.4738: real time    0.7369
    ORTHCH:  cpu time    0.0186: real time    0.0093
       DOS:  cpu time    0.0019: real time    0.0009
    CHARGE:  cpu time    0.1322: real time    0.0661
    MIXING:  cpu time    0.0140: real time    0.0070
    --------------------------------------------
      LOOP:  cpu time    2.4370: real time    1.2193

 eigenvalue-minimisations  :  3456
 total energy-change (2. order) :-0.5982898E-01  (-0.7673771E-03)
 number of electron       7.9999999 magnetization       0.1364697
 augmentation part        0.2366076 magnetization       0.1365071

 Broyden mixing:
  rms(total) = 0.25743E-01    rms(broyden)= 0.25741E-01
  rms(prec ) = 0.26113E-01
  weight for this iteration     100.00

 eigenvalues of (default mixing * dielectric matrix)
  average eigenvalue GAMMA=   2.5837
 13.3117  5.7359  2.5814  2.2781  1.2536  0.9864  0.9864  1.0050  0.9097  0.7012
  0.6231  0.6315

 Free energy of the ion-electron system (eV)
  ---------------------------------------------------
  alpha Z        PSCENC =         1.85412811
  Ewald energy   TEWEN  =      2557.01761615
  -Hartree energ DENC   =     -2842.62723462
  -exchange      EXHF   =         0.00000000
  -V(xc)+E(xc)   XCENC  =        28.33132296
  PAW double counting   =       927.83228741     -928.56179271
  entropy T*S    EENTRO =        -0.00000000
  eigenvalues    EBANDS =       -97.12250115
  atomic energy  EATOM  =       335.70634272
  Solvation  Ediel_sol  =         0.00000000
  ---------------------------------------------------
  free energy    TOTEN  =       -17.56983113 eV

  energy without entropy =      -17.56983113  energy(sigma->0) =      -17.56983113


--------------------------------------------------------------------------------------------------------




--------------------------------------- Iteration      1(  18)  ---------------------------------------


    POTLOK:  cpu time    0.3552: real time    0.1784
    SETDIJ:  cpu time    0.0120: real time    0.0120
    EDDIAG:  cpu time    0.4827: real time    0.2432
  RMM-DIIS:  cpu time    1.4746: real time    0.7375
    ORTHCH:  cpu time    0.0185: real time    0.0092
       DOS:  cpu time    0.0020: real time    0.0010
    CHARGE:  cpu time    0.1325: real time    0.0662
    MIXING:  cpu time    0.0143: real time    0.0071
    --------------------------------------------
      LOOP:  cpu time    2.4918: real time    1.2548

 eigenvalue-minimisations  :  3456
 total energy-change (2. order) :-0.2122887E-01  (-0.9502670E-04)
 number of electron       7.9999999 magnetization       0.0691496
 augmentation part        0.2359653 magnetization       0.0689440

 Broyden mixing:
  rms(total) = 0.17222E-01    rms(broyden)= 0.17222E-01
  rms(prec ) = 0.17391E-01
  weight for this iteration     100.00

 eigenvalues of (default mixing * dielectric matrix)
  average eigenvalue GAMMA=   2.6484
 14.3285  6.2136  2.6127  2.6127  1.7632  1.0964  1.0964  1.0669  0.8659  0.8155
  0.7079  0.6221  0.6270

 Free energy of the ion-electron system (eV)
  ---------------------------------------------------
  alpha Z        PSCENC =         1.85412811
  Ewald energy   TEWEN  =      2557.01761615
  -Hartree energ DENC   =     -2842.53395456
  -exchange      EXHF   =         0.00000000
  -V(xc)+E(xc)   XCENC  =        28.32061225
[...]
      1     -21.7826      1.00000
      2      -9.4605      1.00000
      3      -9.0624      1.00000
      4      -7.7386      1.00000
      5       1.1279      0.00000
      6       1.8858      0.00000
      7       2.2541      0.00000
      8       2.4426      0.00000
      9       2.5750      0.00000
     10       2.9357      0.00000
     11       3.2730      0.00000
     12       3.8125      0.00000

 k-point    53 :       0.2812    0.2812    0.0000
  band No.  band energies     occupation 
      1     -19.3127      1.00000
      2     -12.9589      1.00000
      3     -11.5456      1.00000
      4      -5.5160      1.00000
      5      -0.0095      0.00000
      6       6.7434      0.00000
      7       7.2771      0.00000
      8       8.2661      0.00000
      9       8.3532      0.00000
     10       8.5199      0.00000
     11       8.6971      0.00000
     12       9.1080      0.00000

 k-point    54 :       0.3438    0.2812    0.0000
  band No.  band energies     occupation 
      1     -19.0986      1.00000
      2     -13.0554      1.00000
      3     -11.9175      1.00000
      4      -5.1602      1.00000
      5      -0.3418      0.00000
      6       7.3898      0.00000
      7       7.9034      0.00000
      8       9.0469      0.00000
      9       9.9437      0.00000
     10      10.0315      0.00000
     11      10.1257      0.00000
     12      10.4385      0.00000

 k-point    55 :       0.4062    0.2812    0.0000
  band No.  band energies     occupation 
      1     -19.1730      1.00000
      2     -13.0244      1.00000
      3     -11.7886      1.00000
      4      -5.2861      1.00000
      5      -0.2242      0.00000
      6       7.3893      0.00000
      7       7.4115      0.00000
      8       8.9768      0.00000
      9       9.1182      0.00000
     10       9.1574      0.00000
     11       9.4547      0.00000
     12       9.5048      0.00000

 k-point    56 :       0.4688    0.2812    0.0000
  band No.  band energies     occupation 
      1     -19.5030      1.00000
      2     -12.8556      1.00000
      3     -11.2113      1.00000
      4      -5.8179      1.00000
      5       0.2738      0.00000
      6       6.0463      0.00000
      7       6.9016      0.00000
      8       7.4632      0.00000
      9       7.6200      0.00000
     10       7.7523      0.00000
     11       8.0485      0.00000
     12       8.8332      0.00000

 k-point    57 :      -0.4687    0.2812    0.0000
  band No.  band energies     occupation 
      1     -19.9693      1.00000
      2     -12.5336      1.00000
      3     -10.3697      1.00000
      4      -6.5220      1.00000
      5       0.9478      0.00000
      6       4.7290      0.00000
      7       5.7493      0.00000
      8       6.0378      0.00000
      9       6.2494      0.00000
     10       6.3395      0.00000
     11       6.9980      0.00000
     12       7.6869      0.00000

 k-point    58 :      -0.4062    0.2812    0.0000
  band No.  band energies     occupation 
      1     -20.4591      1.00000
      2     -12.0683      1.00000
      3      -9.4649      1.00000
      4      -7.2288      1.00000
      5       1.6527      0.00000
      6       3.5989      0.00000
      7       4.6726      0.00000
      8       4.8593      0.00000
      9       5.0971      0.00000
     10       5.1646      0.00000
     11       5.6495      0.00000
     12       5.8249      0.00000

 k-point    59 :      -0.3437    0.2812    0.0000
  band No.  band energies     occupation 
      1     -20.8985      1.00000
      2     -11.4848      1.00000
      3      -8.7001      1.00000
      4      -7.8466      1.00000
      5       2.2525      0.00000
      6       2.7010      0.00000
      7       3.8516      0.00000
      8       3.9275      0.00000
      9       4.2045      0.00000
     10       4.2380      0.00000
     11       4.7773      0.00000
     12       4.9019      0.00000

 k-point    60 :      -0.2812    0.2812    0.0000
  band No.  band energies     occupation 
      1     -21.2448      1.00000
      2     -10.8255      1.00000
      3      -8.3265      1.00000
      4      -8.2584      1.00000
      5       2.0590      0.00000
      6       2.4774      0.00000
      7       3.2459      0.00000
      8       3.3346      0.00000
      9       3.5641      0.00000
     10       3.6551      0.00000
     11       4.2389      0.00000
     12       4.2448      0.00000

 k-point    61 :       0.3438    0.3438    0.0000
  band No.  band energies     occupation 
      1     -19.0473      1.00000
      2     -12.9384      1.00000
      3     -12.1620      1.00000
      4      -5.0737      1.00000
      5      -0.3958      0.00000
      6       7.3019      0.00000
      7       8.1736      0.00000
      8       9.3967      0.00000
      9      10.1139      0.00000
     10      10.6289      0.00000
     11      11.0062      0.00000
     12      11.8205      0.00000

 k-point    62 :       0.4062    0.3438    0.0000
  band No.  band energies     occupation 
      1     -19.1972      1.00000
      2     -13.1691      1.00000
      3     -11.5554      1.00000
      4      -5.3237      1.00000
      5      -0.2368      0.00000
      6       7.3752      0.00000
      7       7.5056      0.00000
      8       8.7106      0.00000
      9       9.1760      0.00000
     10       9.2060      0.00000
     11       9.4904      0.00000
     12       9.5260      0.00000

 k-point    63 :       0.4688    0.3438    0.0000
  band No.  band energies     occupation 
      1     -19.5057      1.00000
      2     -13.2323      1.00000
      3     -10.6897      1.00000
      4      -5.8152      1.00000
      5       0.1057      0.00000
      6       6.0679      0.00000
      7       7.1308      0.00000
      8       7.5828      0.00000
      9       7.6997      0.00000
     10       7.8144      0.00000
     11       8.0590      0.00000
     12       8.2584      0.00000

 k-point    64 :      -0.4687    0.3438    0.0000
  band No.  band energies     occupation 
      1     -19.8966      1.00000
      2     -13.0514      1.00000
      3      -9.8041      1.00000
      4      -6.4077      1.00000
      5       0.5899      0.00000
      6       4.8424      0.00000
      7       6.0572      0.00000
      8       6.3113      0.00000
      9       6.4390      0.00000
     10       6.5594      0.00000
     11       6.8100      0.00000
     12       7.0848      0.00000

 k-point    65 :      -0.4062    0.3437    0.0000
  band No.  band energies     occupation 
      1     -20.2936      1.00000
      2     -12.6615      1.00000
      3      -9.0811      1.00000
      4      -6.9879      1.00000
      5       1.1680      0.00000
      6       3.8551      0.00000
      7       5.0807      0.00000
      8       5.2763      0.00000
      9       5.4523      0.00000
     10       5.5247      0.00000
     11       5.8337      0.00000
     12       6.0693      0.00000

 k-point    66 :      -0.3437    0.3437    0.0000
  band No.  band energies     occupation 
      1     -20.6398      1.00000
      2     -12.1156      1.00000
      3      -8.6907      1.00000
      4      -7.4822      1.00000
      5       1.7645      0.00000
      6       3.1541      0.00000
      7       4.3345      0.00000
      8       4.4825      0.00000
      9       4.7358      0.00000
     10       4.7477      0.00000
     11       5.2595      0.00000
     12       5.2954      0.00000

 k-point    67 :       0.4062    0.4062    0.0000
  band No.  band energies     occupation 
      1     -19.3174      1.00000
      2     -13.5058      1.00000
      3     -10.7944      1.00000
      4      -5.5109      1.00000
      5      -0.2507      0.00000
      6       6.8009      0.00000
      7       7.9180      0.00000
      8       8.0963      0.00000
      9       8.8892      0.00000
     10       9.2446      0.00000
     11       9.5410      0.00000
     12       9.5939      0.00000

 k-point    68 :       0.4688    0.4062    0.0000
  band No.  band energies     occupation 
      1     -19.5237      1.00000
      2     -13.6460      1.00000
      3      -9.9759      1.00000
      4      -5.8311      1.00000
      5      -0.1429      0.00000
      6       5.6629      0.00000
      7       7.2116      0.00000
      8       7.5965      0.00000
      9       8.0901      0.00000
     10       8.2533      0.00000
     11       8.4070      0.00000
     12       8.7066      0.00000

 k-point    69 :      -0.4687    0.4062    0.0000
  band No.  band energies     occupation 
      1     -19.7859      1.00000
      2     -13.5296      1.00000
      3      -9.3189      1.00000
      4      -6.2323      1.00000
      5       0.1553      0.00000
      6       4.7178      0.00000
      7       6.2208      0.00000
      8       6.6001      0.00000
      9       6.9149      0.00000
     10       7.1149      0.00000
     11       7.2647      0.00000
     12       7.6477      0.00000

 k-point    70 :      -0.4062    0.4062    0.0000
  band No.  band energies     occupation 
      1     -20.0578      1.00000
      2     -13.1818      1.00000
      3      -8.9968      1.00000
      4      -6.6403      1.00000
      5       0.6217      0.00000
      6       4.1701      0.00000
      7       5.5706      0.00000
      8       5.7287      0.00000
      9       5.9894      0.00000
     10       6.1984      0.00000
     11       6.3596      0.00000
     12       6.7338      0.00000

 k-point    71 :       0.4688    0.4688    0.0000
  band No.  band energies     occupation 
      1     -19.5754      1.00000
      2     -13.8629      1.00000
      3      -9.3996      1.00000
      4      -5.9025      1.00000
      5      -0.2724      0.00000
      6       4.9141      0.00000
      7       7.4535      0.00000
      8       7.9192      0.00000
      9       8.0749      0.00000
     10       8.5718      0.00000
     11       8.7782      0.00000
     12       8.8119      0.00000

 k-point    72 :      -0.4687    0.4687    0.0000
  band No.  band energies     occupation 
      1     -19.6682      1.00000
      2     -13.8211      1.00000
      3      -9.1546      1.00000
      4      -6.0457      1.00000
      5      -0.1698      0.00000
      6       4.5691      0.00000
      7       6.7546      0.00000
      8       7.3563      0.00000
      9       7.7181      0.00000
     10       7.9098      0.00000
     11       8.0435      0.00000
     12       8.5362      0.00000


--------------------------------------------------------------------------------------------------------


 soft charge-density along one line, spin component           1
         0         1         2         3         4         5         6         7         8         9
 total charge-density along one line
 
 soft charge-density along one line, spin component           2
         0         1         2         3         4         5         6         7         8         9
 total charge-density along one line
 
 pseudopotential strength for first ion, spin component:           1
  6.845  10.451  -0.000   0.000  -0.000  -0.000   0.000  -0.000
 10.451  15.956  -0.000   0.000  -0.000  -0.000   0.000  -0.000
 -0.000  -0.000  -2.372   0.000  -0.000  -4.085   0.000  -0.000
  0.000   0.000   0.000  -2.369  -0.000   0.000  -4.078  -0.000
 -0.000  -0.000  -0.000  -0.000  -2.372  -0.000  -0.000  -4.085
 -0.000  -0.000  -4.085   0.000  -0.000  -6.839   0.000  -0.000
  0.000   0.000   0.000  -4.078  -0.000   0.000  -6.820  -0.000
 -0.000  -0.000  -0.000  -0.000  -4.085  -0.000  -0.000  -6.839
 pseudopotential strength for first ion, spin component:           2
  6.845  10.451  -0.000   0.000  -0.000  -0.000   0.000  -0.000
 10.451  15.956  -0.000   0.000  -0.000  -0.000   0.000  -0.000
 -0.000  -0.000  -2.372   0.000  -0.000  -4.085   0.000  -0.000
  0.000   0.000   0.000  -2.369  -0.000   0.000  -4.078  -0.000
 -0.000  -0.000  -0.000  -0.000  -2.372  -0.000  -0.000  -4.085
 -0.000  -0.000  -4.085   0.000  -0.000  -6.839   0.000  -0.000
  0.000   0.000   0.000  -4.078  -0.000   0.000  -6.820  -0.000
 -0.000  -0.000  -0.000  -0.000  -4.085  -0.000  -0.000  -6.839
 total augmentation occupancy for first ion, spin component:           1
  4.191  -1.220   0.000   0.000   0.000  -0.000   0.000   0.000
 -1.220   0.384   0.000   0.000   0.000  -0.000   0.000   0.000
  0.000   0.000   4.902   0.000   0.000  -1.475   0.000   0.000
  0.000   0.000   0.000   1.591   0.000   0.000  -0.388   0.000
  0.000   0.000   0.000   0.000   4.902   0.000  -0.000  -1.475
 -0.000  -0.000  -1.475   0.000   0.000   0.459  -0.000   0.000
  0.000   0.000   0.000  -0.388  -0.000  -0.000   0.096   0.000
  0.000   0.000   0.000   0.000  -1.475   0.000   0.000   0.459
 total augmentation occupancy for first ion, spin component:           2
 -0.000   0.000   0.000   0.000   0.000   0.000   0.000   0.000
  0.000   0.000   0.000   0.000   0.000   0.000   0.000   0.000
  0.000   0.000  -0.000  -0.000   0.000   0.000   0.000   0.000
  0.000   0.000  -0.000   0.000   0.000  -0.000  -0.000   0.000
  0.000   0.000   0.000   0.000  -0.000   0.000   0.000   0.000
  0.000   0.000   0.000  -0.000   0.000  -0.000  -0.000   0.000
  0.000   0.000   0.000  -0.000   0.000  -0.000   0.000   0.000
  0.000   0.000   0.000   0.000   0.000   0.000   0.000  -0.000


------------------------ aborting loop because EDIFF is reached ----------------------------------------


 


 total charge     
 
# of ion       s       p       d       tot
------------------------------------------
    1        0.740   1.414   0.000   2.154
    2        1.222   2.785   0.000   4.008
--------------------------------------------------
tot          1.963   4.200   0.000   6.162
 


 magnetization (x)
 
# of ion       s       p       d       tot
------------------------------------------
    1       -0.000   0.000   0.000   0.000
    2        0.000   0.000   0.000   0.000
--------------------------------------------------
tot          0.000   0.000   0.000   0.000
 
    CHARGE:  cpu time    0.1345: real time    0.0676
    FORLOC:  cpu time    0.0096: real time    0.0054
    FORNL :  cpu time    0.5643: real time    0.2831
    STRESS:  cpu time    1.6956: real time    0.8503
    FORCOR:  cpu time    0.2719: real time    0.1366
    FORHAR:  cpu time    0.0341: real time    0.0178
    MIXING:  cpu time    0.0215: real time    0.0108
    OFIELD:  cpu time    0.0016: real time    0.0014

  FORCE on cell =-STRESS in cart. coord.  units (eV):
  Direction    XX          YY          ZZ          XY          YZ          ZX
  --------------------------------------------------------------------------------------
  Alpha Z     1.85413     1.85413     1.85413
  Ewald    2828.60261  2828.60228 -3100.18746     0.00000     0.00000     0.00000
  Hartree  2813.61756  2813.61759 -2784.78809     0.00001    -0.00000    -0.00000
  E(xc)     -31.54311   -31.54310   -32.49084     0.00000     0.00000    -0.00000
  Local   -5726.44625 -5726.44653  5785.23324     0.00022     0.00000    -0.00000
  n-local   -15.05378   -15.05374   -14.96673     0.25713     0.00000     0.00000
  augment     1.08650     1.08650     1.26266     0.00000     0.00000    -0.00000
  Kinetic   127.89578   127.89549   144.06663    -0.42426     0.00000    -0.00000
  Fock        0.00000     0.00000     0.00000     0.00000     0.00000     0.00000
  -------------------------------------------------------------------------------------
  Total       0.01303     0.01304    -0.01645    -0.00000     0.00000     0.00000
  in kB       0.10882     0.10882    -0.13733    -0.00000     0.00000     0.00000
  external pressure =        0.03 kB  Pullay stress =        0.00 kB


 VOLUME and BASIS-vectors are now :
 -----------------------------------------------------------------------------
  energy-cutoff  :      550.00
  volume of cell :      191.92
      direct lattice vectors                 reciprocal lattice vectors
     1.256091676 -2.175624343  0.000000000     0.398060117 -0.229819087  0.000000000
     1.256091676  2.175624343  0.000000000     0.398060117  0.229819087  0.000000000
     0.000000000  0.000000000 35.114664386     0.000000000  0.000000000  0.028478131

  length of vectors
     2.512191788  2.512191788 35.114664386     0.459639717  0.459639717  0.028478131


 FORCES acting on ions
    electron-ion (+dipol)            ewald-force                    non-local-force                 convergence-correction
 -----------------------------------------------------------------------------------------------
   0.113E-03 -.502E-03 -.175E-09   0.114E-13 0.777E-03 0.000E+00   0.544E-16 -.214E-15 0.000E+00   0.255E-08 -.308E-08 0.171E-12
   -.304E-02 0.484E-03 -.113E-10   -.222E-13 -.777E-03 0.000E+00   -.548E-17 -.143E-17 0.000E+00   -.199E-07 -.496E-08 0.286E-12
 -----------------------------------------------------------------------------------------------
   -.292E-02 -.175E-04 -.187E-09   -.108E-13 0.691E-15 0.000E+00   0.489E-16 -.216E-15 0.000E+00   -.173E-07 -.805E-08 0.456E-12
 
 
 POSITION                                       TOTAL-FORCE (eV/Angst)
 -----------------------------------------------------------------------------------
      1.25610     -0.72521     17.55733         0.000000     -0.000000      0.000000
      1.25610      0.72521     17.55733        -0.000000      0.000000      0.000000
 -----------------------------------------------------------------------------------
    total drift:                               -0.002923     -0.000018     -0.000000


--------------------------------------------------------------------------------------------------------



  FREE ENERGIE OF THE ION-ELECTRON SYSTEM (eV)
  ---------------------------------------------------
  free  energy   TOTEN  =       -17.59881492 eV

  energy  without entropy=      -17.59881492  energy(sigma->0) =      -17.59881492
 


--------------------------------------------------------------------------------------------------------


    POTLOK:  cpu time    0.1319: real time    0.1110


--------------------------------------------------------------------------------------------------------




--------------------------------------------------------------------------------------------------------


  
 reached required accuracy - stopping structural energy minimisation
 writing wavefunctions
     LOOP+:  cpu time   75.3866: real time   38.7800
    4ORBIT:  cpu time    0.0000: real time    0.0000
 


 total charge     
 
# of ion       s       p       d       tot
------------------------------------------
    1        0.740   1.414   0.000   2.154
    2        1.222   2.785   0.000   4.008
--------------------------------------------------
tot          1.963   4.200   0.000   6.162
 


 magnetization (x)
 
# of ion       s       p       d       tot
------------------------------------------
    1       -0.000   0.000   0.000   0.000
    2        0.000   0.000   0.000   0.000
--------------------------------------------------
tot          0.000   0.000   0.000   0.000
 

 total amount of memory used by VASP MPI-rank0    57599. kBytes
=======================================================================

   base      :      30000. kBytes
   nonlr-proj:        493. kBytes
   fftplans  :       3897. kBytes
   grid      :       9960. kBytes
   one-center:          6. kBytes
   wavefun   :      13243. kBytes
 
  
  
 General timing and accounting informations for this job:
 ========================================================
  
                  Total CPU time used (sec):       83.896
                            User time (sec):       73.055
                          System time (sec):       10.841
                         Elapsed time (sec):       47.511
  
                   Maximum memory used (kb):      237624.
                   Average memory used (kb):           0.
  
                          Minor page faults:       105437
                          Major page faults:           16
                 Voluntary context switches:         3590
