 vasp.5.4.4.18Apr17-6-g9f103f2a35 (build May 01 2020 14:57:12) complex          
  
 executed on             LinuxIFC date 2020.11.08  10:54:16
 running on  144 total cores
 distrk:  each k-point on   48 cores,    3 groups
 distr:  one band on NCORES_PER_BAND=   1 cores,   48 groups


--------------------------------------------------------------------------------------------------------


 INCAR:
 POTCAR:    PAW_PBE B 06Sep2000                   
 POTCAR:    PAW_PBE N 08Apr2002                   
 POTCAR:    PAW_PBE C 08Apr2002                   
 POTCAR:    PAW_PBE F 08Apr2002                   
 POTCAR:    PAW_PBE O 08Apr2002                   

 ----------------------------------------------------------------------------- 
|                                                                             |
|           W    W    AA    RRRRR   N    N  II  N    N   GGGG   !!!           |
|           W    W   A  A   R    R  NN   N  II  NN   N  G    G  !!!           |
|           W    W  A    A  R    R  N N  N  II  N N  N  G       !!!           |
|           W WW W  AAAAAA  RRRRR   N  N N  II  N  N N  G  GGG   !            |
|           WW  WW  A    A  R   R   N   NN  II  N   NN  G    G                |
|           W    W  A    A  R    R  N    N  II  N    N   GGGG   !!!           |
|                                                                             |
|      For optimal performance we recommend to set                            |
|        NCORE= 4 - approx SQRT( number of cores)                             |
|      NCORE specifies how many cores store one orbital (NPAR=cpu/NCORE).     |
|      This setting can  greatly improve the performance of VASP for DFT.     |
|      The default,   NCORE=1            might be grossly inefficient         |
|      on modern multi-core architectures or massively parallel machines.     |
|      Do your own testing !!!!                                               |
|      Unfortunately you need to use the default for GW and RPA calculations. |
|      (for HF NCORE is supported but not extensively tested yet)             |
|                                                                             |
 ----------------------------------------------------------------------------- 


 ----------------------------------------------------------------------------- 
|                                                                             |
|           W    W    AA    RRRRR   N    N  II  N    N   GGGG   !!!           |
|           W    W   A  A   R    R  NN   N  II  NN   N  G    G  !!!           |
|           W    W  A    A  R    R  N N  N  II  N N  N  G       !!!           |
|           W WW W  AAAAAA  RRRRR   N  N N  II  N  N N  G  GGG   !            |
|           WW  WW  A    A  R   R   N   NN  II  N   NN  G    G                |
|           W    W  A    A  R    R  N    N  II  N    N   GGGG   !!!           |
|                                                                             |
|      You have enabled k-point parallelism (KPAR>1).                         |
|      This developmental code was originally  written by Paul Kent at ORNL,  |
|      and carefully double checked in Vienna.                                |
|      GW as well as linear response parallelism added by Martijn Marsman     |
|      and Georg Kresse.                                                      |
|      Carefully verify results versus KPAR=1.                                |
|      Report problems to Paul Kent and Vienna.                               |
|                                                                             |
 ----------------------------------------------------------------------------- 

 POTCAR:    PAW_PBE B 06Sep2000                   
   VRHFIN =B: s2p1                                                              
   LEXCH  = PE                                                                  
   EATOM  =    71.1703 eV,    5.2309 Ry                                         
                                                                                
   TITEL  = PAW_PBE B 06Sep2000                                                 
   LULTRA =        F    use ultrasoft PP ?                                      
   IUNSCR =        1    unscreen: 0-lin 1-nonlin 2-no                           
   RPACOR =    1.200    partial core radius                                     
   POMASS =   10.811; ZVAL   =    3.000    mass and valenz                      
   RCORE  =    1.700    outmost cutoff radius                                   
   RWIGS  =    1.710; RWIGS  =    0.905    wigner-seitz radius (au A)           
   ENMAX  =  318.614; ENMIN  =  238.960 eV                                      
   ICORE  =        2    local potential                                         
   LCOR   =        T    correct aug charges                                     
   LPAW   =        T    paw PP                                                  
   EAUG   =  535.514                                                            
   DEXC   =    0.000                                                            
   RMAX   =    1.732    core radius for proj-oper                               
   RAUG   =    1.300    factor for augmentation sphere                          
   RDEP   =    1.757    radius for radial grids                                 
   RDEPT  =    1.436    core radius for aug-charge                              
                                                                                
   Atomic configuration                                                         
    4 entries                                                                   
     n  l   j            E        occ.                                          
     1  0  0.50      -180.5896   2.0000                                         
     2  0  0.50        -9.4431   2.0000                                         
     2  1  0.50        -3.6068   1.0000                                         
     3  2  1.50        -4.0817   0.0000                                         
   Description                                                                  
     l       E           TYP  RCUT    TYP  RCUT                                 
     0     -9.4430752     23  1.500                                             
     0      0.8675899     23  1.500                                             
     1     -3.6067955     23  1.700                                             
     1      6.1086146     23  1.700                                             
     2     -4.0817478      7  1.700                                             
  local pseudopotential read in
  partial core-charges read in
  partial kinetic energy density read in
  atomic valenz-charges read in
  non local Contribution for L=           0  read in
    real space projection operators read in
  non local Contribution for L=           0  read in
    real space projection operators read in
  non local Contribution for L=           1  read in
    real space projection operators read in
  non local Contribution for L=           1  read in
    real space projection operators read in
    PAW grid and wavefunctions read in
 
   number of l-projection  operators is LMAX  =           4
   number of lm-projection operators is LMMAX =           8
 
 POTCAR:    PAW_PBE N 08Apr2002                   
   VRHFIN =N: s2p3                                                              
   LEXCH  = PE                                                                  
   EATOM  =   264.5486 eV,   19.4438 Ry                                         
                                                                                
   TITEL  = PAW_PBE N 08Apr2002                                                 
   LULTRA =        F    use ultrasoft PP ?                                      
   IUNSCR =        1    unscreen: 0-lin 1-nonlin 2-no                           
   RPACOR =    1.200    partial core radius                                     
   POMASS =   14.001; ZVAL   =    5.000    mass and valenz                      
   RCORE  =    1.500    outmost cutoff radius                                   
   RWIGS  =    1.400; RWIGS  =    0.741    wigner-seitz radius (au A)           
   ENMAX  =  400.000; ENMIN  =  300.000 eV                                      
   ICORE  =        2    local potential                                         
   LCOR   =        T    correct aug charges                                     
   LPAW   =        T    paw PP                                                  
   EAUG   =  627.112                                                            
   DEXC   =    0.000                                                            
   RMAX   =    1.529    core radius for proj-oper                               
   RAUG   =    1.300    factor for augmentation sphere                          
   RDEP   =    1.514    radius for radial grids                                 
   RDEPT  =    1.338    core radius for aug-charge                              
                                                                                
   Atomic configuration                                                         
    4 entries                                                                   
     n  l   j            E        occ.                                          
     1  0  0.50      -384.7179   2.0000                                         
     2  0  0.50       -18.5828   2.0000                                         
     2  1  0.50        -7.0898   3.0000                                         
     3  2  1.50        -6.8029   0.0000                                         
   Description                                                                  
     l       E           TYP  RCUT    TYP  RCUT                                 
     0    -18.5828119     23  1.200                                             
     0    -13.5018863     23  1.200                                             
     1     -7.0897853     23  1.500                                             
     1      9.5240782     23  1.500                                             
     2     -6.8029130      7  1.500                                             
  local pseudopotential read in
  partial core-charges read in
  partial kinetic energy density read in
  atomic valenz-charges read in
  non local Contribution for L=           0  read in
    real space projection operators read in
  non local Contribution for L=           0  read in
    real space projection operators read in
  non local Contribution for L=           1  read in
    real space projection operators read in
  non local Contribution for L=           1  read in
    real space projection operators read in
    PAW grid and wavefunctions read in
 
   number of l-projection  operators is LMAX  =           4
   number of lm-projection operators is LMMAX =           8
 
 POTCAR:    PAW_PBE C 08Apr2002                   
   VRHFIN =C: s2p2                                                              
   LEXCH  = PE                                                                  
   EATOM  =   147.1560 eV,   10.8157 Ry                                         
                                                                                
   TITEL  = PAW_PBE C 08Apr2002                                                 
   LULTRA =        F    use ultrasoft PP ?                                      
   IUNSCR =        1    unscreen: 0-lin 1-nonlin 2-no                           
   RPACOR =    1.200    partial core radius                                     
   POMASS =   12.011; ZVAL   =    4.000    mass and valenz                      
   RCORE  =    1.500    outmost cutoff radius                                   
   RWIGS  =    1.630; RWIGS  =    0.863    wigner-seitz radius (au A)           
   ENMAX  =  400.000; ENMIN  =  300.000 eV                                      
   ICORE  =        2    local potential                                         
   LCOR   =        T    correct aug charges                                     
   LPAW   =        T    paw PP                                                  
   EAUG   =  644.873                                                            
   DEXC   =    0.000                                                            
   RMAX   =    1.529    core radius for proj-oper                               
   RAUG   =    1.300    factor for augmentation sphere                          
   RDEP   =    1.501    radius for radial grids                                 
   RDEPT  =    1.300    core radius for aug-charge                              
                                                                                
   Atomic configuration                                                         
    4 entries                                                                   
     n  l   j            E        occ.                                          
     1  0  0.50      -273.3789   2.0000                                         
     2  0  0.50       -13.7508   2.0000                                         
     2  1  0.50        -5.2854   2.0000                                         
     3  2  1.50        -5.4423   0.0000                                         
   Description                                                                  
     l       E           TYP  RCUT    TYP  RCUT                                 
     0    -13.7508458     23  1.200                                             
     0     -8.2022199     23  1.200                                             
     1     -5.2854383     23  1.500                                             
     1     34.0145650     23  1.500                                             
     2     -5.4423304      7  1.500                                             
  local pseudopotential read in
  partial core-charges read in
  partial kinetic energy density read in
  atomic valenz-charges read in
  non local Contribution for L=           0  read in
    real space projection operators read in
  non local Contribution for L=           0  read in
    real space projection operators read in
  non local Contribution for L=           1  read in
    real space projection operators read in
  non local Contribution for L=           1  read in
    real space projection operators read in
    PAW grid and wavefunctions read in
 
   number of l-projection  operators is LMAX  =           4
   number of lm-projection operators is LMMAX =           8
 
 POTCAR:    PAW_PBE F 08Apr2002                   
   VRHFIN =F: s2p5                                                              
   LEXCH  = PE                                                                  
   EATOM  =   659.6475 eV,   48.4827 Ry                                         
                                                                                
   TITEL  = PAW_PBE F 08Apr2002                                                 
   LULTRA =        F    use ultrasoft PP ?                                      
   IUNSCR =        1    unscreen: 0-lin 1-nonlin 2-no                           
   RPACOR =    1.200    partial core radius                                     
   POMASS =   18.998; ZVAL   =    7.000    mass and valenz                      
   RCORE  =    1.520    outmost cutoff radius                                   
   RWIGS  =    1.500; RWIGS  =    0.794    wigner-seitz radius (au A)           
   ENMAX  =  400.000; ENMIN  =  300.000 eV                                      
   ICORE  =        2    local potential                                         
   LCOR   =        T    correct aug charges                                     
   LPAW   =        T    paw PP                                                  
   EAUG   =  613.614                                                            
   RMAX   =    1.555    core radius for proj-oper                               
   RAUG   =    1.300    factor for augmentation sphere                          
   RDEP   =    1.539    radius for radial grids                                 
   RDEPT  =    1.299    core radius for aug-charge                              
                                                                                
   Atomic configuration                                                         
    4 entries                                                                   
     n  l   j            E        occ.                                          
     1  0  0.50      -663.3661   2.0000                                         
     2  0  0.50       -29.8995   2.0000                                         
     2  1  0.50       -11.1114   5.0000                                         
     3  2  1.50       -10.8847   0.0000                                         
   Description                                                                  
     l       E           TYP  RCUT    TYP  RCUT                                 
     0    -29.8995018     23  1.200                                             
     0     -9.5240782     23  1.200                                             
     1    -11.1113914     23  1.520                                             
     1      1.3605826     23  1.520                                             
     2    -10.8846608      7  1.500                                             
  local pseudopotential read in
  partial core-charges read in
  partial kinetic energy density read in
  atomic valenz-charges read in
  non local Contribution for L=           0  read in
    real space projection operators read in
  non local Contribution for L=           0  read in
    real space projection operators read in
  non local Contribution for L=           1  read in
    real space projection operators read in
  non local Contribution for L=           1  read in
    real space projection operators read in
    PAW grid and wavefunctions read in
 
   number of l-projection  operators is LMAX  =           4
   number of lm-projection operators is LMMAX =           8
 
 POTCAR:    PAW_PBE O 08Apr2002                   
   VRHFIN =O: s2p4                                                              
   LEXCH  = PE                                                                  
   EATOM  =   432.3788 eV,   31.7789 Ry                                         
                                                                                
   TITEL  = PAW_PBE O 08Apr2002                                                 
   LULTRA =        F    use ultrasoft PP ?                                      
   IUNSCR =        1    unscreen: 0-lin 1-nonlin 2-no                           
   RPACOR =    1.200    partial core radius                                     
   POMASS =   16.000; ZVAL   =    6.000    mass and valenz                      
   RCORE  =    1.520    outmost cutoff radius                                   
   RWIGS  =    1.550; RWIGS  =    0.820    wigner-seitz radius (au A)           
   ENMAX  =  400.000; ENMIN  =  300.000 eV                                      
   ICORE  =        2    local potential                                         
   LCOR   =        T    correct aug charges                                     
   LPAW   =        T    paw PP                                                  
   EAUG   =  605.392                                                            
   DEXC   =    0.000                                                            
   RMAX   =    1.553    core radius for proj-oper                               
   RAUG   =    1.300    factor for augmentation sphere                          
   RDEP   =    1.550    radius for radial grids                                 
   RDEPT  =    1.329    core radius for aug-charge                              
                                                                                
   Atomic configuration                                                         
    4 entries                                                                   
     n  l   j            E        occ.                                          
     1  0  0.50      -514.6923   2.0000                                         
     2  0  0.50       -23.9615   2.0000                                         
     2  1  0.50        -9.0305   4.0000                                         
     3  2  1.50        -9.5241   0.0000                                         
   Description                                                                  
     l       E           TYP  RCUT    TYP  RCUT                                 
     0    -23.9615318     23  1.200                                             
     0     -9.5240782     23  1.200                                             
     1     -9.0304911     23  1.520                                             
     1      8.1634956     23  1.520                                             
     2     -9.5240782      7  1.500                                             
  local pseudopotential read in
  partial core-charges read in
  partial kinetic energy density read in
  kinetic energy density of atom read in
  atomic valenz-charges read in
  non local Contribution for L=           0  read in
    real space projection operators read in
  non local Contribution for L=           0  read in
    real space projection operators read in
  non local Contribution for L=           1  read in
    real space projection operators read in
  non local Contribution for L=           1  read in
    real space projection operators read in
    PAW grid and wavefunctions read in
 
   number of l-projection  operators is LMAX  =           4
   number of lm-projection operators is LMMAX =           8
 
 Optimization of the real space projectors (new method)

 maximal supplied QI-value         = 22.11
 optimisation between [QCUT,QGAM] = [ 11.94, 23.88] = [ 39.92,159.67] Ry 
 Optimized for a Real-space Cutoff    1.18 Angstroem

   l    n(q)    QCUT    max X(q) W(low)/X(q) W(high)/X(q)  e(spline) 
   0      8    11.939    53.033    0.11E-03    0.34E-03    0.60E-07
   0      8    11.939    34.740    0.11E-03    0.34E-03    0.59E-07
   1      8    11.939    30.949    0.22E-03    0.20E-03    0.17E-06
   1      8    11.939    19.518    0.20E-03    0.18E-03    0.16E-06
 Optimization of the real space projectors (new method)

 maximal supplied QI-value         = 25.13
 optimisation between [QCUT,QGAM] = [ 11.81, 23.88] = [ 39.08,159.64] Ry 
 Optimized for a Real-space Cutoff    1.41 Angstroem

   l    n(q)    QCUT    max X(q) W(low)/X(q) W(high)/X(q)  e(spline) 
   0     10    11.813    79.467    0.48E-04    0.30E-04    0.67E-06
   0     10    11.813    66.151    0.47E-04    0.30E-04    0.67E-06
   1     10    11.813    20.169    0.11E-03    0.17E-03    0.11E-05
   1     10    11.813    14.454    0.11E-03    0.17E-03    0.11E-05
 Optimization of the real space projectors (new method)

 maximal supplied QI-value         = 25.13
 optimisation between [QCUT,QGAM] = [ 11.81, 23.88] = [ 39.08,159.64] Ry 
 Optimized for a Real-space Cutoff    1.18 Angstroem

   l    n(q)    QCUT    max X(q) W(low)/X(q) W(high)/X(q)  e(spline) 
   0      8    11.813   115.676    0.10E-03    0.16E-03    0.35E-06
   0      8    11.813    87.132    0.10E-03    0.16E-03    0.35E-06
   1      8    11.813     4.429    0.16E-03    0.13E-04    0.22E-06
   1      8    11.813     2.733    0.13E-03    0.10E-04    0.18E-06
 Optimization of the real space projectors (new method)

 maximal supplied QI-value         = 24.76
 optimisation between [QCUT,QGAM] = [ 11.88, 24.01] = [ 39.54,161.47] Ry 
 Optimized for a Real-space Cutoff    1.18 Angstroem

   l    n(q)    QCUT    max X(q) W(low)/X(q) W(high)/X(q)  e(spline) 
   0      8    11.883    14.049    0.56E-04    0.86E-04    0.22E-06
   0      8    11.883     8.945    0.81E-04    0.11E-03    0.30E-06
   1      8    11.883     7.086    0.16E-03    0.15E-04    0.31E-06
   1      8    11.883     6.747    0.15E-03    0.14E-04    0.28E-06
 Optimization of the real space projectors (new method)

 maximal supplied QI-value         = 24.76
 optimisation between [QCUT,QGAM] = [ 11.88, 24.01] = [ 39.54,161.47] Ry 
 Optimized for a Real-space Cutoff    1.18 Angstroem

   l    n(q)    QCUT    max X(q) W(low)/X(q) W(high)/X(q)  e(spline) 
   0      8    11.883    20.381    0.86E-04    0.11E-03    0.31E-06
   0      8    11.883    15.268    0.94E-04    0.12E-03    0.33E-06
   1      8    11.883     5.964    0.19E-03    0.18E-04    0.33E-06
   1      8    11.883     5.382    0.17E-03    0.20E-04    0.29E-06
  PAW_PBE B 06Sep2000                   :
 energy of atom  1       EATOM=  -71.1703
 kinetic energy error for atom=    0.0009 (will be added to EATOM!!)
  PAW_PBE N 08Apr2002                   :
 energy of atom  2       EATOM= -264.5486
 kinetic energy error for atom=    0.0116 (will be added to EATOM!!)
  PAW_PBE C 08Apr2002                   :
 energy of atom  3       EATOM= -147.1560
 kinetic energy error for atom=    0.0066 (will be added to EATOM!!)
  PAW_PBE F 08Apr2002                   :
 energy of atom  4       EATOM= -659.6475
 kinetic energy error for atom=    0.0296 (will be added to EATOM!!)
  PAW_PBE O 08Apr2002                   :
 energy of atom  5       EATOM= -432.3788
 kinetic energy error for atom=    0.0194 (will be added to EATOM!!)
 
 
 POSCAR: B N C F O                               
  positions in direct lattice
  velocities in cartesian coordinates

 METAGGA = SCAN     LMAXTAU =  6    LMIXTAU =  F

 exchange correlation table for  LEXCH =        8
   RHO(1)=    0.500       N(1)  =     2000
   RHO(2)=  100.500       N(2)  =     4000
 


--------------------------------------------------------------------------------------------------------


 ion  position               nearest neighbor table
   1  0.083  0.042  0.502-  65 1.45  72 1.45  73 1.45
   2  0.083  0.167  0.502-  65 1.45  66 1.45  74 1.45
   3  0.083  0.292  0.502-  67 1.45  66 1.45  75 1.45
   4  0.083  0.417  0.502-  68 1.45  67 1.45  76 1.45
   5  0.083  0.542  0.502-  68 1.45  77 1.45  69 1.45
   6  0.083  0.667  0.502-  69 1.45  78 1.45  70 1.45
   7  0.083  0.792  0.502-  71 1.45  79 1.45  70 1.45
   8  0.083  0.917  0.502-  72 1.45  80 1.45  71 1.45
   9  0.208  0.042  0.502-  80 1.45  81 1.45  73 1.45
  10  0.208  0.167  0.502-  73 1.45  74 1.45  82 1.45
  11  0.208  0.292  0.502-  74 1.45  75 1.45  83 1.45
  12  0.208  0.417  0.502-  76 1.45  84 1.45  75 1.45
  13  0.208  0.542  0.502-  77 1.45  85 1.45  76 1.45
  14  0.208  0.667  0.502-  77 1.45  86 1.45  78 1.45
  15  0.208  0.792  0.502-  87 1.45  78 1.45  79 1.45
  16  0.208  0.917  0.502-  80 1.45  88 1.45  79 1.45
  17  0.333  0.042  0.502-  88 1.45  89 1.45  81 1.45
  18  0.333  0.167  0.502-  90 1.45  81 1.45  82 1.45
  19  0.333  0.292  0.502-  91 1.45  82 1.45  83 1.45
  20  0.333  0.417  0.502-  92 1.45  84 1.45  83 1.45
  21  0.333  0.542  0.502-  93 1.45  85 1.45  84 1.45
  22  0.333  0.667  0.502-  86 1.45  94 1.45  85 1.45
  23  0.333  0.792  0.502-  86 1.45  95 1.45  87 1.45
  24  0.333  0.917  0.502-  87 1.45  88 1.45  96 1.45
  25  0.458  0.042  0.502-  96 1.45  89 1.45  97 1.45
  26  0.458  0.167  0.502-  89 1.45  98 1.45  90 1.45
  27  0.458  0.292  0.502-  99 1.45  90 1.45  91 1.45
  28  0.458  0.417  0.502- 100 1.45  92 1.45  91 1.45
  29  0.458  0.542  0.502- 101 1.45  93 1.45  92 1.45
  30  0.458  0.667  0.502-  94 1.45 102 1.45  93 1.45
  31  0.458  0.792  0.502-  94 1.45  95 1.45 103 1.45
  32  0.458  0.917  0.502-  95 1.45 104 1.45  96 1.45
  33  0.583  0.042  0.502- 104 1.45 105 1.45  97 1.45
  34  0.583  0.167  0.502-  97 1.45 106 1.45  98 1.45
  35  0.583  0.292  0.502-  99 1.45  98 1.45 107 1.45
  36  0.583  0.417  0.502- 100 1.45  99 1.45 108 1.45
  37  0.583  0.542  0.502- 101 1.45 100 1.45 109 1.45
  38  0.583  0.667  0.502- 101 1.45 102 1.45 110 1.45
  39  0.583  0.792  0.502- 102 1.45 103 1.45 111 1.45
  40  0.583  0.917  0.502- 103 1.45 104 1.45 112 1.45
  41  0.708  0.042  0.502- 113 1.45 112 1.45 105 1.45
  42  0.708  0.167  0.502- 114 1.45 106 1.45 105 1.45
  43  0.708  0.292  0.502- 107 1.45 115 1.45 106 1.45
  44  0.708  0.417  0.502- 108 1.45 107 1.45 116 1.45
  45  0.708  0.542  0.502- 108 1.45 109 1.45 117 1.45
  46  0.708  0.667  0.502- 109 1.45 110 1.45 118 1.45
  47  0.708  0.792  0.502- 110 1.45 119 1.45 111 1.45
  48  0.708  0.917  0.502- 120 1.45 111 1.45 112 1.45
  49  0.833  0.042  0.502- 121 1.45 113 1.45 120 1.45
  50  0.833  0.167  0.502- 122 1.45 114 1.45 113 1.45
  51  0.833  0.292  0.502- 123 1.45 115 1.45 114 1.45
  52  0.833  0.417  0.502- 124 1.45 116 1.45 115 1.45
  53  0.833  0.542  0.502- 116 1.45 125 1.45 117 1.45
  54  0.833  0.667  0.502- 117 1.45 126 1.45 118 1.45
  55  0.833  0.792  0.502- 127 1.45 118 1.45 119 1.45
  56  0.833  0.917  0.502- 128 1.45 120 1.45 119 1.45
  57  0.958  0.042  0.502- 121 1.45  65 1.45 128 1.45
  58  0.958  0.167  0.502- 122 1.45 121 1.45  66 1.45
  59  0.958  0.292  0.502- 123 1.45 122 1.45  67 1.45
  60  0.958  0.417  0.502-  68 1.45 123 1.45 124 1.45
  61  0.958  0.542  0.502-  69 1.45 124 1.45 125 1.45
  62  0.958  0.667  0.502-  70 1.45 125 1.45 126 1.45
  63  0.958  0.792  0.502-  71 1.45 127 1.45 126 1.45
  64  0.958  0.917  0.502-  72 1.45 128 1.45 127 1.45
  65  0.042  0.083  0.502-   2 1.45   1 1.45  57 1.45
  66  0.042  0.208  0.502-   3 1.45   2 1.45  58 1.45
  67  0.042  0.333  0.502-   3 1.45   4 1.45  59 1.45
  68  0.042  0.458  0.502-   4 1.45   5 1.45  60 1.45
  69  0.042  0.583  0.502-  61 1.45   6 1.45   5 1.45
  70  0.042  0.708  0.502-  62 1.45   6 1.45   7 1.45
  71  0.042  0.833  0.502-  63 1.45   7 1.45   8 1.45
  72  0.042  0.958  0.502-  64 1.45   1 1.45   8 1.45
  73  0.167  0.083  0.502-  10 1.45   9 1.45   1 1.45
  74  0.167  0.208  0.502-  11 1.45  10 1.45   2 1.45
  75  0.167  0.333  0.502-  11 1.45  12 1.45   3 1.45
  76  0.167  0.458  0.502-  12 1.45  13 1.45   4 1.45
  77  0.167  0.583  0.502-  13 1.45   5 1.45  14 1.45
  78  0.167  0.708  0.502-   6 1.45  15 1.45  14 1.45
  79  0.167  0.833  0.502-   7 1.45  15 1.45  16 1.45
  80  0.167  0.958  0.502-   9 1.45  16 1.45   8 1.45
  81  0.292  0.083  0.502-  18 1.45   9 1.45  17 1.45
  82  0.292  0.208  0.502-  19 1.45  10 1.45  18 1.45
  83  0.292  0.333  0.502-  11 1.45  20 1.45  19 1.45
  84  0.292  0.458  0.502-  12 1.45  20 1.45  21 1.45
  85  0.292  0.583  0.502-  21 1.45  13 1.45  22 1.45
  86  0.292  0.708  0.502-  22 1.45  23 1.45  14 1.45
  87  0.292  0.833  0.502-  15 1.45  24 1.45  23 1.45
  88  0.292  0.958  0.502-  17 1.45  16 1.45  24 1.45
  89  0.417  0.083  0.502-  17 1.45  26 1.45  25 1.45
  90  0.417  0.208  0.502-  18 1.45  27 1.45  26 1.45
  91  0.417  0.333  0.502-  19 1.45  27 1.45  28 1.45
  92  0.417  0.458  0.502-  20 1.45  28 1.45  29 1.45
  93  0.417  0.583  0.502-  21 1.45  29 1.45  30 1.45
  94  0.417  0.708  0.502-  31 1.45  30 1.45  22 1.45
  95  0.417  0.833  0.502-  32 1.45  31 1.45  23 1.45
  96  0.417  0.958  0.502-  25 1.45  32 1.45  24 1.45
  97  0.542  0.083  0.502-  34 1.45  25 1.45  33 1.45
  98  0.542  0.208  0.502-  26 1.45  35 1.45  34 1.45
  99  0.542  0.333  0.502-  27 1.45  35 1.45  36 1.45
 100  0.542  0.458  0.502-  28 1.45  36 1.45  37 1.45
 101  0.542  0.583  0.502-  38 1.45  29 1.45  37 1.45
 102  0.542  0.708  0.502-  39 1.45  38 1.45  30 1.45
 103  0.542  0.833  0.502-  40 1.45  39 1.45  31 1.45
 104  0.542  0.958  0.502-  33 1.45  40 1.45  32 1.45
 105  0.667  0.083  0.502-  33 1.45  42 1.45  41 1.45
 106  0.667  0.208  0.502-  42 1.45  43 1.45  34 1.45
 107  0.667  0.333  0.502-  43 1.45  44 1.45  35 1.45
 108  0.667  0.458  0.502-  45 1.45  44 1.45  36 1.45
 109  0.667  0.583  0.502-  46 1.45  45 1.45  37 1.45
 110  0.667  0.708  0.502-  47 1.45  46 1.45  38 1.45
 111  0.667  0.833  0.502-  48 1.45  47 1.45  39 1.45
 112  0.667  0.958  0.502-  40 1.45  41 1.45  48 1.45
 113  0.792  0.083  0.502-  41 1.45  49 1.45  50 1.45
 114  0.792  0.208  0.502-  42 1.45  50 1.45  51 1.45
 115  0.792  0.333  0.502-  51 1.45  43 1.45  52 1.45
 116  0.792  0.458  0.502-  53 1.45  52 1.45  44 1.45
 117  0.792  0.583  0.502-  54 1.45  53 1.45  45 1.45
 118  0.792  0.708  0.502-  55 1.45  54 1.45  46 1.45
 119  0.792  0.833  0.502-  47 1.45  56 1.45  55 1.45
 120  0.792  0.958  0.502-  48 1.45  56 1.45  49 1.45
 121  0.917  0.083  0.502-  49 1.45  57 1.45  58 1.45
 122  0.917  0.208  0.502-  50 1.45  58 1.45  59 1.45
 123  0.917  0.333  0.502-  59 1.45  51 1.45  60 1.45
 124  0.917  0.458  0.502-  52 1.45  61 1.45  60 1.45
 125  0.917  0.583  0.502-  53 1.45  62 1.45  61 1.45
 126  0.917  0.708  0.502-  54 1.45  62 1.45  63 1.45
 127  0.917  0.833  0.502-  55 1.45  63 1.45  64 1.45
 128  0.917  0.958  0.502-  56 1.45  64 1.45  57 1.45
 129  0.283  0.225  0.664- 132 1.34 134 1.34 133 1.35 130 1.51
 130  0.270  0.204  0.623- 136 1.33 135 1.33 129 1.51
 131  0.237  0.388  0.611- 137 1.16 138 1.16
 132  0.351  0.290  0.669- 129 1.34
 133  0.284  0.170  0.686- 129 1.35
 134  0.226  0.237  0.677- 129 1.34
 135  0.327  0.197  0.607- 130 1.33
 136  0.202  0.144  0.615- 130 1.33
 137  0.303  0.429  0.610- 131 1.16
 138  0.171  0.346  0.613- 131 1.16
 

IMPORTANT INFORMATION: All symmetrisations will be switched off!
NOSYMM: (Re-)initialisation of all symmetry stuff for point group C_1.

 
 
 KPOINTS: K-Point Grid                            

Automatic generation of k-mesh.
Space group operators:
 irot       det(A)        alpha          n_x          n_y          n_z        tau_x        tau_y        tau_z
    1     1.000000     0.000001     1.000000     0.000000     0.000000     0.000000     0.000000     0.000000
 
 Subroutine IBZKPT returns following result:
 ===========================================
 
 Found      6 irreducible k-points:
 
 Following reciprocal coordinates:
            Coordinates               Weight
  0.250000  0.250000  0.000000     16.000000
  0.500000 -0.250000  0.000000     16.000000
  0.250000  0.500000  0.000000     16.000000
 -0.250000  0.250000  0.000000     16.000000
 -0.000000  0.250000  0.000000     16.000000
  0.250000 -0.000000  0.000000     16.000000
 
 Following cartesian coordinates:
            Coordinates               Weight
  0.024879  0.000000  0.000000     16.000000
  0.012439 -0.021546  0.000000     16.000000
  0.037318  0.007182  0.000000     16.000000
  0.000000  0.014364  0.000000     16.000000
  0.012439  0.007182  0.000000     16.000000
  0.012439 -0.007182  0.000000     16.000000
 


--------------------------------------------------------------------------------------------------------




 Dimension of arrays:
   k-points           NKPTS =      6   k-points in BZ     NKDIM =      6   number of bands    NBANDS=    432
   number of dos      NEDOS =   1200   number of ions     NIONS =    138
   non local maximal  LDIM  =      4   non local SUM 2l+1 LMDIM =      8
   total plane-waves  NPLWV = ******
   max r-space proj   IRMAX =   6620   max aug-charges    IRDMAX=   9003
   dimension x,y,z NGX =   160 NGY =  160 NGZ =  270
   dimension x,y,z NGXF=   320 NGYF=  320 NGZF=  540
   support grid    NGXF=   320 NGYF=  320 NGZF=  540
   ions per type =              64  64   3   5   2
   NGX,Y,Z   is equivalent  to a cutoff of  13.24, 13.24, 12.82 a.u.
   NGXF,Y,Z  is equivalent  to a cutoff of  26.47, 26.47, 25.65 a.u.

 SYSTEM =  hBN                                     
 POSCAR =  B N C F O                               

 Startparameter for this run:
   NWRITE =      2    write-flag & timer
   PREC   = accura    normal or accurate (medium, high low for compatibility)
   ISTART =      1    job   : 0-new  1-cont  2-samecut
   ICHARG =      0    charge: 1-file 2-atom 10-const
   ISPIN  =      2    spin polarized calculation?
   LNONCOLLINEAR =      F non collinear calculations
   LSORBIT =      F    spin-orbit coupling
   INIWAV =      1    electr: 0-lowe 1-rand  2-diag
   LASPH  =      T    aspherical Exc in radial PAW
   METAGGA=      F    non-selfconsistent MetaGGA calc.

 Electronic Relaxation 1
   ENCUT  =  550.0 eV  40.42 Ry    6.36 a.u.  38.43 38.43 66.93*2*pi/ulx,y,z
   ENINI  =  550.0     initial cutoff
   ENAUG  =  644.9 eV  augmentation charge cutoff
   NELM   =    100;   NELMIN=  2; NELMDL=  0     # of ELM steps 
   EDIFF  = 0.1E-04   stopping-criterion for ELM
   LREAL  =      T    real-space projection
   NLSPLINE    = F    spline interpolate recip. space projectors
   LCOMPAT=      F    compatible to vasp.4.4
   GGA_COMPAT  = T    GGA compatible to vasp.4.4-vasp.4.6
   LMAXPAW     = -100 max onsite density
   LMAXMIX     =    2 max onsite mixed and CHGCAR
   VOSKOWN=      0    Vosko Wilk Nusair interpolation
   ROPT   =   -0.00025  -0.00025  -0.00025  -0.00025
   ROPT   =   -0.00025
 Ionic relaxation
   EDIFFG = -.2E-01   stopping-criterion for IOM
   NSW    =      0    number of steps for IOM
   NBLOCK =      1;   KBLOCK =      1    inner block; outer block 
   IBRION =     -1    ionic relax: 0-MD 1-quasi-New 2-CG
   NFREE  =      1    steps in history (QN), initial steepest desc. (CG)
   ISIF   =      2    stress and relaxation
   IWAVPR =     10    prediction:  0-non 1-charg 2-wave 3-comb
   ISYM   =      0    0-nonsym 1-usesym 2-fastsym
   LCORR  =      T    Harris-Foulkes like correction to forces

   POTIM  = 0.5000    time-step for ionic-motion
   TEIN   =    0.0    initial temperature
   TEBEG  =    0.0;   TEEND  =   0.0 temperature during run
   SMASS  =  -3.00    Nose mass-parameter (am)
   estimated Nose-frequenzy (Omega)   =  0.10E-29 period in steps =****** mass=  -0.923E-26a.u.
   SCALEE = 1.0000    scale energy and forces
   NPACO  =    256;   APACO  = 16.0  distance and # of slots for P.C.
   PSTRESS=    0.0 pullay stress

  Mass of Ions in am
   POMASS =  10.81 14.00 12.01 19.00 16.00
  Ionic Valenz
   ZVAL   =   3.00  5.00  4.00  7.00  6.00
  Atomic Wigner-Seitz radii
   RWIGS  =  -1.00 -1.00 -1.00 -1.00 -1.00
  virtual crystal weights 
   VCA    =   1.00  1.00  1.00  1.00  1.00
   NELECT =     568.5000    total number of electrons
   NUPDOWN=      -1.0000    fix difference up-down

 DOS related values:
   EMIN   = -10.00;   EMAX   =  5.00  energy-range for DOS
   EFERMI =   0.00
   ISMEAR =     0;   SIGMA  =   0.05  broadening in eV -4-tet -1-fermi 0-gaus

 Electronic relaxation 2 (details)
   IALGO  =     68    algorithm
   LDIAG  =      T    sub-space diagonalisation (order eigenvalues)
   LSUBROT=      F    optimize rotation matrix (better conditioning)
   TURBO    =      0    0=normal 1=particle mesh
   IRESTART =      0    0=no restart 2=restart with 2 vectors
   NREBOOT  =      0    no. of reboots
   NMIN     =      0    reboot dimension
   EREF     =   0.00    reference energy to select bands
   IMIX   =      4    mixing-type and parameters
     AMIX     =   0.40;   BMIX     =  1.00
     AMIX_MAG =   1.60;   BMIX_MAG =  1.00
     AMIN     =   0.10
     WC   =   100.;   INIMIX=   1;  MIXPRE=   1;  MAXMIX= -45

 Intra band minimization:
   WEIMIN = 0.0000     energy-eigenvalue tresh-hold
   EBREAK =  0.58E-08  absolut break condition
   DEPER  =   0.30     relativ break condition  

   TIME   =   0.40     timestep for ELM

  volume/ion in A,a.u.               =      88.72       598.69
  Fermi-wavevector in a.u.,A,eV,Ry     =   0.588425  1.111962  4.710933  0.346244
  Thomas-Fermi vector in A             =   1.635684
 
 Write flags
   LWAVE        =      T    write WAVECAR
   LDOWNSAMPLE  =      F    k-point downsampling of WAVECAR
   LCHARG       =      T    write CHGCAR
   LVTOT        =      F    write LOCPOT, total local potential
   LVHAR        =      T    write LOCPOT, Hartree potential only
   LELF         =      F    write electronic localiz. function (ELF)
   LORBIT       =     11    0 simple, 1 ext, 2 COOP (PROOUT), +10 PAW based schemes


 Dipole corrections
   LMONO  =      F    monopole corrections only (constant potential shift)
   LDIPOL =      F    correct potential (dipole corrections)
   IDIPOL =      0    1-x, 2-y, 3-z, 4-all directions 
   EPSILON=  1.0000000 bulk dielectric constant

 Exchange correlation treatment:
   GGA     =    --    GGA type
   LEXCH   =     8    internal setting for exchange type
   VOSKOWN=      0    Vosko Wilk Nusair interpolation
   LHFCALC =     F    Hartree Fock is set to
   LHFONE  =     F    Hartree Fock one center treatment
   AEXX    =    0.0000 exact exchange contribution

 Linear response parameters
   LEPSILON=     F    determine dielectric tensor
   LRPA    =     F    only Hartree local field effects (RPA)
   LNABLA  =     F    use nabla operator in PAW spheres
   LVEL    =     F    velocity operator in full k-point grid
   LINTERFAST=   F  fast interpolation
   KINTER  =     0    interpolate to denser k-point grid
   CSHIFT  =0.1000    complex shift for real part using Kramers Kronig
   OMEGAMAX=  -1.0    maximum frequency
   DEG_THRESHOLD= 0.2000000E-02 threshold for treating states as degnerate
   RTIME   =   -0.100 relaxation time in fs
  (WPLASMAI=    0.000 imaginary part of plasma frequency in eV, 0.658/RTIME)
   DFIELD  = 0.0000000 0.0000000 0.0000000 field for delta impulse in time
 
 Orbital magnetization related:
   ORBITALMAG=     F  switch on orbital magnetization
   LCHIMAG   =     F  perturbation theory with respect to B field
   DQ        =  0.001000  dq finite difference perturbation B field
   LLRAUG    =     F  two centre corrections for induced B field

 Solvation model:
   LSOL    =     T         switch on solvation model
   EB_K    = 78.400000     relative permittivity of the bulk solvent
   SIGMA_K =  0.600000     width of the dielectric cavity
   NC_K    =  0.002500     cutoff charge density
   TAU     =  0.000000     cavity surface tension
   LAMBDA_D_K    =  3.040000     Debye length in Angstroms
   LRHOB     =     F     write boundcharge  density
   LRHOION     =     F     write ioniccharge density



--------------------------------------------------------------------------------------------------------


 Static calculation
 charge density and potential will be updated during run
 spin polarized calculation
 RMM-DIIS sequential band-by-band and
  variant of blocked Davidson during initial phase
 perform sub-space diagonalisation
    before iterative eigenvector-optimisation
 modified Broyden-mixing scheme, WC =      100.0
 initial mixing is a Kerker type mixing with AMIX =  0.4000 and BMIX =      1.0000
 Hartree-type preconditioning will be used
 using additional bands          147
 real space projection scheme for non local part
 use partial core corrections
 calculate Harris-corrections to forces 
   (improved forces if not selfconsistent)
 use gradient corrections 
 use of overlap-Matrix (Vanderbilt PP)
 Gauss-broadening in eV      SIGMA  =   0.05


--------------------------------------------------------------------------------------------------------


  energy-cutoff  :      550.00
  volume of cell :    12242.83
      direct lattice vectors                 reciprocal lattice vectors
    10.048700000-17.405000000  0.000000000     0.049757680 -0.028727377  0.000000000
    10.048700000 17.405000000  0.000000000     0.049757680  0.028727377  0.000000000
     0.000000000  0.000000000 35.000000000     0.000000000  0.000000000  0.028571429

  length of vectors
    20.097522153 20.097522153 35.000000000     0.057455104  0.057455104  0.028571429


 
 old parameters found on file WAVECAR:
  energy-cutoff  :      550.00
  volume of cell :    12242.83
      direct lattice vectors                 reciprocal lattice vectors
    10.048700000-17.405000000  0.000000000     0.049757680 -0.028727377  0.000000000
    10.048700000 17.405000000  0.000000000     0.049757680  0.028727377  0.000000000
     0.000000000  0.000000000 35.000000000     0.000000000  0.000000000  0.028571429

  length of vectors

 
 k-points in units of 2pi/SCALE and weight: K-Point Grid                            
   0.02487884  0.00000000  0.00000000       0.167
   0.01243942 -0.02154553  0.00000000       0.167
   0.03731826  0.00718184  0.00000000       0.167
   0.00000000  0.01436369  0.00000000       0.167
   0.01243942  0.00718184  0.00000000       0.167
   0.01243942 -0.00718184  0.00000000       0.167
 
 k-points in reciprocal lattice and weights: K-Point Grid                            
   0.25000000  0.25000000  0.00000000       0.167
   0.50000000 -0.25000000  0.00000000       0.167
   0.25000000  0.50000000  0.00000000       0.167
  -0.25000000  0.25000000  0.00000000       0.167
  -0.00000000  0.25000000  0.00000000       0.167
   0.25000000 -0.00000000  0.00000000       0.167
 
 position of ions in fractional coordinates (direct lattice) 
   0.08328930  0.04168090  0.50169562
   0.08328098  0.16667691  0.50170722
   0.08328012  0.29167818  0.50168480
   0.08329755  0.41668458  0.50164738
   0.08330793  0.54168505  0.50163895
   0.08330821  0.66668511  0.50163901
   0.08330681  0.79168607  0.50164047
   0.08330248  0.91668583  0.50166032
   0.20829696  0.04167901  0.50171323
   0.20828201  0.16667228  0.50172132
   0.20828776  0.29167006  0.50167736
   0.20829414  0.41670048  0.50157838
   0.20830847  0.54169431  0.50163424
   0.20830819  0.66668774  0.50164244
   0.20830839  0.79168755  0.50164177
   0.20830411  0.91668718  0.50166240
   0.33330569  0.04168428  0.50169873
   0.33330660  0.16667795  0.50174133
   0.33331489  0.29169489  0.50175310
   0.33332767  0.41670426  0.50166953
   0.33331508  0.54170880  0.50166162
   0.33330922  0.66669287  0.50165319
   0.33330884  0.79168877  0.50164229
   0.33330598  0.91668779  0.50164734
   0.45830461  0.04168578  0.50165193
   0.45830213  0.16668176  0.50169861
   0.45830381  0.29168638  0.50172326
   0.45830653  0.41669016  0.50170368
   0.45830705  0.54169540  0.50167609
   0.45830559  0.66669085  0.50166156
   0.45830702  0.79168770  0.50164460
   0.45830836  0.91668658  0.50163735
   0.58330680  0.04168343  0.50163536
   0.58330237  0.16668391  0.50164509
   0.58329962  0.29168386  0.50166294
   0.58329936  0.41668362  0.50166371
   0.58330075  0.54168452  0.50165317
   0.58330385  0.66668457  0.50164846
   0.58330654  0.79168472  0.50164246
   0.58330786  0.91668479  0.50163664
   0.70830694  0.04168385  0.50163726
   0.70830450  0.16668374  0.50163809
   0.70830319  0.29168329  0.50163880
   0.70830284  0.41668202  0.50163915
   0.70830337  0.54168143  0.50163707
   0.70830507  0.66668114  0.50163710
   0.70830603  0.79168186  0.50163794
   0.70830777  0.91668265  0.50163670
   0.83330352  0.04168337  0.50164524
   0.83330184  0.16668391  0.50165073
   0.83330248  0.29168405  0.50164716
   0.83330577  0.41668384  0.50163931
   0.83330679  0.54168274  0.50163630
   0.83330694  0.66668198  0.50163592
   0.83330722  0.79168174  0.50163621
   0.83330575  0.91668249  0.50163898
   0.95829682  0.04168292  0.50166387
   0.95829465  0.16668456  0.50167752
   0.95829697  0.29168276  0.50167101
   0.95830443  0.41668478  0.50164879
   0.95830827  0.54168452  0.50163894
   0.95830881  0.66668387  0.50163740
   0.95830785  0.79168414  0.50163798
   0.95830326  0.91668375  0.50164751
   0.04163001  0.08335010  0.50168274
   0.04163213  0.20835480  0.50169208
   0.04163470  0.33335300  0.50166911
   0.04163704  0.45835292  0.50163562
   0.04164028  0.58335277  0.50162831
   0.04164058  0.70835092  0.50162801
   0.04163882  0.83335003  0.50163193
   0.04163424  0.95834958  0.50165504
   0.16663206  0.08335188  0.50171744
   0.16663012  0.20834984  0.50172805
   0.16664341  0.33336180  0.50165916
   0.16663702  0.45835519  0.50161058
   0.16664094  0.58335464  0.50162963
   0.16664137  0.70835424  0.50163116
   0.16664001  0.83335249  0.50163399
   0.16663566  0.95835133  0.50166869
   0.29163359  0.08335474  0.50172960
   0.29162731  0.20835098  0.50177554
   0.29162915  0.33335779  0.50175347
   0.29163127  0.45834666  0.50164846
   0.29164039  0.58335573  0.50164503
   0.29164177  0.70835641  0.50163632
   0.29164136  0.83335433  0.50163088
   0.29163824  0.95835390  0.50165667
   0.41663619  0.08335120  0.50167401
   0.41662889  0.20835003  0.50173076
   0.41663031  0.33335087  0.50173946
   0.41663636  0.45835609  0.50168205
   0.41663666  0.58335547  0.50166459
   0.41664099  0.70835681  0.50164466
   0.41664220  0.83335511  0.50163004
   0.41664084  0.95835253  0.50163113
   0.54163897  0.08335019  0.50162961
   0.54163420  0.20834967  0.50165621
   0.54163379  0.33334987  0.50167250
   0.54163513  0.45835168  0.50166130
   0.54163796  0.58335381  0.50164757
   0.54163975  0.70835344  0.50164006
   0.54164181  0.83335331  0.50163065
   0.54164223  0.95835162  0.50162429
   0.66663909  0.08334966  0.50162504
   0.66663675  0.20834917  0.50162585
   0.66663624  0.33334890  0.50163259
   0.66663720  0.45834876  0.50163098
   0.66663889  0.58334961  0.50162785
   0.66664006  0.70834999  0.50162913
   0.66664066  0.83334990  0.50162775
   0.66664096  0.95835000  0.50162543
   0.79163645  0.08334916  0.50163253
   0.79163513  0.20834972  0.50163502
   0.79163652  0.33334994  0.50162963
   0.79163837  0.45834941  0.50162551
   0.79163966  0.58334887  0.50162512
   0.79163997  0.70834820  0.50162524
   0.79163941  0.83334813  0.50162645
   0.79163802  0.95834844  0.50162769
   0.91663348  0.08335061  0.50164874
   0.91663158  0.20835109  0.50165565
   0.91663428  0.33335122  0.50164626
   0.91663778  0.45835137  0.50163141
   0.91664035  0.58335020  0.50162719
   0.91664024  0.70834913  0.50162643
   0.91663849  0.83334795  0.50162724
   0.91663512  0.95834811  0.50163533
   0.28289510  0.22543220  0.66436169
   0.27020087  0.20360137  0.62270466
   0.23707876  0.38768104  0.61144191
   0.35050053  0.29023451  0.66899611
   0.28387854  0.17035299  0.68621956
   0.22642014  0.23654406  0.67738103
   0.32668004  0.19745992  0.60665291
   0.20184698  0.14361574  0.61489499
   0.30311601  0.42917217  0.60962889
   0.17106462  0.34591816  0.61305952
 
 position of ions in cartesian coordinates  (Angst):
   1.25578801 -0.72419424 17.55934687
   2.51175188  1.45150625 17.55975267
   3.76784348  3.62716809 17.55896800
   5.02417038  5.80260126 17.55765830
   6.28036701  7.97805379 17.55736330
   7.53645788 10.15367503 17.55736522
   8.79254096 12.32934105 17.55741640
  10.04858253 14.50503707 17.55811125
   2.51193352 -2.89998533 17.55996304
   3.76780315 -0.72421746 17.56024623
   5.02392619  1.45126892 17.55870754
   6.28038352  3.62731235 17.55524334
   7.53655294  5.80258061 17.55719857
   8.79257159  7.97809593 17.55748540
  10.04865925 10.15371419 17.55746202
  11.30469997 12.32940736 17.55818406
   3.76816175 -5.07567062 17.55945547
   5.02419478 -2.90017173 17.56094662
   6.28053572 -0.72439609 17.56135845
   7.53684585  1.45116942 17.55843372
   8.79285238  3.62709270 17.55815671
  10.04872096  5.80254234 17.55786178
  11.30476355  7.97810270 17.55748028
  12.56081237 10.15376038 17.55765678
   5.02425339 -7.25125064 17.55781765
   6.28027570 -5.07565256 17.55945143
   7.53642639 -2.89997644 17.56031411
   8.79257928 -0.72433285 17.55962890
  10.04872457  1.45137419 17.55866306
  11.30475180  3.62694547 17.55815447
  12.56082201  5.80249072 17.55756107
  13.81691168  7.97807295 17.55730729
   6.28033933 -9.42695460 17.55723749
   7.53638706 -7.25124432 17.55757815
   8.79244646 -5.07557226 17.55820291
  10.04852895 -2.89994687 17.55822991
  11.30463944 -0.72433058 17.55786088
  12.56075867  1.45124153 17.55769595
  13.81687471  3.62682212 17.55748613
  15.07297617  5.80242547 17.55728226
   7.53643251-11.60257485 17.55730411
   8.79249431 -9.42690921 17.55733299
  10.04856412 -7.25126944 17.55735786
  11.30463542 -5.07566042 17.55737020
  12.56072223 -2.90005486 17.55729749
  13.81682397 -0.72446447 17.55729852
  15.07292829  1.45115635 17.55732796
  16.32904121  3.62676484 17.55728438
   8.79248082-13.77814872 17.55758332
  10.04855680-11.60248511 17.55777572
  11.30465217 -9.42686885 17.55765057
  12.56077056 -7.25130472 17.55737590
  13.81685726 -5.07571653 17.55727060
  15.07293874 -2.90010747 17.55725707
  16.32902659 -0.72449160 17.55726731
  17.58510684  1.45117229 17.55736443
  10.04849636-15.95366494 17.55823545
  11.30457855-13.77797361 17.55871336
  12.56067139-11.60242031 17.55848548
  13.81685414 -9.42688999 17.55770780
  15.07297756 -7.25133633 17.55736290
  16.32906402 -5.07573206 17.55730915
  17.58514454 -2.90008560 17.55732934
  18.84118195 -0.72438769 17.55766293
   1.25588760  0.72613818 17.55889586
   2.51204370  2.90180797 17.55922285
   3.76813888  5.07735713 17.55841890
   5.02424911  7.25293976 17.55724676
   6.28036765  9.42850588 17.55699082
   7.53643951 11.60409346 17.55698049
   8.79250046 13.77973377 17.55711759
  10.04853745 15.95543046 17.55792654
   2.51201363 -1.44949141 17.56011037
   3.76806112  0.72613182 17.56048174
   5.02440230  2.90173353 17.55807061
   6.28035930  5.07735476 17.55637024
   7.53648065  7.25290196 17.55703713
   8.79256832  9.42851245 17.55709071
  10.04862459 11.60413078 17.55718962
  11.30465683 13.77981122 17.55840426
   3.76814525 -3.62509338 17.56053601
   5.02413181 -1.44942452 17.56214401
   6.28030620  0.72628692 17.56137141
   7.53630321  2.90168123 17.55769624
   8.79257347  5.07730559 17.55757588
  10.04868164  7.25291835 17.55727118
  11.30474412  9.42851419 17.55708064
  12.56079607 11.60418607 17.55798360
   5.02422332 -5.80082518 17.55859030
   6.28022564 -3.62509364 17.56057646
   7.53633594 -1.44947868 17.56088100
   8.79253663  0.72613199 17.55887169
  10.04862093  2.90174097 17.55826074
  11.30476538  5.07731392 17.55756303
  12.56084793  7.25288828 17.55705142
  13.81689589  9.42849193 17.55708941
   6.28032861 -7.97651626 17.55703645
   7.53636292 -5.80081733 17.55796730
   8.79244830 -3.62518175 17.55853756
  10.04856747 -1.44954855 17.55814565
  11.30470482  0.72606449 17.55766508
  12.56080657  2.90165190 17.55740197
  13.81691351  5.07723871 17.55707277
  15.07298822  7.25282682 17.55685030
   7.53641194-10.15215252 17.55687628
   8.79247097 -7.97649525 17.55690480
  10.04855073 -5.80086618 17.55714064
  11.30464644 -3.62526036 17.55708422
  12.56075950 -1.44964985 17.55697474
  13.81686252  0.72596128 17.55701957
  15.07295508  2.90157430 17.55697136
  16.32904663  5.07719574 17.55688999
   8.79246797-12.32774032 17.55713864
  10.04854779-10.15208255 17.55722586
  11.30465137 -7.97647793 17.55703706
  12.56075220 -5.80089420 17.55689281
  13.81684724 -3.62530129 17.55687907
  15.07293109 -1.44969335 17.55688331
  16.32901226  0.72594028 17.55692580
  17.58508891  2.90159485 17.55696929
  10.04854015-14.50328826 17.55770598
  11.30461331-12.32762190 17.55794786
  12.56072926-10.15204155 17.55761909
  13.81685355 -7.97647498 17.55709933
  15.07295508 -5.80091497 17.55695167
  16.32903069 -3.62530681 17.55692491
  17.58508876 -1.44967172 17.55695357
  18.84114393  0.72601461 17.55723667
   5.10802859 -1.00014169 23.25265904
   4.76109665 -1.15916431 21.79466301
   6.27802379  2.62123281 21.40046674
   6.43855421 -1.04892994 23.41486375
   4.56443644 -1.97591221 24.01768461
   4.65218839  0.17620687 23.70833609
   5.26692521 -2.24907632 21.23285199
   3.47145118 -1.01351474 21.52132453
   7.35854422  2.19400749 21.33701111
   5.19500487  3.04332592 21.45708304
 


--------------------------------------------------------------------------------------------------------


 k-point  1 :   0.2500 0.2500 0.0000  plane waves:  358590
 k-point  2 :   0.5000-0.2500 0.0000  plane waves:  358584
 k-point  3 :   0.2500 0.5000 0.0000  plane waves:  358584
 k-point  4 :  -0.2500 0.2500 0.0000  plane waves:  358603
 k-point  5 :  -0.0000 0.2500 0.0000  plane waves:  358599
 k-point  6 :   0.2500-0.0000 0.0000  plane waves:  358599

 maximum and minimum number of plane-waves per node :    358603   358584

 maximum number of plane-waves:    358603
 maximum index in each direction: 
   IXMAX=   38   IYMAX=   38   IZMAX=   66
   IXMIN=  -38   IYMIN=  -38   IZMIN=  -66


 serial   3D FFT for wavefunctions
 parallel 3D FFT for charge:
    minimum data exchange during FFTs selected (reduces bandwidth)


 total amount of memory used by VASP MPI-rank0  1926190. kBytes
=======================================================================

   base      :      30000. kBytes
   nonlr-proj:      63773. kBytes
   fftplans  :      68224. kBytes
   grid      :    1141764. kBytes
   one-center:        847. kBytes
   wavefun   :     621582. kBytes
 
     INWAV:  cpu time  142.8304: real time  144.1390
 Broyden mixing: mesh for mixing (old mesh)
   NGX = 77   NGY = 77   NGZ =133
  (NGX  =320   NGY  =320   NGZ  =540)
  gives a total of 788557 points

 charge density for first step will be calculated from the start-wavefunctions


--------------------------------------------------------------------------------------------------------


 Maximum index for non-local projection operator         6394
 Maximum index for augmentation-charges          435 (set IRDMAX)


--------------------------------------------------------------------------------------------------------


 initial charge from wavefunction
 First call to EWALD:  gamma=   0.077
 Maximum number of real-space cells 3x 3x 2
 Maximum number of reciprocal cells 2x 2x 4

    FEWALD:  cpu time    0.0190: real time    0.0180


--------------------------------------- Iteration      1(   1)  ---------------------------------------


    POTLOK:  cpu time   64.4051: real time   64.3786
    SETDIJ:  cpu time    0.6168: real time    0.4189
     EDDAV:  cpu time  291.4371: real time  216.8874
       DOS:  cpu time    0.0942: real time    0.0482
    CHARGE:  cpu time   39.4291: real time   37.0343
    MIXING:  cpu time    0.2037: real time    0.2043
    --------------------------------------------
      LOOP:  cpu time  396.1862: real time  318.9717

 eigenvalue-minimisations  : 11520
 total energy-change (2. order) :-0.1312926E+04  (-0.6780825E-02)
 number of electron     568.4999967 magnetization       0.9996273
 augmentation part       22.4073895 magnetization       0.1190955

 Broyden mixing:
  rms(total) = 0.16101E-01    rms(broyden)= 0.16075E-01
  rms(prec ) = 0.16222E-01
  weight for this iteration     100.00

 Free energy of the ion-electron system (eV)
  ---------------------------------------------------
  alpha Z        PSCENC =       143.65704873
  Ewald energy   TEWEN  =    182068.82161416
  -Hartree energ DENC   =   -202719.28667734
  -exchange      EXHF   =         0.00000000
  -V(xc)+E(xc)   XCENC  =      2551.55841179
  PAW double counting   =     67649.74732418   -67915.16723928
  entropy T*S    EENTRO =        -0.02339804
  eigenvalues    EBANDS =     -8241.45481815
  atomic energy  EATOM  =     26089.46230379
  Solvation  Ediel_sol  =      -940.24068731
  ---------------------------------------------------
  free energy    TOTEN  =     -1312.92611747 eV

  energy without entropy =    -1312.90271943  energy(sigma->0) =    -1312.91441845


--------------------------------------------------------------------------------------------------------




--------------------------------------- Iteration      1(   2)  ---------------------------------------


    POTLOK:  cpu time   47.7941: real time   47.8984
    SETDIJ:  cpu time    0.9011: real time    0.5596
    EDDIAG:  cpu time   56.4512: real time   46.6035
  RMM-DIIS:  cpu time  322.7538: real time  266.1133
    ORTHCH:  cpu time    3.3827: real time    1.7047
       DOS:  cpu time    0.1281: real time    0.0642
    CHARGE:  cpu time   39.3918: real time   37.0835
    MIXING:  cpu time    0.1281: real time    0.1284
    --------------------------------------------
      LOOP:  cpu time  470.9309: real time  400.1556

 eigenvalue-minimisations  : 10886
 total energy-change (2. order) : 0.1418870E-03  (-0.9189406E-04)
 number of electron     568.4999967 magnetization       0.9996178
 augmentation part       22.4050424 magnetization       0.1190652

 Broyden mixing:
  rms(total) = 0.97363E-02    rms(broyden)= 0.97326E-02
  rms(prec ) = 0.98065E-02
  weight for this iteration     100.00

 eigenvalues of (default mixing * dielectric matrix)
  average eigenvalue GAMMA=   2.1660
  2.1660

 Free energy of the ion-electron system (eV)
  ---------------------------------------------------
  alpha Z        PSCENC =       143.65704873
  Ewald energy   TEWEN  =    182068.82161416
  -Hartree energ DENC   =   -202719.21402120
  -exchange      EXHF   =         0.00000000
  -V(xc)+E(xc)   XCENC  =      2551.60589013
  PAW double counting   =     67683.83476639   -67949.23157292
  entropy T*S    EENTRO =        -0.02339165
  eigenvalues    EBANDS =     -8241.66596720
  atomic energy  EATOM  =     26089.46230379
  Solvation  Ediel_sol  =      -940.17264581
  ---------------------------------------------------
  free energy    TOTEN  =     -1312.92597558 eV

  energy without entropy =    -1312.90258394  energy(sigma->0) =    -1312.91427976


--------------------------------------------------------------------------------------------------------




--------------------------------------- Iteration      1(   3)  ---------------------------------------


    POTLOK:  cpu time   48.8824: real time   48.9893
    SETDIJ:  cpu time    1.1138: real time    0.7202
    EDDIAG:  cpu time   55.7273: real time   46.1950
  RMM-DIIS:  cpu time  322.4221: real time  267.0175
    ORTHCH:  cpu time    3.3591: real time    1.6892
       DOS:  cpu time    0.1224: real time    0.0613
    CHARGE:  cpu time   39.3769: real time   36.9454
    MIXING:  cpu time    0.1207: real time    0.1210
    --------------------------------------------
      LOOP:  cpu time  471.1246: real time  401.7390

 eigenvalue-minimisations  : 10719
 total energy-change (2. order) :-0.3128255E-03  (-0.3950991E-04)
 number of electron     568.4999967 magnetization       0.9996148
 augmentation part       22.4035710 magnetization       0.1190414

 Broyden mixing:
  rms(total) = 0.21973E-02    rms(broyden)= 0.21952E-02
  rms(prec ) = 0.22338E-02
  weight for this iteration     100.00

 eigenvalues of (default mixing * dielectric matrix)
  average eigenvalue GAMMA=   1.6381
  0.9012  2.3749

 Free energy of the ion-electron system (eV)
  ---------------------------------------------------
  alpha Z        PSCENC =       143.65704873
  Ewald energy   TEWEN  =    182068.82161416
  -Hartree energ DENC   =   -202718.74030039
  -exchange      EXHF   =         0.00000000
  -V(xc)+E(xc)   XCENC  =      2551.56888413
  PAW double counting   =     67729.38395787   -67994.74838649
  entropy T*S    EENTRO =        -0.02338664
  eigenvalues    EBANDS =     -8242.23946793
  atomic energy  EATOM  =     26089.46230379
  Solvation  Ediel_sol  =      -940.06855564
  ---------------------------------------------------
  free energy    TOTEN  =     -1312.92628841 eV

  energy without entropy =    -1312.90290177  energy(sigma->0) =    -1312.91459509


--------------------------------------------------------------------------------------------------------




--------------------------------------- Iteration      1(   4)  ---------------------------------------


    POTLOK:  cpu time   45.1731: real time   45.2711
    SETDIJ:  cpu time    0.9098: real time    0.5671
    EDDIAG:  cpu time   55.5824: real time   46.1513
  RMM-DIIS:  cpu time  285.7596: real time  237.7052
    ORTHCH:  cpu time    3.3574: real time    1.6869
       DOS:  cpu time    0.1493: real time    0.0748
    CHARGE:  cpu time   39.2237: real time   36.8641
    MIXING:  cpu time    0.1204: real time    0.1207
    --------------------------------------------
      LOOP:  cpu time  430.2757: real time  368.4412

 eigenvalue-minimisations  :  8742
 total energy-change (2. order) : 0.3383738E-04  (-0.6903984E-05)
 number of electron     568.4999967 magnetization       0.9996100
 augmentation part       22.4041091 magnetization       0.1190667

 Broyden mixing:
  rms(total) = 0.99758E-03    rms(broyden)= 0.99740E-03
  rms(prec ) = 0.10117E-02
  weight for this iteration     100.00

 eigenvalues of (default mixing * dielectric matrix)
  average eigenvalue GAMMA=   1.5709
  2.4746  1.5663  0.6718

 Free energy of the ion-electron system (eV)
  ---------------------------------------------------
  alpha Z        PSCENC =       143.65704873
  Ewald energy   TEWEN  =    182068.82161416
  -Hartree energ DENC   =   -202718.46852099
  -exchange      EXHF   =         0.00000000
  -V(xc)+E(xc)   XCENC  =      2551.54542999
  PAW double counting   =     67732.66930167   -67998.03187186
  entropy T*S    EENTRO =        -0.02339165
  eigenvalues    EBANDS =     -8242.52458256
  atomic energy  EATOM  =     26089.46230379
  Solvation  Ediel_sol  =      -940.03358584
  ---------------------------------------------------
  free energy    TOTEN  =     -1312.92625457 eV

  energy without entropy =    -1312.90286292  energy(sigma->0) =    -1312.91455875


--------------------------------------------------------------------------------------------------------




--------------------------------------- Iteration      1(   5)  ---------------------------------------


    POTLOK:  cpu time   44.9692: real time   45.0725
    SETDIJ:  cpu time    0.6112: real time    0.4137
    EDDIAG:  cpu time   55.6890: real time   46.1804
  RMM-DIIS:  cpu time  281.9453: real time  235.7853
    ORTHCH:  cpu time    3.4373: real time    1.7270
       DOS:  cpu time    0.0440: real time    0.0221
    --------------------------------------------
      LOOP:  cpu time  386.6961: real time  329.2010

 eigenvalue-minimisations  :  8601
 total energy-change (2. order) :-0.8639981E-05  (-0.3514484E-05)
 number of electron     568.4999967 magnetization       0.9996100
 augmentation part       22.4041091 magnetization       0.1190667

 Free energy of the ion-electron system (eV)
  ---------------------------------------------------
  alpha Z        PSCENC =       143.65704873
  Ewald energy   TEWEN  =    182068.82161416
  -Hartree energ DENC   =   -202718.36164445
  -exchange      EXHF   =         0.00000000
  -V(xc)+E(xc)   XCENC  =      2551.54339068
  PAW double counting   =     67733.93313613   -67999.29555647
  entropy T*S    EENTRO =        -0.02339296
  eigenvalues    EBANDS =     -8242.64262650
  atomic energy  EATOM  =     26089.46230379
  Solvation  Ediel_sol  =      -940.02053631
  ---------------------------------------------------
  free energy    TOTEN  =     -1312.92626321 eV

  energy without entropy =    -1312.90287025  energy(sigma->0) =    -1312.91456673


--------------------------------------------------------------------------------------------------------




 average (electrostatic) potential at core
  the test charge radii are     0.7672  0.7089  0.6991  0.7167  0.7215
  (the norm of the test charge is              1.0000)
       1 -39.0331       2 -39.0359       3 -39.0371       4 -39.0334       5 -39.0306
       6 -39.0301       7 -39.0302       8 -39.0308       9 -39.0343      10 -39.0402
      11 -39.0452      12 -39.0420      13 -39.0335      14 -39.0305      15 -39.0302
      16 -39.0307      17 -39.0323      18 -39.0371      19 -39.0424      20 -39.0419
      21 -39.0362      22 -39.0311      23 -39.0302      24 -39.0304      25 -39.0303
      26 -39.0320      27 -39.0341      28 -39.0344      29 -39.0328      30 -39.0307
      31 -39.0301      32 -39.0302      33 -39.0301      34 -39.0302      35 -39.0306
      36 -39.0306      37 -39.0304      38 -39.0300      39 -39.0300      40 -39.0300
      41 -39.0300      42 -39.0301      43 -39.0301      44 -39.0301      45 -39.0300
      46 -39.0300      47 -39.0300      48 -39.0300      49 -39.0300      50 -39.0299
      51 -39.0301      52 -39.0301      53 -39.0302      54 -39.0301      55 -39.0301
      56 -39.0300      57 -39.0307      58 -39.0312      59 -39.0310      60 -39.0303
      61 -39.0301      62 -39.0301      63 -39.0301      64 -39.0303      65 -76.6328
      66 -76.6341      67 -76.6338      68 -76.6320      69 -76.6320      70 -76.6323
      71 -76.6321      72 -76.6322      73 -76.6373      74 -76.6422      75 -76.6456
      76 -76.6375      77 -76.6323      78 -76.6322      79 -76.6322      80 -76.6325
      81 -76.6365      82 -76.6442      83 -76.6477      84 -76.6447      85 -76.6341
      86 -76.6322      87 -76.6322      88 -76.6324      89 -76.6323      90 -76.6356
      91 -76.6368      92 -76.6363      93 -76.6332      94 -76.6317      95 -76.6323
      96 -76.6322      97 -76.6320      98 -76.6321      99 -76.6321     100 -76.6318
     101 -76.6314     102 -76.6318     103 -76.6322     104 -76.6323     105 -76.6324
     106 -76.6324     107 -76.6320     108 -76.6319     109 -76.6318     110 -76.6321
     111 -76.6323     112 -76.6325     113 -76.6321     114 -76.6322     115 -76.6324
     116 -76.6325     117 -76.6325     118 -76.6324     119 -76.6325     120 -76.6322
     121 -76.6317     122 -76.6314     123 -76.6319     124 -76.6322     125 -76.6324
     126 -76.6325     127 -76.6322     128 -76.6319     129 -67.6981     130 -65.7381
     131 -65.9689     132 -92.0722     133 -91.9418     134 -92.0772     135 -92.2813
     136 -92.2797     137 -86.5865     138 -86.5832
 
 
 
 E-fermi :  -6.6927     XC(G=0):  -1.2896     alpha+bet : -1.0964


 spin component 1

 k-point     1 :       0.2500    0.2500    0.0000
  band No.  band energies     occupation 
      1     -35.8102      1.00000
      2     -35.0822      1.00000
      3     -33.7371      1.00000
      4     -33.4109      1.00000
      5     -33.3261      1.00000
      6     -30.8897      1.00000
      7     -29.8905      1.00000
      8     -25.1995      1.00000
      9     -25.1232      1.00000
     10     -25.1207      1.00000
     11     -24.8922      1.00000
     12     -24.8917      1.00000
     13     -24.7409      1.00000
     14     -24.6674      1.00000
     15     -24.6650      1.00000
     16     -24.5182      1.00000
     17     -24.5180      1.00000
     18     -24.4452      1.00000
     19     -24.4447      1.00000
     20     -24.0867      1.00000
     21     -24.0866      1.00000
     22     -24.0178      1.00000
     23     -24.0177      1.00000
     24     -23.8780      1.00000
     25     -23.8129      1.00000
     26     -23.8105      1.00000
     27     -23.6171      1.00000
     28     -23.6166      1.00000
     29     -23.6101      1.00000
     30     -23.6100      1.00000
     31     -23.4253      1.00000
     32     -23.4253      1.00000
     33     -23.3058      1.00000
     34     -23.3057      1.00000
     35     -23.0514      1.00000
     36     -23.0513      1.00000
     37     -22.9025      1.00000
     38     -22.9025      1.00000
     39     -22.8084      1.00000
     40     -22.8081      1.00000
     41     -22.7712      1.00000
     42     -22.7304      1.00000
     43     -22.7280      1.00000
     44     -22.6105      1.00000
     45     -22.6100      1.00000
     46     -22.4788      1.00000
     47     -22.4785      1.00000
     48     -22.4487      1.00000
     49     -22.4486      1.00000
     50     -22.4351      1.00000
     51     -22.4350      1.00000
     52     -22.2978      1.00000
     53     -22.2957      1.00000
     54     -22.2372      1.00000
     55     -22.2372      1.00000
     56     -22.0874      1.00000
     57     -22.0558      1.00000
     58     -22.0557      1.00000
     59     -22.0156      1.00000
     60     -22.0133      1.00000
     61     -22.0106      1.00000
     62     -22.0104      1.00000
     63     -21.9216      1.00000
     64     -21.9212      1.00000
     65     -21.8458      1.00000
     66     -21.8436      1.00000
     67     -21.8276      1.00000
     68     -21.8206      1.00000
     69     -21.6833      1.00000
     70     -21.6813      1.00000
     71     -21.5583      1.00000
     72     -21.1097      1.00000
     73     -18.0562      1.00000
     74     -16.4297      1.00000
     75     -16.2739      1.00000
     76     -16.0770      1.00000
     77     -15.7591      1.00000
     78     -15.6770      1.00000
     79     -15.6768      1.00000
     80     -15.5993      1.00000
     81     -15.5992      1.00000
     82     -15.4866      1.00000
     83     -15.4863      1.00000
     84     -15.4217      1.00000
     85     -15.4192      1.00000
     86     -15.3759      1.00000
     87     -15.3473      1.00000
     88     -15.2703      1.00000
     89     -15.2702      1.00000
     90     -15.1018      1.00000
     91     -15.0995      1.00000
     92     -15.0913      1.00000
     93     -15.0897      1.00000
     94     -14.8687      1.00000
     95     -14.8686      1.00000
     96     -14.8570      1.00000
     97     -14.8560      1.00000
     98     -14.8018      1.00000
     99     -14.7526      1.00000
    100     -14.7524      1.00000
    101     -14.7357      1.00000
    102     -14.6471      1.00000
    103     -14.6470      1.00000
    104     -14.5296      1.00000
    105     -14.5292      1.00000
    106     -14.4614      1.00000
    107     -14.3911      1.00000
    108     -14.3908      1.00000
    109     -14.2628      1.00000
    110     -14.2219      1.00000
    111     -14.2218      1.00000
    112     -14.1722      1.00000
    113     -14.1705      1.00000
    114     -14.0292      1.00000
    115     -13.8548      1.00000
    116     -13.6421      1.00000
    117     -13.6420      1.00000
    118     -13.6153      1.00000
    119     -13.6141      1.00000
    120     -13.4767      1.00000
    121     -13.4766      1.00000
    122     -13.3541      1.00000
    123     -13.3100      1.00000
    124     -13.3096      1.00000
    125     -13.2940      1.00000
    126     -13.0904      1.00000
    127     -13.0758      1.00000
    128     -12.9718      1.00000
    129     -12.9716      1.00000
    130     -12.9239      1.00000
    131     -12.9223      1.00000
    132     -12.8557      1.00000
    133     -12.7865      1.00000
    134     -12.7864      1.00000
    135     -12.5647      1.00000
    136     -12.5441      1.00000
    137     -12.5440      1.00000
    138     -12.5054      1.00000
    139     -12.4551      1.00000
    140     -12.4528      1.00000
    141     -12.4373      1.00000
    142     -12.3293      1.00000
    143     -12.3277      1.00000
    144     -12.2180      1.00000
    145     -12.1283      1.00000
    146     -12.1282      1.00000
    147     -12.1163      1.00000
    148     -12.1160      1.00000
    149     -12.0082      1.00000
    150     -11.9479      1.00000
    151     -11.9431      1.00000
    152     -11.9430      1.00000
    153     -11.8350      1.00000
    154     -11.8349      1.00000
    155     -11.8084      1.00000
    156     -11.7808      1.00000
    157     -11.6786      1.00000
    158     -11.6759      1.00000
    159     -11.6672      1.00000
    160     -11.6670      1.00000
    161     -11.6397      1.00000
    162     -11.6381      1.00000
    163     -11.5415      1.00000
    164     -11.5414      1.00000
    165     -11.4645      1.00000
    166     -11.3756      1.00000
    167     -11.3756      1.00000
    168     -11.3694      1.00000
    169     -11.3687      1.00000
    170     -11.2819      1.00000
    171     -11.1660      1.00000
    172     -11.1179      1.00000
    173     -11.1178      1.00000
    174     -11.1073      1.00000
    175     -11.0674      1.00000
    176     -11.0637      1.00000
    177     -11.0239      1.00000
    178     -11.0217      1.00000
    179     -10.9494      1.00000
    180     -10.9492      1.00000
    181     -10.9196      1.00000
    182     -10.8861      1.00000
    183     -10.8860      1.00000
    184     -10.8688      1.00000
    185     -10.8651      1.00000
    186     -10.8581      1.00000
    187     -10.8578      1.00000
    188     -10.8060      1.00000
    189     -10.8031      1.00000
    190     -10.8030      1.00000
    191     -10.7741      1.00000
    192     -10.7738      1.00000
    193     -10.7666      1.00000
    194     -10.7615      1.00000
    195     -10.7613      1.00000
    196     -10.7607      1.00000
    197     -10.5832      1.00000
    198     -10.5830      1.00000
    199     -10.3870      1.00000
    200     -10.3755      1.00000
    201     -10.3753      1.00000
    202     -10.3229      1.00000
    203     -10.3228      1.00000
    204     -10.2797      1.00000
    205     -10.2790      1.00000
    206     -10.2273      1.00000
    207     -10.2258      1.00000
    208     -10.1852      1.00000
    209     -10.1847      1.00000
    210     -10.1825      1.00000
    211     -10.1812      1.00000
    212     -10.0951      1.00000
    213     -10.0949      1.00000
    214      -9.9947      1.00000
    215      -9.9273      1.00000
    216      -9.9271      1.00000
    217      -9.9059      1.00000
    218      -9.9012      1.00000
    219      -9.8693      1.00000
    220      -9.8559      1.00000
    221      -9.8558      1.00000
    222      -9.6372      1.00000
    223      -9.6330      1.00000
    224      -9.6266      1.00000
    225      -9.6253      1.00000
    226      -9.4489      1.00000
    227      -9.4476      1.00000
    228      -9.3941      1.00000
    229      -9.3937      1.00000
    230      -9.3671      1.00000
    231      -9.3654      1.00000
    232      -9.2798      1.00000
    233      -9.2795      1.00000
    234      -9.2654      1.00000
    235      -9.2653      1.00000
    236      -9.1993      1.00000
    237      -9.1977      1.00000
    238      -8.9922      1.00000
    239      -8.9908      1.00000
    240      -8.9712      1.00000
    241      -8.8446      1.00000
    242      -8.8441      1.00000
    243      -8.6883      1.00000
    244      -8.6879      1.00000
    245      -8.6291      1.00000
    246      -8.6288      1.00000
    247      -8.5573      1.00000
    248      -8.5566      1.00000
    249      -8.4921      1.00000
    250      -8.4917      1.00000
    251      -8.4448      1.00000
    252      -8.3839      1.00000
    253      -8.3810      1.00000
    254      -8.2543      1.00000
    255      -8.2537      1.00000
    256      -8.2383      1.00000
    257      -8.2052      1.00000
    258      -8.2046      1.00000
    259      -8.1035      1.00000
    260      -8.0184      1.00000
    261      -8.0180      1.00000
    262      -7.9715      1.00000
    263      -7.9714      1.00000
    264      -7.9409      1.00000
    265      -7.9409      1.00000
    266      -7.7346      1.00000
    267      -7.7321      1.00000
    268      -7.6394      1.00000
    269      -7.6394      1.00000
    270      -7.4080      1.00000
    271      -7.3622      1.00000
    272      -7.3622      1.00000
    273      -7.3156      1.00000
    274      -7.3131      1.00000
    275      -7.3109      1.00000
    276      -7.3106      1.00000
    277      -7.1603      1.00000
    278      -7.1598      1.00000
    279      -7.0501      1.00000
    280      -7.0474      1.00000
    281      -7.0158      1.00000
    282      -7.0143      1.00000
    283      -6.8131      0.99967
    284      -6.7918      0.99748
    285      -6.7895      0.99690
    286      -6.5853      0.00119
    287      -1.1587      0.00000
    288      -1.0728      0.00000
    289      -1.0342      0.00000
    290      -1.0317      0.00000
    291      -1.0293      0.00000
    292      -1.0093      0.00000
    293      -1.0070      0.00000
    294      -0.9944      0.00000
    295      -0.9909      0.00000
    296      -0.8754      0.00000
    297      -0.8664      0.00000
    298      -0.8613      0.00000
    299      -0.8307      0.00000
    300      -0.8282      0.00000
    301      -0.7826      0.00000
    302      -0.7360      0.00000
    303      -0.6948      0.00000
    304      -0.6785      0.00000
    305      -0.6727      0.00000
    306      -0.6406      0.00000
    307      -0.6352      0.00000
    308      -0.5646      0.00000
    309      -0.5631      0.00000
    310      -0.4218      0.00000
    311      -0.4170      0.00000
[...]
      8.79250     13.77973     17.55712         0.001130      0.000991      0.007079
     10.04854     15.95543     17.55793         0.001181      0.000749      0.007356
      2.51201     -1.44949     17.56011        -0.001022      0.000475      0.007751
      3.76806      0.72613     17.56048        -0.001147      0.001159      0.004744
      5.02440      2.90173     17.55807        -0.002402      0.000147      0.009970
      6.28036      5.07735     17.55637         0.000116      0.001627      0.005175
      7.53648      7.25290     17.55704        -0.000101      0.000085      0.007067
      8.79257      9.42851     17.55709        -0.000291     -0.000172      0.006759
     10.04862     11.60413     17.55719         0.000500      0.000945      0.007131
     11.30466     13.77981     17.55840         0.000299      0.000711      0.006757
      3.76815     -3.62509     17.56054        -0.000584     -0.001186      0.006529
      5.02413     -1.44942     17.56214         0.000726      0.000414      0.011837
      6.28031      0.72629     17.56137         0.000380     -0.001727      0.005854
      7.53630      2.90168     17.55770         0.001894      0.000915      0.009367
      8.79257      5.07731     17.55758        -0.000286      0.000819      0.006412
     10.04868      7.25292     17.55727        -0.000707     -0.000072      0.006849
     11.30474      9.42851     17.55708         0.000184      0.000734      0.007004
     12.56080     11.60419     17.55798        -0.000055      0.000462      0.007241
      5.02422     -5.80083     17.55859         0.000269      0.000780      0.006867
      6.28023     -3.62509     17.56058         0.001507     -0.000841      0.007381
      7.53634     -1.44948     17.56088         0.001770     -0.000033      0.005336
      8.79254      0.72613     17.55887         0.000930     -0.001309      0.006897
     10.04862      2.90174     17.55826         0.000274      0.000126      0.006735
     11.30477      5.07731     17.55756        -0.000991      0.000158      0.006814
     12.56085      7.25289     17.55705        -0.000502      0.000339      0.006967
     13.81690      9.42849     17.55709        -0.000193      0.001466      0.007220
      6.28033     -7.97652     17.55704         0.000015      0.001072      0.007254
      7.53636     -5.80082     17.55797         0.000269      0.000765      0.007146
      8.79245     -3.62518     17.55854        -0.000122      0.001458      0.006763
     10.04857     -1.44955     17.55815        -0.000630      0.000454      0.007156
     11.30470      0.72606     17.55767        -0.000946      0.000366      0.007219
     12.56081      2.90165     17.55740        -0.000718      0.000514      0.007059
     13.81691      5.07724     17.55707        -0.000729      0.000432      0.006881
     15.07299      7.25283     17.55685        -0.000480      0.001016      0.007151
      7.53641    -10.15215     17.55688         0.000445      0.000487      0.007055
      8.79247     -7.97650     17.55690         0.000415      0.001019      0.007350
     10.04855     -5.80087     17.55714        -0.000230      0.001184      0.007076
     11.30465     -3.62526     17.55708        -0.000646      0.001399      0.007317
     12.56076     -1.44965     17.55697        -0.001070      0.001047      0.007160
     13.81686      0.72596     17.55702        -0.000609      0.000583      0.006958
     15.07296      2.90157     17.55697        -0.000073      0.000542      0.006912
     16.32905      5.07720     17.55689         0.000146      0.000592      0.007011
      8.79247    -12.32774     17.55714         0.001138      0.000393      0.007002
     10.04855    -10.15208     17.55723         0.001021      0.000356      0.006776
     11.30465     -7.97648     17.55704         0.000557      0.000732      0.006977
     12.56075     -5.80089     17.55689         0.000262      0.000486      0.007074
     13.81685     -3.62530     17.55688        -0.000052      0.000485      0.006889
     15.07293     -1.44969     17.55688         0.000197      0.000448      0.006895
     16.32901      0.72594     17.55693         0.000318      0.000359      0.006850
     17.58509      2.90159     17.55697         0.001052      0.000189      0.007046
     10.04854    -14.50329     17.55771         0.001229      0.000254      0.007418
     11.30461    -12.32762     17.55795         0.001408     -0.000620      0.007301
     12.56073    -10.15204     17.55762         0.001001     -0.000357      0.006799
     13.81685     -7.97647     17.55710         0.000734     -0.000353      0.006990
     15.07296     -5.80091     17.55695         0.000305      0.000522      0.006924
     16.32903     -3.62531     17.55692         0.000544      0.000312      0.006837
     17.58509     -1.44967     17.55695         0.001118      0.000571      0.007059
     18.84114      0.72601     17.55724         0.001618      0.000419      0.007320
      5.10803     -1.00014     23.25266        -0.009702     -0.012152      0.006441
      4.76110     -1.15916     21.79466        -0.003618      0.002187     -0.026590
      6.27802      2.62123     21.40047        -0.018398      0.014461     -0.000427
      6.43855     -1.04893     23.41486        -0.009979      0.001503     -0.015334
      4.56444     -1.97591     24.01768         0.003037      0.007762     -0.001944
      4.65219      0.17621     23.70834        -0.001271     -0.001954     -0.013047
      5.26693     -2.24908     21.23285        -0.009814     -0.004105     -0.004925
      3.47145     -1.01351     21.52132         0.009561     -0.006763      0.005460
      7.35854      2.19401     21.33701         0.006002      0.002338     -0.013876
      5.19500      3.04333     21.45708         0.007410      0.003030     -0.003661
 -----------------------------------------------------------------------------------
    total drift:                                0.002236     -0.199951      0.264154


--------------------------------------------------------------------------------------------------------



  FREE ENERGIE OF THE ION-ELECTRON SYSTEM (eV)
  ---------------------------------------------------
  free  energy   TOTEN  =     -1312.92626321 eV

  energy  without entropy=    -1312.90287025  energy(sigma->0) =    -1312.91456673
 


--------------------------------------------------------------------------------------------------------


    POTLOK:  cpu time   43.7691: real time   43.4674


--------------------------------------------------------------------------------------------------------


 writing wavefunctions
     LOOP+:  cpu time 3620.4938: real time 2953.0463
    4ORBIT:  cpu time    0.0000: real time    0.0000
 


 total charge     
 
# of ion       s       p       d       tot
------------------------------------------
    1        0.743   1.391   0.000   2.135
    2        0.743   1.391   0.000   2.135
    3        0.743   1.391   0.000   2.135
    4        0.743   1.391   0.000   2.135
    5        0.743   1.391   0.000   2.135
    6        0.743   1.392   0.000   2.135
    7        0.743   1.391   0.000   2.135
    8        0.743   1.391   0.000   2.135
    9        0.743   1.391   0.000   2.135
   10        0.744   1.392   0.000   2.135
   11        0.744   1.392   0.000   2.136
   12        0.744   1.392   0.000   2.136
   13        0.743   1.391   0.000   2.135
   14        0.743   1.391   0.000   2.135
   15        0.743   1.392   0.000   2.135
   16        0.743   1.391   0.000   2.135
   17        0.743   1.391   0.000   2.135
   18        0.743   1.392   0.000   2.135
   19        0.743   1.392   0.000   2.135
   20        0.744   1.392   0.000   2.136
   21        0.743   1.391   0.000   2.135
   22        0.743   1.391   0.000   2.135
   23        0.743   1.392   0.000   2.135
   24        0.743   1.391   0.000   2.135
   25        0.743   1.391   0.000   2.135
   26        0.743   1.391   0.000   2.135
   27        0.743   1.391   0.000   2.135
   28        0.743   1.391   0.000   2.135
   29        0.743   1.391   0.000   2.135
   30        0.743   1.391   0.000   2.135
   31        0.743   1.392   0.000   2.135
   32        0.743   1.392   0.000   2.135
   33        0.743   1.392   0.000   2.135
   34        0.743   1.391   0.000   2.135
   35        0.743   1.391   0.000   2.135
   36        0.743   1.391   0.000   2.135
   37        0.743   1.391   0.000   2.135
   38        0.743   1.391   0.000   2.135
   39        0.743   1.392   0.000   2.135
   40        0.743   1.392   0.000   2.135
   41        0.743   1.392   0.000   2.135
   42        0.743   1.392   0.000   2.135
   43        0.743   1.391   0.000   2.135
   44        0.743   1.391   0.000   2.135
   45        0.743   1.391   0.000   2.135
   46        0.743   1.391   0.000   2.135
   47        0.743   1.392   0.000   2.135
   48        0.743   1.392   0.000   2.135
   49        0.743   1.392   0.000   2.135
   50        0.743   1.392   0.000   2.135
   51        0.743   1.392   0.000   2.135
   52        0.743   1.392   0.000   2.135
   53        0.743   1.392   0.000   2.135
   54        0.743   1.392   0.000   2.135
   55        0.743   1.392   0.000   2.135
   56        0.743   1.392   0.000   2.135
   57        0.743   1.391   0.000   2.135
   58        0.743   1.391   0.000   2.135
   59        0.743   1.391   0.000   2.135
   60        0.743   1.391   0.000   2.135
   61        0.743   1.392   0.000   2.135
   62        0.743   1.392   0.000   2.135
   63        0.743   1.392   0.000   2.135
   64        0.743   1.391   0.000   2.135
   65        1.240   2.816   0.000   4.055
   66        1.240   2.816   0.000   4.055
   67        1.240   2.816   0.000   4.055
   68        1.240   2.816   0.000   4.055
   69        1.240   2.815   0.000   4.055
   70        1.240   2.815   0.000   4.055
   71        1.240   2.815   0.000   4.055
   72        1.240   2.816   0.000   4.055
   73        1.240   2.815   0.000   4.055
   74        1.240   2.816   0.000   4.055
   75        1.240   2.815   0.000   4.055
   76        1.240   2.816   0.000   4.055
   77        1.240   2.816   0.000   4.055
   78        1.240   2.815   0.000   4.055
   79        1.240   2.815   0.000   4.055
   80        1.240   2.816   0.000   4.055
   81        1.240   2.815   0.000   4.055
   82        1.240   2.815   0.000   4.055
   83        1.240   2.815   0.000   4.055
   84        1.240   2.815   0.000   4.055
   85        1.240   2.816   0.000   4.055
   86        1.240   2.815   0.000   4.055
   87        1.240   2.815   0.000   4.055
   88        1.240   2.815   0.000   4.055
   89        1.240   2.816   0.000   4.055
   90        1.240   2.815   0.000   4.055
   91        1.240   2.816   0.000   4.055
   92        1.240   2.816   0.000   4.055
   93        1.240   2.816   0.000   4.055
   94        1.240   2.816   0.000   4.055
   95        1.240   2.815   0.000   4.055
   96        1.240   2.815   0.000   4.055
   97        1.240   2.815   0.000   4.055
   98        1.240   2.815   0.000   4.055
   99        1.240   2.816   0.000   4.055
  100        1.240   2.816   0.000   4.055
  101        1.240   2.816   0.000   4.055
  102        1.240   2.815   0.000   4.055
  103        1.240   2.815   0.000   4.055
  104        1.240   2.815   0.000   4.055
  105        1.240   2.815   0.000   4.055
  106        1.240   2.815   0.000   4.055
  107        1.240   2.815   0.000   4.055
  108        1.240   2.815   0.000   4.055
  109        1.240   2.815   0.000   4.055
  110        1.240   2.815   0.000   4.055
  111        1.240   2.815   0.000   4.055
  112        1.240   2.815   0.000   4.055
  113        1.240   2.815   0.000   4.055
  114        1.240   2.815   0.000   4.055
  115        1.240   2.815   0.000   4.055
  116        1.240   2.815   0.000   4.055
  117        1.240   2.815   0.000   4.055
  118        1.240   2.815   0.000   4.055
  119        1.240   2.815   0.000   4.055
  120        1.240   2.815   0.000   4.055
  121        1.240   2.816   0.000   4.055
  122        1.240   2.816   0.000   4.055
  123        1.240   2.815   0.000   4.055
  124        1.240   2.815   0.000   4.055
  125        1.240   2.815   0.000   4.055
  126        1.240   2.815   0.000   4.055
  127        1.240   2.815   0.000   4.055
  128        1.240   2.815   0.000   4.055
  129        0.814   1.560   0.000   2.374
  130        0.836   1.566   0.000   2.402
  131        0.945   1.794   0.000   2.738
  132        1.758   4.413   0.000   6.171
  133        1.758   4.405   0.000   6.163
  134        1.758   4.413   0.000   6.171
  135        1.757   4.400   0.000   6.156
  136        1.757   4.400   0.000   6.156
  137        1.608   3.595   0.000   5.204
  138        1.608   3.595   0.000   5.204
--------------------------------------------------
tot        141.522 303.388   0.000 444.910
 


 magnetization (x)
 
# of ion       s       p       d       tot
------------------------------------------
    1        0.000   0.000   0.000   0.000
    2       -0.000  -0.000   0.000  -0.000
    3        0.000   0.000   0.000   0.000
    4        0.000   0.000   0.000   0.000
    5        0.000   0.000   0.000   0.000
    6        0.000   0.000   0.000   0.000
    7        0.000   0.000   0.000   0.000
    8        0.000   0.000   0.000   0.000
    9        0.000  -0.000   0.000   0.000
   10       -0.000   0.000   0.000   0.000
   11        0.000   0.000   0.000   0.000
   12        0.000   0.000   0.000   0.000
   13        0.000   0.000   0.000   0.000
   14        0.000   0.000   0.000   0.000
   15        0.000   0.000   0.000   0.000
   16        0.000   0.000   0.000   0.000
   17        0.000   0.000   0.000   0.000
   18       -0.000  -0.000   0.000  -0.000
   19        0.000   0.000   0.000   0.000
   20       -0.000   0.000   0.000   0.000
   21        0.000   0.000   0.000   0.000
   22        0.000   0.000   0.000   0.000
   23        0.000   0.000   0.000   0.000
   24        0.000   0.000   0.000   0.000
   25        0.000   0.000   0.000   0.000
   26       -0.000  -0.000   0.000  -0.000
   27        0.000  -0.000   0.000  -0.000
   28        0.000  -0.000   0.000   0.000
   29        0.000   0.000   0.000   0.000
   30        0.000   0.000   0.000   0.000
   31        0.000   0.000   0.000   0.000
   32        0.000   0.000   0.000   0.000
   33       -0.000   0.000   0.000   0.000
   34        0.000   0.000   0.000   0.000
   35        0.000   0.000   0.000   0.000
   36       -0.000  -0.000   0.000  -0.000
   37       -0.000  -0.000   0.000  -0.000
   38        0.000   0.000   0.000   0.000
   39        0.000   0.000   0.000   0.000
   40        0.000   0.000   0.000   0.000
   41        0.000   0.000   0.000   0.000
   42        0.000   0.000   0.000   0.000
   43       -0.000  -0.000   0.000  -0.000
   44       -0.000  -0.000   0.000  -0.000
   45       -0.000  -0.000   0.000  -0.000
   46       -0.000  -0.000   0.000  -0.000
   47        0.000   0.000   0.000   0.000
   48        0.000   0.000   0.000   0.000
   49        0.000   0.000   0.000   0.000
   50       -0.000   0.000   0.000   0.000
   51        0.000   0.000   0.000   0.000
   52       -0.000   0.000   0.000   0.000
   53       -0.000   0.000   0.000   0.000
   54       -0.000  -0.000   0.000  -0.000
   55        0.000   0.000   0.000   0.000
   56        0.000   0.000   0.000   0.000
   57       -0.000   0.000   0.000   0.000
   58       -0.000   0.000   0.000   0.000
   59        0.000   0.000   0.000   0.000
   60        0.000   0.000   0.000   0.000
   61        0.000   0.000   0.000   0.000
   62        0.000   0.000   0.000   0.000
   63        0.000   0.000   0.000   0.000
   64       -0.000   0.000   0.000   0.000
   65        0.000  -0.000   0.000  -0.000
   66        0.000   0.000   0.000   0.000
   67       -0.000  -0.000   0.000  -0.000
   68       -0.000  -0.000   0.000  -0.000
   69       -0.000  -0.000   0.000  -0.000
   70        0.000   0.000   0.000   0.000
   71       -0.000  -0.000   0.000  -0.000
   72       -0.000  -0.000   0.000  -0.000
   73       -0.000  -0.000   0.000  -0.000
   74       -0.000  -0.000   0.000  -0.000
   75       -0.000  -0.000   0.000  -0.000
   76       -0.000  -0.000   0.000  -0.000
   77        0.000  -0.000   0.000  -0.000
   78       -0.000  -0.000   0.000  -0.000
   79       -0.000  -0.000   0.000  -0.000
   80        0.000   0.000   0.000   0.000
   81       -0.000  -0.000   0.000  -0.000
   82       -0.000  -0.000   0.000  -0.000
   83        0.000   0.000   0.000   0.000
   84       -0.000  -0.000   0.000  -0.000
   85       -0.000  -0.000   0.000  -0.000
   86       -0.000  -0.000   0.000  -0.000
   87        0.000  -0.000   0.000  -0.000
   88       -0.000  -0.000   0.000  -0.000
   89        0.000   0.000   0.000   0.000
   90       -0.000  -0.000   0.000  -0.000
   91       -0.000  -0.000   0.000  -0.000
   92       -0.000  -0.000   0.000  -0.000
   93       -0.000  -0.000   0.000  -0.000
   94        0.000  -0.000   0.000  -0.000
   95       -0.000  -0.000   0.000  -0.000
   96       -0.000  -0.000   0.000  -0.000
   97       -0.000  -0.000   0.000  -0.000
   98       -0.000  -0.000   0.000  -0.000
   99        0.000   0.000   0.000   0.000
  100        0.000   0.000   0.000   0.000
  101       -0.000  -0.000   0.000  -0.000
  102       -0.000  -0.000   0.000  -0.000
  103       -0.000  -0.000   0.000  -0.000
  104        0.000  -0.000   0.000   0.000
  105       -0.000  -0.000   0.000  -0.000
  106        0.000   0.000   0.000   0.000
  107        0.000   0.000   0.000   0.000
  108       -0.000  -0.000   0.000  -0.000
  109       -0.000  -0.000   0.000  -0.000
  110        0.000  -0.000   0.000  -0.000
  111       -0.000  -0.000   0.000  -0.000
  112       -0.000  -0.000   0.000  -0.000
  113        0.000   0.000   0.000   0.000
  114       -0.000  -0.000   0.000  -0.000
  115       -0.000  -0.000   0.000  -0.000
  116        0.000  -0.000   0.000  -0.000
  117        0.000   0.000   0.000   0.000
  118       -0.000  -0.000   0.000  -0.000
  119       -0.000  -0.000   0.000  -0.000
  120       -0.000  -0.000   0.000  -0.000
  121       -0.000  -0.000   0.000  -0.000
  122       -0.000  -0.000   0.000  -0.000
  123       -0.000  -0.000   0.000  -0.000
  124       -0.000  -0.000   0.000  -0.000
  125       -0.000  -0.000   0.000  -0.000
  126       -0.000  -0.000   0.000  -0.000
  127       -0.000  -0.000   0.000  -0.000
  128        0.000   0.000   0.000   0.000
  129        0.004   0.011   0.000   0.015
  130        0.070   0.377   0.000   0.447
  131       -0.000   0.000   0.000   0.000
  132       -0.000  -0.000   0.000  -0.001
  133        0.001   0.030   0.000   0.031
  134       -0.000  -0.000   0.000  -0.001
  135        0.003   0.077   0.000   0.079
  136        0.003   0.077   0.000   0.080
  137        0.000   0.000   0.000   0.000
  138        0.000   0.000   0.000   0.000
--------------------------------------------------
tot          0.081   0.570   0.000   0.651
 

 total amount of memory used by VASP MPI-rank0  1926190. kBytes
=======================================================================

   base      :      30000. kBytes
   nonlr-proj:      63773. kBytes
   fftplans  :      68224. kBytes
   grid      :    1141764. kBytes
   one-center:        847. kBytes
   wavefun   :     621582. kBytes
 
  
  
 General timing and accounting informations for this job:
 ========================================================
  
                  Total CPU time used (sec):     5619.875
                            User time (sec):     4668.212
                          System time (sec):      951.663
                         Elapsed time (sec):     4299.756
  
                   Maximum memory used (kb):     3609324.
                   Average memory used (kb):           0.
  
                          Minor page faults:     12130418
                          Major page faults:            0
                 Voluntary context switches:        49273
