Job started on c498-134.stampede2.tacc.utexas.edu at Fri May 21 02:20:34 CDT 2021
TACC:  Starting up job 7740871 
TACC:  Starting parallel tasks... 
 running on   48 total cores
 distrk:  each k-point on   48 cores,    1 groups
 distr:  one band on   12 cores,    4 groups
 using from now: INCAR     
 vasp.5.4.4.18Apr17-6-g9f103f2a35 (build May 01 2020 14:57:12) complex          
  
 POSCAR found type information on POSCAR  C  F  O 
 POSCAR found :  3 types and      19 ions
 scaLAPACK will be used

 ----------------------------------------------------------------------------- 
|                                                                             |
|  ADVICE TO THIS USER RUNNING 'VASP/VAMP'   (HEAR YOUR MASTER'S VOICE ...):  |
|                                                                             |
|      You have switched on vdW-DFT.                                          |
|      This routine was written and supplied by Jiri Klimes.                  |
|      We recommed that you carefully read and cite the following             |
|      publication                                                            |
|      J. Klimes, D.R. Bowler, A. Michelides                                  |
|        J. Phys.: Cond Matt. 22 022201 (2010)                                |
|      J. Klimes, D.R. Bowler, A. Michelides                                  |
|        Phys. Rev. B. 83, 195131 (2011)                                      |
|      and references therein.                                                |
|                                                                             |
 ----------------------------------------------------------------------------- 

 LDA part: xc-table for Pade appr. of Perdew
 found WAVECAR, reading the header
 POSCAR, INCAR and KPOINTS ok, starting setup
 FFT: planning ...
 reading WAVECAR
 the WAVECAR file was read successfully
 initial charge from wavefunction
 entering main loop
       N       E                     dE             d eps       ncg     rms          rms(c)
SOL:   1  -0.15868E+01    0.00000E+00   -0.15868E+01   112
  FERMI_SHIFT =   2.217046530079861E-002
Total rVV10 correction in eV:      3.0359495   114.2902128
DAV:   1    -0.140469723149E+03   -0.14047E+03   -0.71391E-01   464   0.719E+00    0.654E-01
SOL:   2  -0.16120E+01    0.00000E+00   -0.16120E+01    92
  FERMI_SHIFT =   2.217191473201219E-002
Total rVV10 correction in eV:      3.0363615   114.2944977
RMM:   2    -0.140472469687E+03   -0.27465E-02   -0.18350E-01   320   0.137E+00    0.358E-01
SOL:   3  -0.16385E+01    0.00000E+00   -0.16385E+01    91
  FERMI_SHIFT =   2.217191473190699E-002
Total rVV10 correction in eV:      3.0365657   114.2971701
RMM:   3    -0.140470083955E+03    0.23857E-02   -0.19310E-02   330   0.351E-01    0.221E-01
SOL:   4  -0.16616E+01    0.00000E+00   -0.16616E+01    89
  FERMI_SHIFT =   2.217191473188569E-002
Total rVV10 correction in eV:      3.0366632   114.2998575
RMM:   4    -0.140468162015E+03    0.19219E-02   -0.34703E-03   322   0.189E-01    0.114E-01
SOL:   5  -0.16987E+01    0.00000E+00   -0.16987E+01    91
  FERMI_SHIFT =   2.217041758431873E-002
Total rVV10 correction in eV:      3.0368678   114.3044313
RMM:   5    -0.140465657710E+03    0.25043E-02   -0.35792E-03   320   0.235E-01    0.613E-02
SOL:   6  -0.17221E+01    0.00000E+00   -0.17221E+01    90
  FERMI_SHIFT =   2.217191473197509E-002
Total rVV10 correction in eV:      3.0369736   114.3055138
RMM:   6    -0.140466254840E+03   -0.59713E-03   -0.23432E-03   320   0.118E-01    0.815E-02
SOL:   7  -0.17488E+01    0.00000E+00   -0.17488E+01    91
  FERMI_SHIFT =   2.217042151827017E-002
Total rVV10 correction in eV:      3.0370065   114.3061955
RMM:   7    -0.140466680822E+03   -0.42598E-03   -0.12878E-03   320   0.109E-01    0.315E-02
SOL:   8  -0.17611E+01    0.00000E+00   -0.17611E+01    85
  FERMI_SHIFT =   2.217191473197534E-002
Total rVV10 correction in eV:      3.0370088   114.3046385
RMM:   8    -0.140467420918E+03   -0.74010E-03   -0.45207E-04   302   0.842E-02    0.239E-02
SOL:   9  -0.17759E+01    0.00000E+00   -0.17759E+01    86
  FERMI_SHIFT =   2.217191473199535E-002
Total rVV10 correction in eV:      3.0370239   114.3023574
RMM:   9    -0.140468853154E+03   -0.14322E-02   -0.77275E-04   298   0.937E-02    0.113E-02
SOL:  10  -0.17816E+01    0.00000E+00   -0.17816E+01    82
  FERMI_SHIFT =   2.217192283744768E-002
Total rVV10 correction in eV:      3.0369853   114.2987632
RMM:  10    -0.140470207680E+03   -0.13545E-02   -0.68081E-04   298   0.919E-02    0.817E-03
SOL:  11  -0.17824E+01    0.00000E+00   -0.17824E+01    77
  FERMI_SHIFT =   2.217176970921353E-002
Total rVV10 correction in eV:      3.0369585   114.2966219
RMM:  11    -0.140470657187E+03   -0.44951E-03   -0.27111E-04   284   0.674E-02    0.534E-03
SOL:  12  -0.17831E+01    0.00000E+00   -0.17831E+01    78
  FERMI_SHIFT =   2.217176970921811E-002
Total rVV10 correction in eV:      3.0369309   114.2942532
RMM:  12    -0.140471089300E+03   -0.43211E-03   -0.15893E-04   270   0.550E-02    0.607E-03
SOL:  13  -0.17834E+01    0.00000E+00   -0.17834E+01    75
  FERMI_SHIFT =   2.217057728713309E-002
Total rVV10 correction in eV:      3.0369226   114.2933785
RMM:  13    -0.140471221486E+03   -0.13219E-03   -0.51422E-05   234   0.315E-02    0.150E-03
SOL:  14  -0.17835E+01    0.00000E+00   -0.17835E+01    73
  FERMI_SHIFT =   2.217177318622263E-002
Total rVV10 correction in eV:      3.0369083   114.2922101
RMM:  14    -0.140471351970E+03   -0.13048E-03   -0.17433E-05   213   0.225E-02    0.274E-03
SOL:  15  -0.17834E+01    0.00000E+00   -0.17834E+01    70
  FERMI_SHIFT =   2.217056835095668E-002
Total rVV10 correction in eV:      3.0368952   114.2914622
RMM:  15    -0.140471422626E+03   -0.70656E-04   -0.11453E-05   212   0.197E-02    0.133E-03
SOL:  16  -0.17834E+01    0.00000E+00   -0.17834E+01    64
  FERMI_SHIFT =   2.217177864540842E-002
Total rVV10 correction in eV:      3.0368916   114.2912815
RMM:  16    -0.140471435716E+03   -0.13091E-04   -0.50458E-06   206   0.144E-02    0.481E-04
SOL:  17  -0.17833E+01    0.00000E+00   -0.17833E+01    66
  FERMI_SHIFT =   2.217178166619918E-002
Total rVV10 correction in eV:      3.0368826   114.2907836
RMM:  17    -0.140471469302E+03   -0.33586E-04   -0.50037E-06   206   0.144E-02    0.573E-04
SOL:  18  -0.17833E+01    0.00000E+00   -0.17833E+01    63
  FERMI_SHIFT =   2.217178166619939E-002
Total rVV10 correction in eV:      3.0368798   114.2906120
RMM:  18    -0.140471478989E+03   -0.96867E-05   -0.36198E-06   206   0.124E-02
Total rVV10 correction in eV:      3.0368725   114.2902129
SOL:  19  -0.17833E+01    0.00000E+00   -0.17833E+01    55
  FERMI_SHIFT =   2.217178166619585E-002
Total rVV10 correction in eV:      3.0368790   114.2905580
   1 F= -.14047148E+03 E0= -.14047148E+03  d E =-.140471E+03  mag=    -0.0000
 curvature:   0.00 expect dE= 0.000E+00 dE for cont linesearch  0.000E+00
 trial: gam= 0.00000 g(F)=  0.796E-01 g(S)=  0.000E+00 ort = 0.000E+00 (trialstep = 0.100E+01)
 search vector abs. value=  0.796E-01
 bond charge predicted
       N       E                     dE             d eps       ncg     rms          rms(c)
SOL:  20  -0.17828E+01    0.00000E+00   -0.17828E+01    93
  FERMI_SHIFT =   2.217040261846127E-002
Total rVV10 correction in eV:      3.0366346   114.2906141
DAV:   1    -0.140411826576E+03    0.59643E-01   -0.13253E+01   368   0.155E+01    0.722E-01
SOL:  21  -0.17979E+01    0.00000E+00   -0.17979E+01    90
  FERMI_SHIFT =   2.217057094616440E-002
Total rVV10 correction in eV:      3.0368232   114.2967538
RMM:   2    -0.140455277129E+03   -0.43451E-01   -0.38472E-01   320   0.252E+00    0.469E-01
SOL:  22  -0.18089E+01    0.00000E+00   -0.18089E+01    88
  FERMI_SHIFT =   2.217057094601624E-002
Total rVV10 correction in eV:      3.0367978   114.2969216
RMM:   3    -0.140454004290E+03    0.12728E-02   -0.15469E-02   328   0.380E-01    0.333E-01
SOL:  23  -0.18354E+01    0.00000E+00   -0.18354E+01    92
  FERMI_SHIFT =   2.217175899685608E-002
Total rVV10 correction in eV:      3.0367504   114.2967911
RMM:   4    -0.140455071380E+03   -0.10671E-02   -0.88343E-03   320   0.397E-01    0.596E-02
SOL:  24  -0.18397E+01    0.00000E+00   -0.18397E+01    85
  FERMI_SHIFT =   2.217176362460718E-002
Total rVV10 correction in eV:      3.0367729   114.2969028
RMM:   5    -0.140455239766E+03   -0.16839E-03   -0.37211E-04   316   0.784E-02    0.349E-02
SOL:  25  -0.18505E+01    0.00000E+00   -0.18505E+01    88
  FERMI_SHIFT =   2.217176362460831E-002
Total rVV10 correction in eV:      3.0368131   114.2972759
RMM:   6    -0.140455518336E+03   -0.27857E-03   -0.61641E-04   316   0.760E-02    0.219E-02
SOL:  26  -0.18532E+01    0.00000E+00   -0.18532E+01    81
  FERMI_SHIFT =   2.217056611297520E-002
Total rVV10 correction in eV:      3.0368054   114.2970969
RMM:   7    -0.140455682286E+03   -0.16395E-03   -0.10165E-04   293   0.447E-02    0.129E-02
SOL:  27  -0.18647E+01    0.00000E+00   -0.18647E+01    86
  FERMI_SHIFT =   2.217056195119169E-002
Total rVV10 correction in eV:      3.0368179   114.2966026
RMM:   8    -0.140456253479E+03   -0.57119E-03   -0.24431E-04   296   0.591E-02    0.819E-03
SOL:  28  -0.18692E+01    0.00000E+00   -0.18692E+01    81
  FERMI_SHIFT =   2.217176914134170E-002
Total rVV10 correction in eV:      3.0368207   114.2959445
RMM:   9    -0.140456508240E+03   -0.25476E-03   -0.16114E-04   263   0.568E-02    0.612E-03
SOL:  29  -0.18753E+01    0.00000E+00   -0.18753E+01    82
  FERMI_SHIFT =   2.217175899683033E-002
Total rVV10 correction in eV:      3.0368153   114.2946298
RMM:  10    -0.140456929290E+03   -0.42105E-03   -0.25116E-04   282   0.669E-02    0.441E-03
SOL:  30  -0.18780E+01    0.00000E+00   -0.18780E+01    77
  FERMI_SHIFT =   2.217057635578697E-002
Total rVV10 correction in eV:      3.0368078   114.2938305
RMM:  11    -0.140457075763E+03   -0.14647E-03   -0.14426E-04   251   0.526E-02    0.274E-03
SOL:  31  -0.18788E+01    0.00000E+00   -0.18788E+01    75
  FERMI_SHIFT =   2.217174993198476E-002
Total rVV10 correction in eV:      3.0367947   114.2927568
RMM:  12    -0.140457268605E+03   -0.19284E-03   -0.67339E-05   236   0.347E-02    0.192E-03
SOL:  32  -0.18794E+01    0.00000E+00   -0.18794E+01    73
  FERMI_SHIFT =   2.217174479237354E-002
Total rVV10 correction in eV:      3.0367867   114.2920469
RMM:  13    -0.140457375706E+03   -0.10710E-03   -0.39131E-05   224   0.282E-02    0.114E-03
SOL:  33  -0.18794E+01    0.00000E+00   -0.18794E+01    71
  FERMI_SHIFT =   2.217174479236871E-002
Total rVV10 correction in eV:      3.0367806   114.2915807
RMM:  14    -0.140457428984E+03   -0.53277E-04   -0.18463E-05   217   0.216E-02    0.925E-04
SOL:  34  -0.18794E+01    0.00000E+00   -0.18794E+01    71
  FERMI_SHIFT =   2.217173955620821E-002
Total rVV10 correction in eV:      3.0367715   114.2910773
RMM:  15    -0.140457479507E+03   -0.50524E-04   -0.98685E-06   212   0.167E-02    0.518E-04
SOL:  35  -0.18794E+01    0.00000E+00   -0.18794E+01    65
  FERMI_SHIFT =   2.217059184848245E-002
Total rVV10 correction in eV:      3.0367664   114.2908312
RMM:  16    -0.140457499058E+03   -0.19550E-04   -0.52918E-06   208   0.139E-02    0.416E-04
SOL:  36  -0.18794E+01    0.00000E+00   -0.18794E+01    64
  FERMI_SHIFT =   2.217195979381797E-002
Total rVV10 correction in eV:      3.0367618   114.2905986
RMM:  17    -0.140457514595E+03   -0.15537E-04   -0.38821E-06   206   0.125E-02    0.428E-04
SOL:  37  -0.18794E+01    0.00000E+00   -0.18794E+01    61
  FERMI_SHIFT =   2.217039169492166E-002
Total rVV10 correction in eV:      3.0367603   114.2905065
RMM:  18    -0.140457519851E+03   -0.52561E-05   -0.27111E-06   206   0.107E-02
Total rVV10 correction in eV:      3.0367543   114.2902132
SOL:  38  -0.18794E+01    0.00000E+00   -0.18794E+01    60
  FERMI_SHIFT =   2.217195240051495E-002
Total rVV10 correction in eV:      3.0367586   114.2904099
   2 F= -.14045752E+03 E0= -.14045752E+03  d E =0.139591E-01  mag=    -0.0000
 trial-energy change:    0.013959  1 .order    0.014502   -0.079573    0.108577
 step:   0.4272(harm=  0.4229)  dis= 0.01287  next Energy=  -140.488516 (dE=-0.170E-01)
 bond charge predicted
       N       E                     dE             d eps       ncg     rms          rms(c)
SOL:  39  -0.18798E+01    0.00000E+00   -0.18798E+01    91
  FERMI_SHIFT =   2.217046919369935E-002
Total rVV10 correction in eV:      3.0369137   114.2904392
DAV:   1    -0.140474554369E+03   -0.17040E-01   -0.43517E+00   368   0.883E+00    0.425E-01
SOL:  40  -0.18704E+01    0.00000E+00   -0.18704E+01    88
  FERMI_SHIFT =   2.217046713789725E-002
Total rVV10 correction in eV:      3.0369835   114.2941922
RMM:   2    -0.140487606224E+03   -0.13052E-01   -0.12763E-01   320   0.146E+00    0.267E-01
SOL:  41  -0.18637E+01    0.00000E+00   -0.18637E+01    86
  FERMI_SHIFT =   2.217046713791423E-002
Total rVV10 correction in eV:      3.0369778   114.2942860
RMM:   3    -0.140487232556E+03    0.37367E-03   -0.52595E-03   330   0.232E-01    0.186E-01
SOL:  42  -0.18488E+01    0.00000E+00   -0.18488E+01    89
  FERMI_SHIFT =   2.217046749080477E-002
Total rVV10 correction in eV:      3.0369153   114.2940900
RMM:   4    -0.140487656875E+03   -0.42432E-03   -0.28666E-03   320   0.227E-01    0.343E-02
SOL:  43  -0.18461E+01    0.00000E+00   -0.18461E+01    83
  FERMI_SHIFT =   2.217046713788848E-002
Total rVV10 correction in eV:      3.0368999   114.2941606
RMM:   5    -0.140487681802E+03   -0.24927E-04   -0.13071E-04   304   0.489E-02    0.197E-02
SOL:  44  -0.18403E+01    0.00000E+00   -0.18403E+01    85
  FERMI_SHIFT =   2.217046713788656E-002
Total rVV10 correction in eV:      3.0368824   114.2942721
RMM:   6    -0.140487767453E+03   -0.85651E-04   -0.18940E-04   308   0.456E-02    0.124E-02
SOL:  45  -0.18385E+01    0.00000E+00   -0.18385E+01    79
  FERMI_SHIFT =   2.217186496937672E-002
Total rVV10 correction in eV:      3.0368878   114.2941519
RMM:   7    -0.140487823580E+03   -0.56126E-04   -0.35607E-05   244   0.304E-02    0.741E-03
SOL:  46  -0.18316E+01    0.00000E+00   -0.18316E+01    84
  FERMI_SHIFT =   2.217186548406458E-002
Total rVV10 correction in eV:      3.0368773   114.2938175
RMM:   8    -0.140488014671E+03   -0.19109E-03   -0.66781E-05   264   0.375E-02    0.479E-03
SOL:  47  -0.18296E+01    0.00000E+00   -0.18296E+01    77
  FERMI_SHIFT =   2.217186534754528E-002
Total rVV10 correction in eV:      3.0368703   114.2934123
RMM:   9    -0.140488124755E+03   -0.11008E-03   -0.34140E-05   238   0.335E-02    0.332E-03
SOL:  48  -0.18254E+01    0.00000E+00   -0.18254E+01    80
  FERMI_SHIFT =   2.217046749079443E-002
Total rVV10 correction in eV:      3.0368585   114.2925340
RMM:  10    -0.140488305871E+03   -0.18112E-03   -0.55454E-05   260   0.381E-02    0.239E-03
SOL:  49  -0.18247E+01    0.00000E+00   -0.18247E+01    70
  FERMI_SHIFT =   2.217186606321148E-002
Total rVV10 correction in eV:      3.0368560   114.2922055
RMM:  11    -0.140488358281E+03   -0.52410E-04   -0.29802E-05   230   0.319E-02    0.159E-03
SOL:  50  -0.18242E+01    0.00000E+00   -0.18242E+01    72
  FERMI_SHIFT =   2.217186643273188E-002
Total rVV10 correction in eV:      3.0368498   114.2915346
RMM:  12    -0.140488442219E+03   -0.83938E-04   -0.16238E-05   212   0.227E-02    0.113E-03
SOL:  51  -0.18239E+01    0.00000E+00   -0.18239E+01    70
  FERMI_SHIFT =   2.217186643273641E-002
Total rVV10 correction in eV:      3.0368451   114.2912022
RMM:  13    -0.140488477528E+03   -0.35309E-04   -0.97129E-06   210   0.178E-02    0.663E-04
SOL:  52  -0.18239E+01    0.00000E+00   -0.18239E+01    69
  FERMI_SHIFT =   2.217046761252334E-002
Total rVV10 correction in eV:      3.0368402   114.2908686
RMM:  14    -0.140488508213E+03   -0.30685E-04   -0.80471E-06   209   0.178E-02    0.679E-04
SOL:  53  -0.18239E+01    0.00000E+00   -0.18239E+01    67
  FERMI_SHIFT =   2.217186640910715E-002
Total rVV10 correction in eV:      3.0368373   114.2906612
RMM:  15    -0.140488524725E+03   -0.16512E-04   -0.59042E-06   206   0.155E-02    0.330E-04
SOL:  54  -0.18239E+01    0.00000E+00   -0.18239E+01    62
  FERMI_SHIFT =   2.217046761252545E-002
Total rVV10 correction in eV:      3.0368356   114.2905433
RMM:  16    -0.140488532836E+03   -0.81107E-05   -0.34031E-06   206   0.121E-02
Total rVV10 correction in eV:      3.0368275   114.2902131
SOL:  55  -0.18239E+01    0.00000E+00   -0.18239E+01    62
  FERMI_SHIFT =   2.217186640668851E-002
Total rVV10 correction in eV:      3.0368327   114.2904026
   3 F= -.14048853E+03 E0= -.14048853E+03  d E =-.170538E-01  mag=     0.0000
 curvature:  -0.21 expect dE=-0.719E-02 dE for cont linesearch -0.101E-06
 trial: gam= 0.42516 g(F)=  0.340E-01 g(S)=  0.000E+00 ort = 0.195E-03 (trialstep = 0.885E+00)
 search vector abs. value=  0.486E-01
 bond charge predicted
       N       E                     dE             d eps       ncg     rms          rms(c)
SOL:  56  -0.18290E+01    0.00000E+00   -0.18290E+01    94
  FERMI_SHIFT =   2.217214183868120E-002
Total rVV10 correction in eV:      3.0367437   114.2904481
DAV:   1    -0.140464403332E+03    0.24121E-01   -0.83332E+00   336   0.120E+01    0.639E-01
SOL:  57  -0.18328E+01    0.00000E+00   -0.18328E+01    89
  FERMI_SHIFT =   2.217021612295358E-002
Total rVV10 correction in eV:      3.0369573   114.2953973
RMM:   2    -0.140490181806E+03   -0.25778E-01   -0.24513E-01   320   0.193E+00    0.336E-01
SOL:  58  -0.18354E+01    0.00000E+00   -0.18354E+01    86
  FERMI_SHIFT =   2.217021612582784E-002
Total rVV10 correction in eV:      3.0369690   114.2949555
RMM:   3    -0.140489071794E+03    0.11100E-02   -0.10453E-02   326   0.289E-01    0.234E-01
SOL:  59  -0.18410E+01    0.00000E+00   -0.18410E+01    88
  FERMI_SHIFT =   2.217212659141890E-002
Total rVV10 correction in eV:      3.0369346   114.2928213
RMM:   4    -0.140490050411E+03   -0.97862E-03   -0.46114E-03   320   0.239E-01    0.612E-02
SOL:  60  -0.18449E+01    0.00000E+00   -0.18449E+01    82
  FERMI_SHIFT =   2.217212949641155E-002
Total rVV10 correction in eV:      3.0369473   114.2925680
RMM:   5    -0.140490159415E+03   -0.10900E-03   -0.42598E-04   320   0.769E-02    0.257E-02
SOL:  61  -0.18482E+01    0.00000E+00   -0.18482E+01    82
  FERMI_SHIFT =   2.217212659130716E-002
Total rVV10 correction in eV:      3.0369515   114.2925579
RMM:   6    -0.140490155687E+03    0.37287E-05   -0.16361E-04   286   0.376E-02    0.180E-02
SOL:  62  -0.18516E+01    0.00000E+00   -0.18516E+01    82
  FERMI_SHIFT =   2.217212659130677E-002
Total rVV10 correction in eV:      3.0369467   114.2924862
RMM:   7    -0.140490174181E+03   -0.18494E-04   -0.79289E-05   250   0.381E-02    0.900E-03
SOL:  63  -0.18536E+01    0.00000E+00   -0.18536E+01    78
  FERMI_SHIFT =   2.217212335605707E-002
Total rVV10 correction in eV:      3.0369479   114.2923532
RMM:   8    -0.140490230473E+03   -0.56293E-04   -0.30044E-05   223   0.275E-02    0.339E-03
SOL:  64  -0.18567E+01    0.00000E+00   -0.18567E+01    79
  FERMI_SHIFT =   2.217021612650813E-002
Total rVV10 correction in eV:      3.0369455   114.2920651
RMM:   9    -0.140490332552E+03   -0.10208E-03   -0.37142E-05   225   0.297E-02    0.356E-03
SOL:  65  -0.18589E+01    0.00000E+00   -0.18589E+01    78
  FERMI_SHIFT =   2.217021612650552E-002
Total rVV10 correction in eV:      3.0369391   114.2917483
RMM:  10    -0.140490407892E+03   -0.75340E-04   -0.39419E-05   234   0.331E-02    0.196E-03
SOL:  66  -0.18603E+01    0.00000E+00   -0.18603E+01    74
  FERMI_SHIFT =   2.217021612650488E-002
Total rVV10 correction in eV:      3.0369338   114.2914499
RMM:  11    -0.140490459543E+03   -0.51650E-04   -0.34076E-05   225   0.321E-02    0.162E-03
SOL:  67  -0.18611E+01    0.00000E+00   -0.18611E+01    70
  FERMI_SHIFT =   2.217021302249535E-002
Total rVV10 correction in eV:      3.0369290   114.2911674
RMM:  12    -0.140490504564E+03   -0.45021E-04   -0.17392E-05   212   0.227E-02    0.652E-04
SOL:  68  -0.18613E+01    0.00000E+00   -0.18613E+01    68
  FERMI_SHIFT =   2.217021051823009E-002
Total rVV10 correction in eV:      3.0369245   114.2909378
RMM:  13    -0.140490533610E+03   -0.29046E-04   -0.99874E-06   212   0.183E-02    0.485E-04
SOL:  69  -0.18613E+01    0.00000E+00   -0.18613E+01    67
  FERMI_SHIFT =   2.217213463160608E-002
Total rVV10 correction in eV:      3.0369197   114.2907141
RMM:  14    -0.140490559004E+03   -0.25394E-04   -0.80067E-06   210   0.170E-02    0.356E-04
SOL:  70  -0.18614E+01    0.00000E+00   -0.18614E+01    66
  FERMI_SHIFT =   2.217026814934521E-002
Total rVV10 correction in eV:      3.0369155   114.2905378
RMM:  15    -0.140490574739E+03   -0.15735E-04   -0.50031E-06   206   0.141E-02    0.235E-04
SOL:  71  -0.18614E+01    0.00000E+00   -0.18614E+01    62
  FERMI_SHIFT =   2.217212949639392E-002
Total rVV10 correction in eV:      3.0369132   114.2904399
RMM:  16    -0.140490581687E+03   -0.69481E-05   -0.35556E-06   206   0.121E-02
Total rVV10 correction in eV:      3.0369086   114.2902129
SOL:  72  -0.18614E+01    0.00000E+00   -0.18614E+01    58
  FERMI_SHIFT =   2.217212659130459E-002
Total rVV10 correction in eV:      3.0369120   114.2903805
   4 F= -.14049058E+03 E0= -.14049058E+03  d E =-.204885E-02  mag=     0.0000
 trial-energy change:   -0.002049  1 .order   -0.001826   -0.030201    0.026548
 step:   0.4764(harm=  0.4712)  dis= 0.00826  next Energy=  -140.496692 (dE=-0.816E-02)
 bond charge predicted
       N       E                     dE             d eps       ncg     rms          rms(c)
SOL:  73  -0.18590E+01    0.00000E+00   -0.18590E+01    91
  FERMI_SHIFT =   2.217200888601759E-002
Total rVV10 correction in eV:      3.0369565   114.2903994
DAV:   1    -0.140492864417E+03   -0.22897E-02   -0.17749E+00   352   0.552E+00    0.296E-01
SOL:  74  -0.18571E+01    0.00000E+00   -0.18571E+01    85
  FERMI_SHIFT =   2.217197830409193E-002
Total rVV10 correction in eV:      3.0369747   114.2925760
RMM:   2    -0.140496264381E+03   -0.34000E-02   -0.51825E-02   320   0.897E-01    0.155E-01
SOL:  75  -0.18559E+01    0.00000E+00   -0.18559E+01    82
  FERMI_SHIFT =   2.217035694855024E-002
Total rVV10 correction in eV:      3.0369556   114.2924590
RMM:   3    -0.140496117224E+03    0.14716E-03   -0.22829E-03   326   0.135E-01    0.109E-01
SOL:  76  -0.18533E+01    0.00000E+00   -0.18533E+01    85
  FERMI_SHIFT =   2.217033345469240E-002
Total rVV10 correction in eV:      3.0369098   114.2916206
RMM:   4    -0.140496554854E+03   -0.43763E-03   -0.11195E-03   320   0.120E-01    0.304E-02
SOL:  77  -0.18516E+01    0.00000E+00   -0.18516E+01    79
  FERMI_SHIFT =   2.217200640935874E-002
Total rVV10 correction in eV:      3.0368938   114.2915459
RMM:   5    -0.140496576768E+03   -0.21914E-04   -0.10347E-04   278   0.419E-02    0.129E-02
SOL:  78  -0.18500E+01    0.00000E+00   -0.18500E+01    79
  FERMI_SHIFT =   2.217200640936595E-002
Total rVV10 correction in eV:      3.0368898   114.2915469
RMM:   6    -0.140496577282E+03   -0.51367E-06   -0.51152E-05   242   0.239E-02
Total rVV10 correction in eV:      3.0368775   114.2902131
SOL:  79  -0.18486E+01    0.00000E+00   -0.18486E+01    79
  FERMI_SHIFT =   2.217200889437987E-002
Total rVV10 correction in eV:      3.0368917   114.2915009
   5 F= -.14049658E+03 E0= -.14049658E+03  d E =-.804445E-02  mag=    -0.0000
 curvature:  -0.34 expect dE=-0.232E-02 dE for cont linesearch -0.329E-06
 trial: gam= 0.19836 g(F)=  0.690E-02 g(S)=  0.000E+00 ort = 0.218E-03 (trialstep = 0.804E+00)
 search vector abs. value=  0.890E-02
 bond charge predicted
       N       E                     dE             d eps       ncg     rms          rms(c)
SOL:  80  -0.18485E+01    0.00000E+00   -0.18485E+01    87
  FERMI_SHIFT =   2.217186516151032E-002
Total rVV10 correction in eV:      3.0369539   114.2915070
DAV:   1    -0.140489689137E+03    0.68876E-02   -0.13891E+00   352   0.515E+00    0.257E-01
SOL:  81  -0.18495E+01    0.00000E+00   -0.18495E+01    85
  FERMI_SHIFT =   2.217186470528765E-002
Total rVV10 correction in eV:      3.0369592   114.2933004
RMM:   2    -0.140495525999E+03   -0.58369E-02   -0.50066E-02   320   0.907E-01    0.163E-01
SOL:  82  -0.18500E+01    0.00000E+00   -0.18500E+01    83
  FERMI_SHIFT =   2.217186470556486E-002
Total rVV10 correction in eV:      3.0369466   114.2931312
RMM:   3    -0.140495308729E+03    0.21727E-03   -0.16370E-03   328   0.130E-01    0.113E-01
SOL:  83  -0.18508E+01    0.00000E+00   -0.18508E+01    87
  FERMI_SHIFT =   2.217186470560217E-002
Total rVV10 correction in eV:      3.0369083   114.2924000
RMM:   4    -0.140495608100E+03   -0.29937E-03   -0.99365E-04   320   0.131E-01    0.239E-02
SOL:  84  -0.18508E+01    0.00000E+00   -0.18508E+01    81
  FERMI_SHIFT =   2.217186470559952E-002
Total rVV10 correction in eV:      3.0368983   114.2924155
RMM:   5    -0.140495610423E+03   -0.23228E-05   -0.68741E-05   290   0.383E-02
Total rVV10 correction in eV:      3.0368810   114.2902131
SOL:  85  -0.18508E+01    0.00000E+00   -0.18508E+01    80
  FERMI_SHIFT =   2.217047386135920E-002
Total rVV10 correction in eV:      3.0368960   114.2923974
   6 F= -.14049561E+03 E0= -.14049561E+03  d E =0.966859E-03  mag=    -0.0000
 trial-energy change:    0.000967  1 .order    0.000721   -0.005584    0.007026
 step:   0.3331(harm=  0.3559)  dis= 0.00232  next Energy=  -140.497717 (dE=-0.114E-02)
 bond charge predicted
       N       E                     dE             d eps       ncg     rms          rms(c)
SOL:  86  -0.18509E+01    0.00000E+00   -0.18509E+01    85
  FERMI_SHIFT =   2.217039289349931E-002
Total rVV10 correction in eV:      3.0368603   114.2923992
DAV:   1    -0.140495393891E+03    0.21421E-03   -0.47472E-01   368   0.301E+00    0.151E-01
SOL:  87  -0.18499E+01    0.00000E+00   -0.18499E+01    82
  FERMI_SHIFT =   2.217194546388690E-002
Total rVV10 correction in eV:      3.0369095   114.2929748
RMM:   2    -0.140497408876E+03   -0.20150E-02   -0.16921E-02   320   0.530E-01    0.940E-02
SOL:  88  -0.18494E+01    0.00000E+00   -0.18494E+01    79
  FERMI_SHIFT =   2.217039318204578E-002
Total rVV10 correction in eV:      3.0369063   114.2925754
RMM:   3    -0.140497452268E+03   -0.43393E-04   -0.54107E-04   320   0.791E-02    0.648E-02
SOL:  89  -0.18484E+01    0.00000E+00   -0.18484E+01    83
  FERMI_SHIFT =   2.217039318206943E-002
Total rVV10 correction in eV:      3.0368883   114.2913694
RMM:   4    -0.140497821627E+03   -0.36936E-03   -0.34965E-04   320   0.825E-02    0.129E-02
SOL:  90  -0.18482E+01    0.00000E+00   -0.18482E+01    76
  FERMI_SHIFT =   2.217039289462594E-002
Total rVV10 correction in eV:      3.0368906   114.2911402
RMM:   5    -0.140497848403E+03   -0.26776E-04   -0.30231E-05   223   0.269E-02    0.611E-03
SOL:  91  -0.18480E+01    0.00000E+00   -0.18480E+01    76
  FERMI_SHIFT =   2.217194614802245E-002
Total rVV10 correction in eV:      3.0368910   114.2909565
RMM:   6    -0.140497866745E+03   -0.18342E-04   -0.16465E-05   212   0.209E-02    0.314E-03
SOL:  92  -0.18478E+01    0.00000E+00   -0.18478E+01    74
  FERMI_SHIFT =   2.217194666624872E-002
Total rVV10 correction in eV:      3.0368888   114.2907803
RMM:   7    -0.140497881818E+03   -0.15073E-04   -0.18409E-05   222   0.247E-02    0.157E-03
SOL:  93  -0.18476E+01    0.00000E+00   -0.18476E+01    71
  FERMI_SHIFT =   2.217039227344372E-002
Total rVV10 correction in eV:      3.0368876   114.2906792
RMM:   8    -0.140497889418E+03   -0.76004E-05   -0.13003E-05   215   0.210E-02
Total rVV10 correction in eV:      3.0368788   114.2902131
SOL:  94  -0.18474E+01    0.00000E+00   -0.18474E+01    72
  FERMI_SHIFT =   2.217194957243879E-002
Total rVV10 correction in eV:      3.0368860   114.2905515
   7 F= -.14049789E+03 E0= -.14049789E+03  d E =-.131214E-02  mag=    -0.0000
 curvature:  -0.23 expect dE=-0.984E-03 dE for cont linesearch -0.541E-05
 trial: gam= 0.56176 g(F)=  0.433E-02 g(S)=  0.000E+00 ort = 0.460E-03 (trialstep = 0.710E+00)
 search vector abs. value=  0.766E-02
 bond charge predicted
       N       E                     dE             d eps       ncg     rms          rms(c)
SOL:  95  -0.18469E+01    0.00000E+00   -0.18469E+01    88
  FERMI_SHIFT =   2.217186979873259E-002
Total rVV10 correction in eV:      3.0369179   114.2905640
DAV:   1    -0.140494562976E+03    0.33188E-02   -0.10745E+00   368   0.442E+00    0.215E-01
SOL:  96  -0.18475E+01    0.00000E+00   -0.18475E+01    83
  FERMI_SHIFT =   2.217191861972112E-002
Total rVV10 correction in eV:      3.0369337   114.2920508
RMM:   2    -0.140498239373E+03   -0.36764E-02   -0.35262E-02   320   0.775E-01    0.119E-01
SOL:  97  -0.18480E+01    0.00000E+00   -0.18480E+01    81
  FERMI_SHIFT =   2.217041757554886E-002
Total rVV10 correction in eV:      3.0369247   114.2918459
RMM:   3    -0.140498082698E+03    0.15668E-03   -0.97834E-04   329   0.107E-01    0.811E-02
SOL:  98  -0.18489E+01    0.00000E+00   -0.18489E+01    85
  FERMI_SHIFT =   2.217190786301321E-002
Total rVV10 correction in eV:      3.0368957   114.2910367
RMM:   4    -0.140498421700E+03   -0.33900E-03   -0.60179E-04   320   0.105E-01    0.177E-02
SOL:  99  -0.18490E+01    0.00000E+00   -0.18490E+01    78
  FERMI_SHIFT =   2.217042630669744E-002
Total rVV10 correction in eV:      3.0368891   114.2910281
RMM:   5    -0.140498426883E+03   -0.51840E-05   -0.43947E-05   240   0.327E-02
Total rVV10 correction in eV:      3.0368690   114.2902132
SOL: 100  -0.18492E+01    0.00000E+00   -0.18492E+01    80
  FERMI_SHIFT =   2.217190615552461E-002
Total rVV10 correction in eV:      3.0368860   114.2910718
   8 F= -.14049843E+03 E0= -.14049843E+03  d E =-.537465E-03  mag=    -0.0000
 trial-energy change:   -0.000537  1 .order   -0.000668   -0.003255    0.001919
 step:   0.4204(harm=  0.4464)  dis= 0.00252  next Energy=  -140.498827 (dE=-0.937E-03)
 bond charge predicted
       N       E                     dE             d eps       ncg     rms          rms(c)
SOL: 101  -0.18494E+01    0.00000E+00   -0.18494E+01    84
  FERMI_SHIFT =   2.217192091786627E-002
Total rVV10 correction in eV:      3.0368733   114.2910730
DAV:   1    -0.140498147635E+03    0.27406E-03   -0.17749E-01   368   0.179E+00    0.876E-02
SOL: 102  -0.18492E+01    0.00000E+00   -0.18492E+01    79
  FERMI_SHIFT =   2.217192091768774E-002
Total rVV10 correction in eV:      3.0369000   114.2914951
RMM:   2    -0.140498731142E+03   -0.58351E-03   -0.56937E-03   320   0.315E-01    0.473E-02
SOL: 103  -0.18491E+01    0.00000E+00   -0.18491E+01    76
  FERMI_SHIFT =   2.217192091766942E-002
Total rVV10 correction in eV:      3.0368977   114.2913191
RMM:   3    -0.140498738525E+03   -0.73838E-05   -0.16052E-04   308   0.471E-02    0.317E-02
SOL: 104  -0.18489E+01    0.00000E+00   -0.18489E+01    79
  FERMI_SHIFT =   2.217192091766482E-002
Total rVV10 correction in eV:      3.0368845   114.2907509
RMM:   4    -0.140498875584E+03   -0.13706E-03   -0.98652E-05   298   0.488E-02    0.607E-03
SOL: 105  -0.18489E+01    0.00000E+00   -0.18489E+01    72
  FERMI_SHIFT =   2.217192091766310E-002
Total rVV10 correction in eV:      3.0368842   114.2906480
RMM:   5    -0.140498888385E+03   -0.12801E-04   -0.14087E-05   212   0.222E-02    0.368E-03
SOL: 106  -0.18490E+01    0.00000E+00   -0.18490E+01    74
  FERMI_SHIFT =   2.217192091766432E-002
Total rVV10 correction in eV:      3.0368838   114.2905533
RMM:   6    -0.140498899972E+03   -0.11588E-04   -0.12609E-05   215   0.191E-02    0.152E-03
SOL: 107  -0.18490E+01    0.00000E+00   -0.18490E+01    68
  FERMI_SHIFT =   2.217192091766679E-002
Total rVV10 correction in eV:      3.0368828   114.2905105
RMM:   7    -0.140498903375E+03   -0.34024E-05   -0.11784E-05   214   0.194E-02
Total rVV10 correction in eV:      3.0368752   114.2902132
SOL: 108  -0.18489E+01    0.00000E+00   -0.18489E+01    68
  FERMI_SHIFT =   2.217192091765813E-002
Total rVV10 correction in eV:      3.0368812   114.2904531
   9 F= -.14049890E+03 E0= -.14049890E+03  d E =-.101396E-02  mag=    -0.0000
 curvature:  -0.37 expect dE=-0.930E-03 dE for cont linesearch -0.353E-05
 trial: gam= 0.61035 g(F)=  0.252E-02 g(S)=  0.000E+00 ort = 0.271E-03 (trialstep = 0.652E+00)
 search vector abs. value=  0.570E-02
 bond charge predicted
       N       E                     dE             d eps       ncg     rms          rms(c)
SOL: 109  -0.18492E+01    0.00000E+00   -0.18492E+01    87
  FERMI_SHIFT =   2.217197341153704E-002
Total rVV10 correction in eV:      3.0368521   114.2904622
DAV:   1    -0.140497348619E+03    0.15514E-02   -0.63709E-01   352   0.338E+00    0.155E-01
SOL: 110  -0.18492E+01    0.00000E+00   -0.18492E+01    82
  FERMI_SHIFT =   2.217196967798757E-002
Total rVV10 correction in eV:      3.0368970   114.2915844
RMM:   2    -0.140499231065E+03   -0.18824E-02   -0.19599E-02   320   0.591E-01    0.844E-02
SOL: 111  -0.18491E+01    0.00000E+00   -0.18491E+01    80
  FERMI_SHIFT =   2.217196559705736E-002
Total rVV10 correction in eV:      3.0368989   114.2914302
RMM:   3    -0.140499193365E+03    0.37700E-04   -0.52381E-04   326   0.827E-02    0.600E-02
SOL: 112  -0.18493E+01    0.00000E+00   -0.18493E+01    83
  FERMI_SHIFT =   2.217037728906165E-002
Total rVV10 correction in eV:      3.0368891   114.2906419
RMM:   4    -0.140499478001E+03   -0.28464E-03   -0.35290E-04   320   0.885E-02    0.140E-02
SOL: 113  -0.18494E+01    0.00000E+00   -0.18494E+01    75
  FERMI_SHIFT =   2.217037824202106E-002
Total rVV10 correction in eV:      3.0368897   114.2906249
RMM:   5    -0.140499477002E+03    0.99905E-06   -0.23251E-05   218   0.235E-02
Total rVV10 correction in eV:      3.0368763   114.2902131
SOL: 114  -0.18497E+01    0.00000E+00   -0.18497E+01    75
  FERMI_SHIFT =   2.217037956558426E-002
Total rVV10 correction in eV:      3.0368900   114.2906197
  10 F= -.14049948E+03 E0= -.14049948E+03  d E =-.573627E-03  mag=    -0.0000
 trial-energy change:   -0.000574  1 .order   -0.000595   -0.001750    0.000561
 step:   0.4935(harm=  0.4935)  dis= 0.00308  next Energy=  -140.499566 (dE=-0.663E-03)
 bond charge predicted
       N       E                     dE             d eps       ncg     rms          rms(c)
SOL: 115  -0.18496E+01    0.00000E+00   -0.18496E+01    80
  FERMI_SHIFT =   2.217039139611390E-002
Total rVV10 correction in eV:      3.0368972   114.2906200
DAV:   1    -0.140499432492E+03    0.45509E-04   -0.37401E-02   368   0.820E-01    0.377E-02
SOL: 116  -0.18497E+01    0.00000E+00   -0.18497E+01    77
  FERMI_SHIFT =   2.217039139528992E-002
Total rVV10 correction in eV:      3.0369004   114.2908024
RMM:   2    -0.140499525183E+03   -0.92691E-04   -0.11205E-03   320   0.145E-01    0.199E-02
SOL: 117  -0.18499E+01    0.00000E+00   -0.18499E+01    73
  FERMI_SHIFT =   2.217039139514285E-002
Total rVV10 correction in eV:      3.0368968   114.2907364
RMM:   3    -0.140499530652E+03   -0.54692E-05   -0.30544E-05   228   0.257E-02
Total rVV10 correction in eV:      3.0368747   114.2902131
SOL: 118  -0.18501E+01    0.00000E+00   -0.18501E+01    76
  FERMI_SHIFT =   2.217039139510965E-002
Total rVV10 correction in eV:      3.0368858   114.2904960
  11 F= -.14049953E+03 E0= -.14049953E+03  d E =-.627278E-03  mag=    -0.0000
 curvature:  -0.52 expect dE=-0.609E-03 dE for cont linesearch -0.716E-06
 trial: gam= 0.51128 g(F)=  0.116E-02 g(S)=  0.000E+00 ort = 0.883E-04 (trialstep = 0.620E+00)
 search vector abs. value=  0.274E-02
 bond charge predicted
       N       E                     dE             d eps       ncg     rms          rms(c)
SOL: 119  -0.18504E+01    0.00000E+00   -0.18504E+01    86
  FERMI_SHIFT =   2.217033612377273E-002
Total rVV10 correction in eV:      3.0368612   114.2904998
DAV:   1    -0.140498806877E+03    0.71831E-03   -0.31413E-01   352   0.236E+00    0.109E-01
SOL: 120  -0.18506E+01    0.00000E+00   -0.18506E+01    80
  FERMI_SHIFT =   2.217033534418603E-002
Total rVV10 correction in eV:      3.0368826   114.2911690
RMM:   2    -0.140499829296E+03   -0.10224E-02   -0.99452E-03   320   0.424E-01    0.542E-02
SOL: 121  -0.18507E+01    0.00000E+00   -0.18507E+01    76
  FERMI_SHIFT =   2.217200211594322E-002
Total rVV10 correction in eV:      3.0368773   114.2910408
RMM:   3    -0.140499808779E+03    0.20517E-04   -0.21704E-04   314   0.588E-02    0.373E-02
SOL: 122  -0.18510E+01    0.00000E+00   -0.18510E+01    80
  FERMI_SHIFT =   2.217200211579665E-002
Total rVV10 correction in eV:      3.0368575   114.2905043
RMM:   4    -0.140499949927E+03   -0.14115E-03   -0.17523E-04   306   0.630E-02    0.849E-03
SOL: 123  -0.18511E+01    0.00000E+00   -0.18511E+01    72
  FERMI_SHIFT =   2.217200211576426E-002
Total rVV10 correction in eV:      3.0368571   114.2904906
RMM:   5    -0.140499951423E+03   -0.14957E-05   -0.16977E-05   218   0.230E-02
Total rVV10 correction in eV:      3.0368473   114.2902131
SOL: 124  -0.18513E+01    0.00000E+00   -0.18513E+01    75
  FERMI_SHIFT =   2.217200306747891E-002
Total rVV10 correction in eV:      3.0368564   114.2904771
  12 F= -.14049995E+03 E0= -.14049995E+03  d E =-.420770E-03  mag=    -0.0000
 trial-energy change:   -0.000421  1 .order   -0.000398   -0.000749   -0.000047
 step:   0.6618(harm=  0.6618)  dis= 0.00372  next Energy=  -140.499930 (dE=-0.400E-03)
 bond charge predicted
       N       E                     dE             d eps       ncg     rms          rms(c)
SOL: 125  -0.18513E+01    0.00000E+00   -0.18513E+01    73
  FERMI_SHIFT =   2.217200672696576E-002
Total rVV10 correction in eV:      3.0368547   114.2904771
DAV:   1    -0.140499950350E+03   -0.42322E-06   -0.14738E-03   352   0.163E-01    0.782E-03
SOL: 126  -0.18514E+01    0.00000E+00   -0.18514E+01    70
  FERMI_SHIFT =   2.217200672671796E-002
Total rVV10 correction in eV:      3.0368549   114.2905027
RMM:   2    -0.140499955200E+03   -0.48495E-05   -0.69561E-05   286   0.407E-02
Total rVV10 correction in eV:      3.0368436   114.2902131
SOL: 127  -0.18515E+01    0.00000E+00   -0.18515E+01    69
  FERMI_SHIFT =   2.217200672666692E-002
Total rVV10 correction in eV:      3.0368541   114.2904919
  13 F= -.14049996E+03 E0= -.14049996E+03  d E =-.424547E-03  mag=    -0.0000
 curvature:  -0.75 expect dE=-0.675E-03 dE for cont linesearch -0.144E-05
 trial: gam= 0.75888 g(F)=  0.897E-03 g(S)=  0.000E+00 ort =-0.725E-04 (trialstep = 0.628E+00)
 search vector abs. value=  0.237E-02
 bond charge predicted
       N       E                     dE             d eps       ncg     rms          rms(c)
SOL: 128  -0.18519E+01    0.00000E+00   -0.18519E+01    86
  FERMI_SHIFT =   2.217200517079695E-002
Total rVV10 correction in eV:      3.0368221   114.2904937
DAV:   1    -0.140498997175E+03    0.95317E-03   -0.26687E-01   352   0.221E+00    0.997E-02
SOL: 129  -0.18522E+01    0.00000E+00   -0.18522E+01    79
  FERMI_SHIFT =   2.217200465700545E-002
Total rVV10 correction in eV:      3.0368462   114.2910851
RMM:   2    -0.140499993642E+03   -0.99647E-03   -0.87398E-03   320   0.395E-01    0.558E-02
SOL: 130  -0.18523E+01    0.00000E+00   -0.18523E+01    77
  FERMI_SHIFT =   2.217200573934276E-002
Total rVV10 correction in eV:      3.0368437   114.2909654
RMM:   3    -0.140499972257E+03    0.21385E-04   -0.21142E-04   314   0.553E-02    0.389E-02
SOL: 131  -0.18527E+01    0.00000E+00   -0.18527E+01    81
  FERMI_SHIFT =   2.217201261607123E-002
Total rVV10 correction in eV:      3.0368311   114.2904713
RMM:   4    -0.140500103816E+03   -0.13156E-03   -0.18919E-04   306   0.624E-02    0.111E-02
SOL: 132  -0.18528E+01    0.00000E+00   -0.18528E+01    73
  FERMI_SHIFT =   2.217201397112140E-002
Total rVV10 correction in eV:      3.0368325   114.2904738
RMM:   5    -0.140500101229E+03    0.25861E-05   -0.13221E-05   212   0.196E-02
Total rVV10 correction in eV:      3.0368286   114.2902131
SOL: 133  -0.18531E+01    0.00000E+00   -0.18531E+01    74
  FERMI_SHIFT =   2.217201397112124E-002
Total rVV10 correction in eV:      3.0368331   114.2904634
  14 F= -.14050010E+03 E0= -.14050010E+03  d E =-.146030E-03  mag=    -0.0000
 trial-energy change:   -0.000146  1 .order   -0.000124   -0.000529    0.000282
 step:   0.4099(harm=  0.4099)  dis= 0.00180  next Energy=  -140.500128 (dE=-0.173E-03)
 bond charge predicted
       N       E                     dE             d eps       ncg     rms          rms(c)
SOL: 134  -0.18529E+01    0.00000E+00   -0.18529E+01    81
  FERMI_SHIFT =   2.217201064300642E-002
Total rVV10 correction in eV:      3.0368443   114.2904640
DAV:   1    -0.140500021273E+03    0.82543E-04   -0.32161E-02   360   0.766E-01    0.344E-02
SOL: 135  -0.18529E+01    0.00000E+00   -0.18529E+01    75
  FERMI_SHIFT =   2.217033690822054E-002
Total rVV10 correction in eV:      3.0368471   114.2906225
RMM:   2    -0.140500127439E+03   -0.10617E-03   -0.10374E-03   320   0.139E-01    0.186E-02
SOL: 136  -0.18530E+01    0.00000E+00   -0.18530E+01    71
  FERMI_SHIFT =   2.217200808739773E-002
Total rVV10 correction in eV:      3.0368452   114.2905689
RMM:   3    -0.140500130434E+03   -0.29957E-05   -0.24639E-05   220   0.244E-02
Total rVV10 correction in eV:      3.0368331   114.2902131
SOL: 137  -0.18531E+01    0.00000E+00   -0.18531E+01    75
  FERMI_SHIFT =   2.217033690815190E-002
Total rVV10 correction in eV:      3.0368384   114.2903694
  15 F= -.14050013E+03 E0= -.14050013E+03  d E =-.175235E-03  mag=    -0.0000
 curvature:  -0.58 expect dE=-0.328E-03 dE for cont linesearch -0.110E-05
 trial: gam= 0.59659 g(F)=  0.569E-03 g(S)=  0.000E+00 ort = 0.673E-04 (trialstep = 0.585E+00)
 search vector abs. value=  0.149E-02
 bond charge predicted
       N       E                     dE             d eps       ncg     rms          rms(c)
SOL: 138  -0.18534E+01    0.00000E+00   -0.18534E+01    84
  FERMI_SHIFT =   2.217199881596832E-002
Total rVV10 correction in eV:      3.0368221   114.2903723
DAV:   1    -0.140499571453E+03    0.55599E-03   -0.15502E-01   320   0.168E+00    0.788E-02
SOL: 139  -0.18534E+01    0.00000E+00   -0.18534E+01    79
  FERMI_SHIFT =   2.217034512595936E-002
Total rVV10 correction in eV:      3.0368418   114.2908307
RMM:   2    -0.140500151657E+03   -0.58020E-03   -0.52266E-03   320   0.310E-01    0.417E-02
SOL: 140  -0.18534E+01    0.00000E+00   -0.18534E+01    77
  FERMI_SHIFT =   2.217034338946353E-002
Total rVV10 correction in eV:      3.0368411   114.2907372
RMM:   3    -0.140500132562E+03    0.19096E-04   -0.12014E-04   304   0.449E-02    0.285E-02
SOL: 141  -0.18534E+01    0.00000E+00   -0.18534E+01    80
  FERMI_SHIFT =   2.217199399415504E-002
Total rVV10 correction in eV:      3.0368350   114.2903990
RMM:   4    -0.140500204269E+03   -0.71708E-04   -0.10086E-04   298   0.492E-02    0.555E-03
SOL: 142  -0.18535E+01    0.00000E+00   -0.18535E+01    73
  FERMI_SHIFT =   2.217034183679290E-002
Total rVV10 correction in eV:      3.0368359   114.2903904
RMM:   5    -0.140500205171E+03   -0.90189E-06   -0.19376E-05   223   0.247E-02
Total rVV10 correction in eV:      3.0368322   114.2902132
SOL: 143  -0.18537E+01    0.00000E+00   -0.18537E+01    74
  FERMI_SHIFT =   2.217199497664823E-002
Total rVV10 correction in eV:      3.0368368   114.2903966
  16 F= -.14050021E+03 E0= -.14050021E+03  d E =-.747367E-04  mag=    -0.0000
 trial-energy change:   -0.000075  1 .order   -0.000064   -0.000356    0.000228
 step:   0.3564(harm=  0.3564)  dis= 0.00158  next Energy=  -140.500239 (dE=-0.109E-03)
 bond charge predicted
       N       E                     dE             d eps       ncg     rms          rms(c)
SOL: 144  -0.18535E+01    0.00000E+00   -0.18535E+01    80
  FERMI_SHIFT =   2.217199995418459E-002
Total rVV10 correction in eV:      3.0368433   114.2903970
DAV:   1    -0.140500161629E+03    0.42640E-04   -0.23408E-02   360   0.653E-01    0.307E-02
SOL: 145  -0.18535E+01    0.00000E+00   -0.18535E+01    74
  FERMI_SHIFT =   2.217033550889641E-002
Total rVV10 correction in eV:      3.0368455   114.2905439
RMM:   2    -0.140500238251E+03   -0.76622E-04   -0.78696E-04   320   0.124E-01    0.158E-02
SOL: 146  -0.18536E+01    0.00000E+00   -0.18536E+01    71
  FERMI_SHIFT =   2.217033550893543E-002
Total rVV10 correction in eV:      3.0368434   114.2905008
RMM:   3    -0.140500240389E+03   -0.21377E-05   -0.24870E-05   225   0.262E-02
Total rVV10 correction in eV:      3.0368314   114.2902131
SOL: 147  -0.18536E+01    0.00000E+00   -0.18536E+01    74
  FERMI_SHIFT =   2.217200174525430E-002
Total rVV10 correction in eV:      3.0368371   114.2903451
  17 F= -.14050024E+03 E0= -.14050024E+03  d E =-.109954E-03  mag=    -0.0000
 curvature:  -0.44 expect dE=-0.123E-03 dE for cont linesearch -0.284E-07
 trial: gam= 0.54620 g(F)=  0.283E-03 g(S)=  0.000E+00 ort = 0.985E-05 (trialstep = 0.539E+00)
 search vector abs. value=  0.739E-03
 bond charge predicted
       N       E                     dE             d eps       ncg     rms          rms(c)
SOL: 148  -0.18537E+01    0.00000E+00   -0.18537E+01    81
  FERMI_SHIFT =   2.217198940371878E-002
Total rVV10 correction in eV:      3.0368398   114.2903461
DAV:   1    -0.140500075918E+03    0.16233E-03   -0.64580E-02   320   0.110E+00    0.478E-02
SOL: 149  -0.18537E+01    0.00000E+00   -0.18537E+01    76
  FERMI_SHIFT =   2.217034775476739E-002
Total rVV10 correction in eV:      3.0368470   114.2906491
RMM:   2    -0.140500313832E+03   -0.23791E-03   -0.21225E-03   320   0.204E-01    0.259E-02
SOL: 150  -0.18537E+01    0.00000E+00   -0.18537E+01    73
  FERMI_SHIFT =   2.217034775457158E-002
Total rVV10 correction in eV:      3.0368459   114.2905927
RMM:   3    -0.140500309500E+03    0.43316E-05   -0.58386E-05   268   0.363E-02
Total rVV10 correction in eV:      3.0368354   114.2902132
SOL: 151  -0.18537E+01    0.00000E+00   -0.18537E+01    77
  FERMI_SHIFT =   2.217198755386253E-002
Total rVV10 correction in eV:      3.0368378   114.2902935
  18 F= -.14050031E+03 E0= -.14050031E+03  d E =-.691113E-04  mag=     0.0000
 trial-energy change:   -0.000069  1 .order   -0.000085   -0.000155   -0.000016
 step:   0.5991(harm=  0.5991)  dis= 0.00137  next Energy=  -140.500327 (dE=-0.863E-04)
 bond charge predicted
       N       E                     dE             d eps       ncg     rms          rms(c)
SOL: 152  -0.18537E+01    0.00000E+00   -0.18537E+01    71
  FERMI_SHIFT =   2.217198577125588E-002
Total rVV10 correction in eV:      3.0368381   114.2902935
DAV:   1    -0.140500360520E+03   -0.46688E-04   -0.76533E-04   352   0.123E-01    0.690E-03
SOL: 153  -0.18538E+01    0.00000E+00   -0.18538E+01    69
  FERMI_SHIFT =   2.217198398486771E-002
Total rVV10 correction in eV:      3.0368381   114.2903181
RMM:   2    -0.140500361370E+03   -0.85072E-06   -0.98463E-05   247   0.497E-02
Total rVV10 correction in eV:      3.0368343   114.2902132
SOL: 154  -0.18538E+01    0.00000E+00   -0.18538E+01    68
  FERMI_SHIFT =   2.217198212439273E-002
Total rVV10 correction in eV:      3.0368373   114.2903004
  19 F= -.14050036E+03 E0= -.14050036E+03  d E =-.120982E-03  mag=     0.0000
 curvature:  -0.77 expect dE=-0.117E-03 dE for cont linesearch -0.229E-06
 trial: gam= 0.36581 g(F)=  0.153E-03 g(S)=  0.000E+00 ort = 0.148E-04 (trialstep = 0.551E+00)
 search vector abs. value=  0.262E-03
 bond charge predicted
       N       E                     dE             d eps       ncg     rms          rms(c)
SOL: 155  -0.18537E+01    0.00000E+00   -0.18537E+01    79
  FERMI_SHIFT =   2.217037030548141E-002
Total rVV10 correction in eV:      3.0368422   114.2903006
DAV:   1    -0.140500320920E+03    0.39600E-04   -0.22818E-02   352   0.638E-01    0.310E-02
SOL: 156  -0.18537E+01    0.00000E+00   -0.18537E+01    75
  FERMI_SHIFT =   2.217197514080987E-002
Total rVV10 correction in eV:      3.0368436   114.2904749
RMM:   2    -0.140500396654E+03   -0.75734E-04   -0.79747E-04   320   0.123E-01    0.173E-02
SOL: 157  -0.18537E+01    0.00000E+00   -0.18537E+01    72
  FERMI_SHIFT =   2.217197514096886E-002
Total rVV10 correction in eV:      3.0368417   114.2904418
RMM:   3    -0.140500392603E+03    0.40517E-05   -0.30008E-05   230   0.284E-02
Total rVV10 correction in eV:      3.0368295   114.2902132
SOL: 158  -0.18538E+01    0.00000E+00   -0.18538E+01    76
  FERMI_SHIFT =   2.217036552833040E-002
Total rVV10 correction in eV:      3.0368349   114.2902966
  20 F= -.14050039E+03 E0= -.14050039E+03  d E =-.312323E-04  mag=    -0.0000
 trial-energy change:   -0.000031  1 .order   -0.000049   -0.000087   -0.000011
 step:   0.6309(harm=  0.6309)  dis= 0.00080  next Energy=  -140.500411 (dE=-0.499E-04)
 bond charge predicted
       N       E                     dE             d eps       ncg     rms          rms(c)
SOL: 159  -0.18537E+01    0.00000E+00   -0.18537E+01    70
  FERMI_SHIFT =   2.217036713054382E-002
Total rVV10 correction in eV:      3.0368356   114.2902966
DAV:   1    -0.140500418219E+03   -0.21564E-04   -0.48699E-04   336   0.969E-02    0.561E-03
SOL: 160  -0.18537E+01    0.00000E+00   -0.18537E+01    69
  FERMI_SHIFT =   2.217196992779674E-002
Total rVV10 correction in eV:      3.0368347   114.2903218
RMM:   2    -0.140500417427E+03    0.79165E-06   -0.95773E-05   242   0.474E-02
Total rVV10 correction in eV:      3.0368289   114.2902132
SOL: 161  -0.18537E+01    0.00000E+00   -0.18537E+01    67
  FERMI_SHIFT =   2.217196992782419E-002
Total rVV10 correction in eV:      3.0368337   114.2903166
  21 F= -.14050042E+03 E0= -.14050042E+03  d E =-.560567E-04  mag=    -0.0000
 curvature:  -0.52 expect dE=-0.117E-03 dE for cont linesearch -0.339E-07
 trial: gam= 1.61322 g(F)=  0.224E-03 g(S)=  0.000E+00 ort =-0.413E-05 (trialstep = 0.166E+00)
 search vector abs. value=  0.894E-03
 bond charge predicted
       N       E                     dE             d eps       ncg     rms          rms(c)
SOL: 162  -0.18537E+01    0.00000E+00   -0.18537E+01    76
  FERMI_SHIFT =   2.217196096304885E-002
Total rVV10 correction in eV:      3.0368335   114.2903167
DAV:   1    -0.140500417322E+03    0.89643E-06   -0.77977E-03   352   0.369E-01    0.169E-02
SOL: 163  -0.18537E+01    0.00000E+00   -0.18537E+01    71
  FERMI_SHIFT =   2.217196211121877E-002
Total rVV10 correction in eV:      3.0368359   114.2904132
RMM:   2    -0.140500442169E+03   -0.24847E-04   -0.27792E-04   320   0.750E-02    0.944E-03
SOL: 164  -0.18536E+01    0.00000E+00   -0.18536E+01    69
  FERMI_SHIFT =   2.217196211132452E-002
Total rVV10 correction in eV:      3.0368353   114.2903951
RMM:   3    -0.140500440881E+03    0.12883E-05   -0.16339E-05   222   0.221E-02
Total rVV10 correction in eV:      3.0368290   114.2902132
SOL: 165  -0.18536E+01    0.00000E+00   -0.18536E+01    73
  FERMI_SHIFT =   2.217196211134762E-002
Total rVV10 correction in eV:      3.0368324   114.2903090
  22 F= -.14050044E+03 E0= -.14050044E+03  d E =-.234537E-04  mag=     0.0000
 ZBRENT: can't locate minimum, use default step
 trial-energy change:   -0.000023  1 .order   -0.000032   -0.000036   -0.000027
 step:   0.6657(harm=  0.6784)  dis= 0.00187  next Energy=  -140.500491 (dE=-0.738E-04)
 bond charge predicted
       N       E                     dE             d eps       ncg     rms          rms(c)
SOL: 166  -0.18535E+01    0.00000E+00   -0.18535E+01    81
  FERMI_SHIFT =   2.217193578937440E-002
Total rVV10 correction in eV:      3.0368317   114.2903109
DAV:   1    -0.140500205536E+03    0.23663E-03   -0.69334E-02   320   0.110E+00    0.493E-02
SOL: 167  -0.18535E+01    0.00000E+00   -0.18535E+01    76
  FERMI_SHIFT =   2.217039342758192E-002
Total rVV10 correction in eV:      3.0368405   114.2906479
RMM:   2    -0.140500451200E+03   -0.24566E-03   -0.22177E-03   320   0.202E-01    0.261E-02
SOL: 168  -0.18534E+01    0.00000E+00   -0.18534E+01    73
  FERMI_SHIFT =   2.217194282657567E-002
Total rVV10 correction in eV:      3.0368393   114.2906016
RMM:   3    -0.140500444234E+03    0.69664E-05   -0.66800E-05   253   0.378E-02
Total rVV10 correction in eV:      3.0368269   114.2902133
SOL: 169  -0.18533E+01    0.00000E+00   -0.18533E+01    77
  FERMI_SHIFT =   2.217194159752039E-002
Total rVV10 correction in eV:      3.0368323   114.2903635
  23 F= -.14050044E+03 E0= -.14050044E+03  d E =-.268064E-04  mag=    -0.0000
 curvature:  -1.39 expect dE=-0.547E-03 dE for cont linesearch -0.354E-05
 ZBRENT: interpolating
 opt :   0.5534  next Energy=  -140.500447 (dE=-0.295E-04)
 bond charge predicted
       N       E                     dE             d eps       ncg     rms          rms(c)
SOL: 170  -0.18533E+01    0.00000E+00   -0.18533E+01    74
  FERMI_SHIFT =   2.217194707974182E-002
Total rVV10 correction in eV:      3.0368324   114.2903635
DAV:   1    -0.140500474042E+03   -0.22842E-04   -0.38948E-03   352   0.266E-01    0.109E-02
SOL: 171  -0.18533E+01    0.00000E+00   -0.18533E+01    71
  FERMI_SHIFT =   2.217194707938736E-002
Total rVV10 correction in eV:      3.0368332   114.2904071
RMM:   2    -0.140500488814E+03   -0.14771E-04   -0.24463E-04   320   0.746E-02    0.693E-03
SOL: 172  -0.18533E+01    0.00000E+00   -0.18533E+01    68
  FERMI_SHIFT =   2.217194707931738E-002
Total rVV10 correction in eV:      3.0368327   114.2903996
RMM:   3    -0.140500483129E+03    0.56847E-05   -0.36784E-05   230   0.308E-02
Total rVV10 correction in eV:      3.0368265   114.2902133
SOL: 173  -0.18532E+01    0.00000E+00   -0.18532E+01    70
  FERMI_SHIFT =   2.217039017357270E-002
Total rVV10 correction in eV:      3.0368308   114.2903537
  24 F= -.14050048E+03 E0= -.14050048E+03  d E =-.657020E-04  mag=     0.0000
 curvature:  -1.05 expect dE=-0.301E-03 dE for cont linesearch -0.141E-05
 trial: gam= 1.10578 g(F)=  0.286E-03 g(S)=  0.000E+00 ort = 0.346E-04 (trialstep = 0.150E+00)
 search vector abs. value=  0.146E-02
 bond charge predicted
       N       E                     dE             d eps       ncg     rms          rms(c)
SOL: 174  -0.18532E+01    0.00000E+00   -0.18532E+01    76
  FERMI_SHIFT =   2.217040102335954E-002
Total rVV10 correction in eV:      3.0368279   114.2903538
DAV:   1    -0.140500488239E+03    0.57473E-06   -0.11078E-02   320   0.439E-01    0.186E-02
SOL: 175  -0.18532E+01    0.00000E+00   -0.18532E+01    72
  FERMI_SHIFT =   2.217193635059711E-002
Total rVV10 correction in eV:      3.0368315   114.2904390
RMM:   2    -0.140500529427E+03   -0.41187E-04   -0.46031E-04   320   0.996E-02    0.933E-03
SOL: 176  -0.18532E+01    0.00000E+00   -0.18532E+01    69
  FERMI_SHIFT =   2.217193635071124E-002
Total rVV10 correction in eV:      3.0368313   114.2904194
RMM:   3    -0.140500525567E+03    0.38599E-05   -0.46067E-05   234   0.344E-02
Total rVV10 correction in eV:      3.0368259   114.2902133
SOL: 177  -0.18531E+01    0.00000E+00   -0.18531E+01    72
  FERMI_SHIFT =   2.217040381656990E-002
Total rVV10 correction in eV:      3.0368293   114.2903332
  25 F= -.14050053E+03 E0= -.14050053E+03  d E =-.424375E-04  mag=    -0.0000
 trial-energy change:   -0.000042  1 .order   -0.000042   -0.000049   -0.000035
 step:   0.5242(harm=  0.5242)  dis= 0.00163  next Energy=  -140.500568 (dE=-0.851E-04)
 bond charge predicted
       N       E                     dE             d eps       ncg     rms          rms(c)
SOL: 178  -0.18532E+01    0.00000E+00   -0.18532E+01    80
  FERMI_SHIFT =   2.217043220874537E-002
Total rVV10 correction in eV:      3.0368219   114.2903339
DAV:   1    -0.140500302808E+03    0.22662E-03   -0.68008E-02   320   0.108E+00    0.466E-02
SOL: 179  -0.18531E+01    0.00000E+00   -0.18531E+01    76
  FERMI_SHIFT =   2.217190883812542E-002
Total rVV10 correction in eV:      3.0368339   114.2906549
RMM:   2    -0.140500555878E+03   -0.25307E-03   -0.22516E-03   320   0.208E-01    0.250E-02
SOL: 180  -0.18530E+01    0.00000E+00   -0.18530E+01    74
  FERMI_SHIFT =   2.217042882743062E-002
Total rVV10 correction in eV:      3.0368333   114.2906011
RMM:   3    -0.140500550610E+03    0.52671E-05   -0.91351E-05   255   0.458E-02
Total rVV10 correction in eV:      3.0368236   114.2902133
SOL: 181  -0.18529E+01    0.00000E+00   -0.18529E+01    78
  FERMI_SHIFT =   2.217188911895475E-002
Total rVV10 correction in eV:      3.0368275   114.2903459
  26 F= -.14050055E+03 E0= -.14050055E+03  d E =-.674813E-04  mag=     0.0000
 curvature:  -1.18 expect dE=-0.292E-03 dE for cont linesearch -0.909E-06
 trial: gam= 0.78052 g(F)=  0.248E-03 g(S)=  0.000E+00 ort = 0.335E-04 (trialstep = 0.225E+00)
 search vector abs. value=  0.119E-02
 bond charge predicted
       N       E                     dE             d eps       ncg     rms          rms(c)
SOL: 182  -0.18529E+01    0.00000E+00   -0.18529E+01    79
  FERMI_SHIFT =   2.217187431151388E-002
Total rVV10 correction in eV:      3.0368226   114.2903461
DAV:   1    -0.140500548907E+03    0.69709E-05   -0.19475E-02   320   0.572E-01    0.236E-02
SOL: 183  -0.18530E+01    0.00000E+00   -0.18530E+01    74
  FERMI_SHIFT =   2.217046323361282E-002
Total rVV10 correction in eV:      3.0368261   114.2904899
RMM:   2    -0.140500652019E+03   -0.10311E-03   -0.73663E-04   320   0.126E-01    0.121E-02
SOL: 184  -0.18530E+01    0.00000E+00   -0.18530E+01    72
  FERMI_SHIFT =   2.217046323350122E-002
Total rVV10 correction in eV:      3.0368247   114.2904606
RMM:   3    -0.140500644994E+03    0.70249E-05   -0.93915E-05   242   0.456E-02
Total rVV10 correction in eV:      3.0368150   114.2902133
SOL: 185  -0.18530E+01    0.00000E+00   -0.18530E+01    75
  FERMI_SHIFT =   2.217187431223161E-002
Total rVV10 correction in eV:      3.0368204   114.2903528
  27 F= -.14050064E+03 E0= -.14050064E+03  d E =-.943835E-04  mag=    -0.0000
 ZBRENT: can't locate minimum, use default step
 trial-energy change:   -0.000094  1 .order   -0.000056   -0.000062   -0.000050
 step:   0.8984(harm=  1.1549)  dis= 0.00319  next Energy=  -140.500709 (dE=-0.158E-03)
 reached required accuracy - stopping structural energy minimisation
 writing wavefunctions
SOL: 186  -0.18530E+01    0.00000E+00   -0.18530E+01     0
  FERMI_SHIFT =   2.217187431223178E-002
TACC:  Shutdown complete. Exiting. 
Job finished on c498-134.stampede2.tacc.utexas.edu at Fri May 21 10:07:44 CDT 2021
/tmp/slurmd/job7740871/slurm_script: line 17: /home1/07906/yc116: Is a directory
