 vasp.5.4.4.18Apr17-6-g9f103f2a35 (build May 01 2020 14:57:12) complex          
  
 executed on             LinuxIFC date 2021.05.21  02:20:36
 running on   48 total cores
 distrk:  each k-point on   48 cores,    1 groups
 distr:  one band on NCORES_PER_BAND=  12 cores,    4 groups


--------------------------------------------------------------------------------------------------------


 INCAR:
 POTCAR:    PAW_PBE C 08Apr2002                   
 POTCAR:    PAW_PBE F 08Apr2002                   
 POTCAR:    PAW_PBE O 08Apr2002                   

 ----------------------------------------------------------------------------- 
|                                                                             |
|  ADVICE TO THIS USER RUNNING 'VASP/VAMP'   (HEAR YOUR MASTER'S VOICE ...):  |
|                                                                             |
|      You have switched on vdW-DFT.                                          |
|      This routine was written and supplied by Jiri Klimes.                  |
|      We recommed that you carefully read and cite the following             |
|      publication                                                            |
|      J. Klimes, D.R. Bowler, A. Michelides                                  |
|        J. Phys.: Cond Matt. 22 022201 (2010)                                |
|      J. Klimes, D.R. Bowler, A. Michelides                                  |
|        Phys. Rev. B. 83, 195131 (2011)                                      |
|      and references therein.                                                |
|                                                                             |
 ----------------------------------------------------------------------------- 

 POTCAR:    PAW_PBE C 08Apr2002                   
   VRHFIN =C: s2p2                                                              
   LEXCH  = PE                                                                  
   EATOM  =   147.1560 eV,   10.8157 Ry                                         
                                                                                
   TITEL  = PAW_PBE C 08Apr2002                                                 
   LULTRA =        F    use ultrasoft PP ?                                      
   IUNSCR =        1    unscreen: 0-lin 1-nonlin 2-no                           
   RPACOR =    1.200    partial core radius                                     
   POMASS =   12.011; ZVAL   =    4.000    mass and valenz                      
   RCORE  =    1.500    outmost cutoff radius                                   
   RWIGS  =    1.630; RWIGS  =    0.863    wigner-seitz radius (au A)           
   ENMAX  =  400.000; ENMIN  =  300.000 eV                                      
   ICORE  =        2    local potential                                         
   LCOR   =        T    correct aug charges                                     
   LPAW   =        T    paw PP                                                  
   EAUG   =  644.873                                                            
   DEXC   =    0.000                                                            
   RMAX   =    1.529    core radius for proj-oper                               
   RAUG   =    1.300    factor for augmentation sphere                          
   RDEP   =    1.501    radius for radial grids                                 
   RDEPT  =    1.300    core radius for aug-charge                              
                                                                                
   Atomic configuration                                                         
    4 entries                                                                   
     n  l   j            E        occ.                                          
     1  0  0.50      -273.3789   2.0000                                         
     2  0  0.50       -13.7508   2.0000                                         
     2  1  0.50        -5.2854   2.0000                                         
     3  2  1.50        -5.4423   0.0000                                         
   Description                                                                  
     l       E           TYP  RCUT    TYP  RCUT                                 
     0    -13.7508458     23  1.200                                             
     0     -8.2022199     23  1.200                                             
     1     -5.2854383     23  1.500                                             
     1     34.0145650     23  1.500                                             
     2     -5.4423304      7  1.500                                             
  local pseudopotential read in
  partial core-charges read in
  partial kinetic energy density read in
  atomic valenz-charges read in
  non local Contribution for L=           0  read in
    real space projection operators read in
  non local Contribution for L=           0  read in
    real space projection operators read in
  non local Contribution for L=           1  read in
    real space projection operators read in
  non local Contribution for L=           1  read in
    real space projection operators read in
    PAW grid and wavefunctions read in
 
   number of l-projection  operators is LMAX  =           4
   number of lm-projection operators is LMMAX =           8
 
 POTCAR:    PAW_PBE F 08Apr2002                   
   VRHFIN =F: s2p5                                                              
   LEXCH  = PE                                                                  
   EATOM  =   659.6475 eV,   48.4827 Ry                                         
                                                                                
   TITEL  = PAW_PBE F 08Apr2002                                                 
   LULTRA =        F    use ultrasoft PP ?                                      
   IUNSCR =        1    unscreen: 0-lin 1-nonlin 2-no                           
   RPACOR =    1.200    partial core radius                                     
   POMASS =   18.998; ZVAL   =    7.000    mass and valenz                      
   RCORE  =    1.520    outmost cutoff radius                                   
   RWIGS  =    1.500; RWIGS  =    0.794    wigner-seitz radius (au A)           
   ENMAX  =  400.000; ENMIN  =  300.000 eV                                      
   ICORE  =        2    local potential                                         
   LCOR   =        T    correct aug charges                                     
   LPAW   =        T    paw PP                                                  
   EAUG   =  613.614                                                            
   RMAX   =    1.555    core radius for proj-oper                               
   RAUG   =    1.300    factor for augmentation sphere                          
   RDEP   =    1.539    radius for radial grids                                 
   RDEPT  =    1.299    core radius for aug-charge                              
                                                                                
   Atomic configuration                                                         
    4 entries                                                                   
     n  l   j            E        occ.                                          
     1  0  0.50      -663.3661   2.0000                                         
     2  0  0.50       -29.8995   2.0000                                         
     2  1  0.50       -11.1114   5.0000                                         
     3  2  1.50       -10.8847   0.0000                                         
   Description                                                                  
     l       E           TYP  RCUT    TYP  RCUT                                 
     0    -29.8995018     23  1.200                                             
     0     -9.5240782     23  1.200                                             
     1    -11.1113914     23  1.520                                             
     1      1.3605826     23  1.520                                             
     2    -10.8846608      7  1.500                                             
  local pseudopotential read in
  partial core-charges read in
  partial kinetic energy density read in
  atomic valenz-charges read in
  non local Contribution for L=           0  read in
    real space projection operators read in
  non local Contribution for L=           0  read in
    real space projection operators read in
  non local Contribution for L=           1  read in
    real space projection operators read in
  non local Contribution for L=           1  read in
    real space projection operators read in
    PAW grid and wavefunctions read in
 
   number of l-projection  operators is LMAX  =           4
   number of lm-projection operators is LMMAX =           8
 
 POTCAR:    PAW_PBE O 08Apr2002                   
   VRHFIN =O: s2p4                                                              
   LEXCH  = PE                                                                  
   EATOM  =   432.3788 eV,   31.7789 Ry                                         
                                                                                
   TITEL  = PAW_PBE O 08Apr2002                                                 
   LULTRA =        F    use ultrasoft PP ?                                      
   IUNSCR =        1    unscreen: 0-lin 1-nonlin 2-no                           
   RPACOR =    1.200    partial core radius                                     
   POMASS =   16.000; ZVAL   =    6.000    mass and valenz                      
   RCORE  =    1.520    outmost cutoff radius                                   
   RWIGS  =    1.550; RWIGS  =    0.820    wigner-seitz radius (au A)           
   ENMAX  =  400.000; ENMIN  =  300.000 eV                                      
   ICORE  =        2    local potential                                         
   LCOR   =        T    correct aug charges                                     
   LPAW   =        T    paw PP                                                  
   EAUG   =  605.392                                                            
   DEXC   =    0.000                                                            
   RMAX   =    1.553    core radius for proj-oper                               
   RAUG   =    1.300    factor for augmentation sphere                          
   RDEP   =    1.550    radius for radial grids                                 
   RDEPT  =    1.329    core radius for aug-charge                              
                                                                                
   Atomic configuration                                                         
    4 entries                                                                   
     n  l   j            E        occ.                                          
     1  0  0.50      -514.6923   2.0000                                         
     2  0  0.50       -23.9615   2.0000                                         
     2  1  0.50        -9.0305   4.0000                                         
     3  2  1.50        -9.5241   0.0000                                         
   Description                                                                  
     l       E           TYP  RCUT    TYP  RCUT                                 
     0    -23.9615318     23  1.200                                             
     0     -9.5240782     23  1.200                                             
     1     -9.0304911     23  1.520                                             
     1      8.1634956     23  1.520                                             
     2     -9.5240782      7  1.500                                             
  local pseudopotential read in
  partial core-charges read in
  partial kinetic energy density read in
  kinetic energy density of atom read in
  atomic valenz-charges read in
  non local Contribution for L=           0  read in
    real space projection operators read in
  non local Contribution for L=           0  read in
    real space projection operators read in
  non local Contribution for L=           1  read in
    real space projection operators read in
  non local Contribution for L=           1  read in
    real space projection operators read in
    PAW grid and wavefunctions read in
 
   number of l-projection  operators is LMAX  =           4
   number of lm-projection operators is LMMAX =           8
 
 Optimization of the real space projectors (new method)

 maximal supplied QI-value         = 25.13
 optimisation between [QCUT,QGAM] = [ 11.81, 23.88] = [ 39.08,159.64] Ry 
 Optimized for a Real-space Cutoff    1.18 Angstroem

   l    n(q)    QCUT    max X(q) W(low)/X(q) W(high)/X(q)  e(spline) 
   0      8    11.813   115.676    0.10E-03    0.16E-03    0.35E-06
   0      8    11.813    87.132    0.10E-03    0.16E-03    0.35E-06
   1      8    11.813     4.429    0.16E-03    0.13E-04    0.22E-06
   1      8    11.813     2.733    0.13E-03    0.10E-04    0.18E-06
 Optimization of the real space projectors (new method)

 maximal supplied QI-value         = 24.76
 optimisation between [QCUT,QGAM] = [ 11.88, 24.01] = [ 39.54,161.47] Ry 
 Optimized for a Real-space Cutoff    1.18 Angstroem

   l    n(q)    QCUT    max X(q) W(low)/X(q) W(high)/X(q)  e(spline) 
   0      8    11.883    14.049    0.56E-04    0.86E-04    0.22E-06
   0      8    11.883     8.945    0.81E-04    0.11E-03    0.30E-06
   1      8    11.883     7.086    0.16E-03    0.15E-04    0.31E-06
   1      8    11.883     6.747    0.15E-03    0.14E-04    0.28E-06
 Optimization of the real space projectors (new method)

 maximal supplied QI-value         = 24.76
 optimisation between [QCUT,QGAM] = [ 11.88, 24.01] = [ 39.54,161.47] Ry 
 Optimized for a Real-space Cutoff    1.18 Angstroem

   l    n(q)    QCUT    max X(q) W(low)/X(q) W(high)/X(q)  e(spline) 
   0      8    11.883    20.381    0.86E-04    0.11E-03    0.31E-06
   0      8    11.883    15.268    0.94E-04    0.12E-03    0.33E-06
   1      8    11.883     5.964    0.19E-03    0.18E-04    0.33E-06
   1      8    11.883     5.382    0.17E-03    0.20E-04    0.29E-06
  PAW_PBE C 08Apr2002                   :
 energy of atom  1       EATOM= -147.1560
 kinetic energy error for atom=    0.0066 (will be added to EATOM!!)
  PAW_PBE F 08Apr2002                   :
 energy of atom  2       EATOM= -659.6475
 kinetic energy error for atom=    0.0296 (will be added to EATOM!!)
  PAW_PBE O 08Apr2002                   :
 energy of atom  3       EATOM= -432.3788
 kinetic energy error for atom=    0.0194 (will be added to EATOM!!)
 
 
 POSCAR: C F O                                   
  positions in direct lattice
  velocities in cartesian coordinates

 METAGGA = SCAN     LMAXTAU =  6    LMIXTAU =  F

 exchange correlation table for  LEXCH =        8
   RHO(1)=    0.500       N(1)  =     2000
   RHO(2)=  100.500       N(2)  =     4000
 


--------------------------------------------------------------------------------------------------------


 ion  position               nearest neighbor table
   1  0.495  0.606  0.512-   8 1.34   7 1.34   9 1.35   2 1.55
   2  0.528  0.559  0.502-  10 1.35  11 1.36   1 1.55   3 1.55
   3  0.488  0.514  0.500-  13 1.36  12 1.36   4 1.55   2 1.55
   4  0.521  0.466  0.508-  14 1.36  15 1.36   5 1.54   3 1.55
   5  0.487  0.421  0.490-  17 1.38  16 1.38   4 1.54   6 1.57
   6  0.512  0.374  0.517-  19 1.24  18 1.24   5 1.57
   7  0.450  0.611  0.476-   1 1.34
   8  0.476  0.610  0.567-   1 1.34
   9  0.531  0.643  0.503-   1 1.35
  10  0.555  0.564  0.451-   2 1.35
  11  0.567  0.555  0.544-   2 1.36
  12  0.448  0.520  0.542-   3 1.36
  13  0.461  0.515  0.448-   3 1.36
  14  0.570  0.470  0.478-   4 1.36
  15  0.534  0.463  0.565-   4 1.36
  16  0.431  0.430  0.506-   5 1.38
  17  0.487  0.419  0.431-   5 1.38
  18  0.563  0.368  0.503-   6 1.24
  19  0.477  0.350  0.546-   6 1.24
 
  LATTYP: Found a simple orthorhombic cell.
 ALAT       =    23.1822397300
 B/A-ratio  =     1.0035054314
 C/A-ratio  =     1.2095367349
  
  Lattice vectors:
  
 A1 = (   0.0000000000,   0.0000000000,  23.1822397300)
 A2 = ( -23.2635034800,   0.0000000000,   0.0000000000)
 A3 = (   0.0000000000, -28.0397705500,   0.0000000000)


Analysis of symmetry for initial positions (statically):
=====================================================================
 Subroutine PRICEL returns:
 Original cell was already a primitive cell.
 

 Routine SETGRP: Setting up the symmetry group for a 
 simple orthorhombic supercell.


 Subroutine GETGRP returns: Found  1 space group operations
 (whereof  1 operations were pure point group operations)
 out of a pool of  8 trial point group operations.


The static configuration has the point symmetry C_1 .


Analysis of symmetry for dynamics (positions and initial velocities):
=====================================================================
 Subroutine PRICEL returns:
 Original cell was already a primitive cell.
 

 Routine SETGRP: Setting up the symmetry group for a 
 simple orthorhombic supercell.


 Subroutine GETGRP returns: Found  1 space group operations
 (whereof  1 operations were pure point group operations)
 out of a pool of  8 trial point group operations.


The dynamic configuration has the point symmetry C_1 .


Analysis of constrained symmetry for selective dynamics:
=====================================================================
 Subroutine PRICEL returns:
 Original cell was already a primitive cell.
 

 Routine SETGRP: Setting up the symmetry group for a 
 simple orthorhombic supercell.


 Subroutine GETGRP returns: Found  1 space group operations
 (whereof  1 operations were pure point group operations)
 out of a pool of  8 trial point group operations.


The constrained configuration has the point symmetry C_1 .


Analysis of structural, dynamic, and magnetic symmetry:
=====================================================================
 Subroutine PRICEL returns:
 Original cell was already a primitive cell.
 

 Routine SETGRP: Setting up the symmetry group for a 
 simple orthorhombic supercell.


 Subroutine GETGRP returns: Found  1 space group operations
 (whereof  1 operations were pure point group operations)
 out of a pool of  8 trial point group operations.


The magnetic configuration has the point symmetry C_1 .


 Subroutine INISYM returns: Found  1 space group operations
 (whereof  1 operations are pure point group operations),
 and found     1 'primitive' translations

 
 
 KPOINTS: K-Point Grid                            

Automatic generation of k-mesh.
Space group operators:
 irot       det(A)        alpha          n_x          n_y          n_z        tau_x        tau_y        tau_z
    1     1.000000     0.000000     1.000000     0.000000     0.000000     0.000000     0.000000     0.000000
 
 Subroutine IBZKPT returns following result:
 ===========================================
 
 Found      1 irreducible k-points:
 
 Following reciprocal coordinates:
            Coordinates               Weight
  0.000000  0.000000  0.000000      1.000000
 
 Following cartesian coordinates:
            Coordinates               Weight
  0.000000  0.000000  0.000000      1.000000
 


--------------------------------------------------------------------------------------------------------




 Dimension of arrays:
   k-points           NKPTS =      1   k-points in BZ     NKDIM =      1   number of bands    NBANDS=     80
   number of dos      NEDOS =   1200   number of ions     NIONS =     19
   non local maximal  LDIM  =      4   non local SUM 2l+1 LMDIM =      8
   total plane-waves  NPLWV = ******
   max r-space proj   IRMAX =   3213   max aug-charges    IRDMAX=   6203
   dimension x,y,z NGX =   180 NGY =  216 NGZ =  180
   dimension x,y,z NGXF=   360 NGYF=  432 NGZF=  360
   support grid    NGXF=   360 NGYF=  432 NGZF=  360
   ions per type =               6  11   2
   NGX,Y,Z   is equivalent  to a cutoff of  12.86, 12.81, 12.91 a.u.
   NGXF,Y,Z  is equivalent  to a cutoff of  25.73, 25.61, 25.82 a.u.

 SYSTEM =  SiC                                     
 POSCAR =  C F O                                   

 Startparameter for this run:
   NWRITE =      2    write-flag & timer
   PREC   = accura    normal or accurate (medium, high low for compatibility)
   ISTART =      1    job   : 0-new  1-cont  2-samecut
   ICHARG =      0    charge: 1-file 2-atom 10-const
   ISPIN  =      2    spin polarized calculation?
   LNONCOLLINEAR =      F non collinear calculations
   LSORBIT =      F    spin-orbit coupling
   INIWAV =      1    electr: 0-lowe 1-rand  2-diag
   LASPH  =      T    aspherical Exc in radial PAW
   METAGGA=      F    non-selfconsistent MetaGGA calc.

 Electronic Relaxation 1
   ENCUT  =  550.0 eV  40.42 Ry    6.36 a.u.  44.48 53.62 44.33*2*pi/ulx,y,z
   ENINI  =  550.0     initial cutoff
   ENAUG  =  644.9 eV  augmentation charge cutoff
   NELM   =    100;   NELMIN=  2; NELMDL=  0     # of ELM steps 
   EDIFF  = 0.1E-04   stopping-criterion for ELM
   LREAL  =      T    real-space projection
   NLSPLINE    = F    spline interpolate recip. space projectors
   LCOMPAT=      F    compatible to vasp.4.4
   GGA_COMPAT  = T    GGA compatible to vasp.4.4-vasp.4.6
   LMAXPAW     = -100 max onsite density
   LMAXMIX     =    2 max onsite mixed and CHGCAR
   VOSKOWN=      0    Vosko Wilk Nusair interpolation
   ROPT   =   -0.00025  -0.00025  -0.00025
 Ionic relaxation
   EDIFFG = -.2E-01   stopping-criterion for IOM
   NSW    =    500    number of steps for IOM
   NBLOCK =      1;   KBLOCK =    500    inner block; outer block 
   IBRION =      2    ionic relax: 0-MD 1-quasi-New 2-CG
   NFREE  =      1    steps in history (QN), initial steepest desc. (CG)
   ISIF   =      2    stress and relaxation
   IWAVPR =     11    prediction:  0-non 1-charg 2-wave 3-comb
   ISYM   =      2    0-nonsym 1-usesym 2-fastsym
   LCORR  =      T    Harris-Foulkes like correction to forces

   POTIM  = 0.5000    time-step for ionic-motion
   TEIN   =    0.0    initial temperature
   TEBEG  =    0.0;   TEEND  =   0.0 temperature during run
   SMASS  =  -3.00    Nose mass-parameter (am)
   estimated Nose-frequenzy (Omega)   =  0.10E-29 period in steps =****** mass=  -0.124E-25a.u.
   SCALEE = 1.0000    scale energy and forces
   NPACO  =    256;   APACO  = 16.0  distance and # of slots for P.C.
   PSTRESS=    0.0 pullay stress

  Mass of Ions in am
   POMASS =  12.01 19.00 16.00
  Ionic Valenz
   ZVAL   =   4.00  7.00  6.00
  Atomic Wigner-Seitz radii
   RWIGS  =  -1.00 -1.00 -1.00
  virtual crystal weights 
   VCA    =   1.00  1.00  1.00
   NELECT =     114.0000    total number of electrons
   NUPDOWN=      -1.0000    fix difference up-down

 DOS related values:
   EMIN   =  10.00;   EMAX   =-10.00  energy-range for DOS
   EFERMI =   0.00
   ISMEAR =     0;   SIGMA  =   0.05  broadening in eV -4-tet -1-fermi 0-gaus

 Electronic relaxation 2 (details)
   IALGO  =     68    algorithm
   LDIAG  =      T    sub-space diagonalisation (order eigenvalues)
   LSUBROT=      F    optimize rotation matrix (better conditioning)
   TURBO    =      0    0=normal 1=particle mesh
   IRESTART =      0    0=no restart 2=restart with 2 vectors
   NREBOOT  =      0    no. of reboots
   NMIN     =      0    reboot dimension
   EREF     =   0.00    reference energy to select bands
   IMIX   =      4    mixing-type and parameters
     AMIX     =   0.40;   BMIX     =  1.00
     AMIX_MAG =   1.60;   BMIX_MAG =  1.00
     AMIN     =   0.10
     WC   =   100.;   INIMIX=   1;  MIXPRE=   1;  MAXMIX= -45

 Intra band minimization:
   WEIMIN = 0.0010     energy-eigenvalue tresh-hold
   EBREAK =  0.31E-07  absolut break condition
   DEPER  =   0.30     relativ break condition  

   TIME   =   0.40     timestep for ELM

  volume/ion in A,a.u.               =     795.89      5370.91
  Fermi-wavevector in a.u.,A,eV,Ry     =   0.321002  0.606606  1.401978  0.103042
  Thomas-Fermi vector in A             =   1.208114
 
 Write flags
   LWAVE        =      T    write WAVECAR
   LDOWNSAMPLE  =      F    k-point downsampling of WAVECAR
   LCHARG       =      F    write CHGCAR
   LVTOT        =      F    write LOCPOT, total local potential
   LVHAR        =      T    write LOCPOT, Hartree potential only
   LELF         =      F    write electronic localiz. function (ELF)
   LORBIT       =     11    0 simple, 1 ext, 2 COOP (PROOUT), +10 PAW based schemes


 Dipole corrections
   LMONO  =      F    monopole corrections only (constant potential shift)
   LDIPOL =      F    correct potential (dipole corrections)
   IDIPOL =      0    1-x, 2-y, 3-z, 4-all directions 
   EPSILON=  1.0000000 bulk dielectric constant

 Exchange correlation treatment:
   GGA     =    --    GGA type
   LEXCH   =     8    internal setting for exchange type
   VOSKOWN=      0    Vosko Wilk Nusair interpolation
   LHFCALC =     F    Hartree Fock is set to
   LHFONE  =     F    Hartree Fock one center treatment
   AEXX    =    0.0000 exact exchange contribution

 vdW DFT:
   LUSE_VDW   =     T    switch on vdW DFT
   Zab_VDW    =-.8491    correlation parameter
   PARAM1     =0.1234
   PARAM2     =1.0000
   PARAM3     =0.0000
   -- rVV10 --
   BPARAM     =15.7000
   CPARAM     = 0.0093

 Linear response parameters
   LEPSILON=     F    determine dielectric tensor
   LRPA    =     F    only Hartree local field effects (RPA)
   LNABLA  =     F    use nabla operator in PAW spheres
   LVEL    =     F    velocity operator in full k-point grid
   LINTERFAST=   F  fast interpolation
   KINTER  =     0    interpolate to denser k-point grid
   CSHIFT  =0.1000    complex shift for real part using Kramers Kronig
   OMEGAMAX=  -1.0    maximum frequency
   DEG_THRESHOLD= 0.2000000E-02 threshold for treating states as degnerate
   RTIME   =   -0.100 relaxation time in fs
  (WPLASMAI=    0.000 imaginary part of plasma frequency in eV, 0.658/RTIME)
   DFIELD  = 0.0000000 0.0000000 0.0000000 field for delta impulse in time
 
 Orbital magnetization related:
   ORBITALMAG=     F  switch on orbital magnetization
   LCHIMAG   =     F  perturbation theory with respect to B field
   DQ        =  0.001000  dq finite difference perturbation B field
   LLRAUG    =     F  two centre corrections for induced B field

 Solvation model:
   LSOL    =     T         switch on solvation model
   EB_K    = 78.400000     relative permittivity of the bulk solvent
   SIGMA_K =  0.600000     width of the dielectric cavity
   NC_K    =  0.002500     cutoff charge density
   TAU     =  0.000000     cavity surface tension
   LAMBDA_D_K    =  3.040000     Debye length in Angstroms
   LRHOB     =     F     write boundcharge  density
   LRHOION     =     F     write ioniccharge density



--------------------------------------------------------------------------------------------------------


 conjugate gradient relaxation of ions
   using selective dynamics as specified on POSCAR
 charge density and potential will be updated during run
 spin polarized calculation
 RMM-DIIS sequential band-by-band and
  variant of blocked Davidson during initial phase
 perform sub-space diagonalisation
    before iterative eigenvector-optimisation
 modified Broyden-mixing scheme, WC =      100.0
 initial mixing is a Kerker type mixing with AMIX =  0.4000 and BMIX =      1.0000
 Hartree-type preconditioning will be used
 using additional bands           23
 real space projection scheme for non local part
 use partial core corrections
 calculate Harris-corrections to forces 
   (improved forces if not selfconsistent)
 use gradient corrections 
 use of overlap-Matrix (Vanderbilt PP)
 Gauss-broadening in eV      SIGMA  =   0.05


--------------------------------------------------------------------------------------------------------


  energy-cutoff  :      550.00
  volume of cell :    15121.85
      direct lattice vectors                 reciprocal lattice vectors
    23.263503480  0.000000000  0.000000000     0.042985787  0.000000000  0.000000000
     0.000000000 28.039770550  0.000000000     0.000000000  0.035663630  0.000000000
     0.000000000  0.000000000 23.182239730     0.000000000  0.000000000  0.043136470

  length of vectors
    23.263503480 28.039770550 23.182239730     0.042985787  0.035663630  0.043136470


 
 old parameters found on file WAVECAR:
  energy-cutoff  :      550.00
  volume of cell :    15121.85
      direct lattice vectors                 reciprocal lattice vectors
    23.263503480  0.000000000  0.000000000     0.042985787  0.000000000  0.000000000
     0.000000000 28.039770550  0.000000000     0.000000000  0.035663630  0.000000000
     0.000000000  0.000000000 23.182239730     0.000000000  0.000000000  0.043136470

  length of vectors

 
 k-points in units of 2pi/SCALE and weight: K-Point Grid                            
   0.00000000  0.00000000  0.00000000       1.000
 
 k-points in reciprocal lattice and weights: K-Point Grid                            
   0.00000000  0.00000000  0.00000000       1.000
 
 position of ions in fractional coordinates (direct lattice) 
   0.49530726  0.60642874  0.51216998
   0.52763739  0.55897014  0.50160220
   0.48832625  0.51424073  0.49995363
   0.52055438  0.46625345  0.50828078
   0.48672537  0.42133588  0.49036128
   0.51182259  0.37399290  0.51680966
   0.45042740  0.61097839  0.47625225
   0.47646231  0.61005351  0.56654504
   0.53145788  0.64310811  0.50250491
   0.55543339  0.56363689  0.45061642
   0.56713149  0.55504924  0.54430311
   0.44823609  0.52002935  0.54201748
   0.46122081  0.51465141  0.44813826
   0.57030391  0.47015040  0.47794414
   0.53361239  0.46317062  0.56541015
   0.43052343  0.42993505  0.50576138
   0.48720378  0.41939545  0.43104723
   0.56316771  0.36848406  0.50335118
   0.47744916  0.35028349  0.54576806
 
 position of ions in cartesian coordinates  (Angst):
  11.52258217 17.00412274 11.87324735
  12.27469427 15.67339458 11.62826239
  11.36017951 14.41919211 11.59004501
  12.10991865 13.07363977 11.78308683
  11.32293742 11.81416126 11.36767268
  11.90678661 10.48667517 11.98080539
  10.47851945 17.13169395 11.04059380
  11.08418250 17.10576035 13.13378292
  12.36357224 18.03260380 11.64918928
  12.92132666 15.80424920 10.44629798
  13.19346547 15.56345330 12.61816511
  10.42754176 14.58150370 12.56517918
  10.72961186 14.43070748 10.38884847
  13.26726698 13.18290934 11.07981552
  12.41369370 12.98719800 13.10747374
  10.01548325 12.05528029 11.72468152
  11.33406689 11.75975220  9.99264013
  13.10125405 10.33220854 11.66880771
  11.10714016  9.82186856 12.65212602
 


--------------------------------------------------------------------------------------------------------


 k-point  1 :   0.0000 0.0000 0.0000  plane waves:  443007

 maximum and minimum number of plane-waves per node :     36923    36909

 maximum number of plane-waves:    443007
 maximum index in each direction: 
   IXMAX=   44   IYMAX=   53   IZMAX=   44
   IXMIN=  -44   IYMIN=  -53   IZMIN=  -44


 real space projection operators:
  total allocation   :       3637.50 KBytes
  max/ min on nodes  :        309.25        299.19


 parallel 3D FFT for wavefunctions:
    minimum data exchange during FFTs selected (reduces bandwidth)
 parallel 3D FFT for charge:
    minimum data exchange during FFTs selected (reduces bandwidth)


 total amount of memory used by VASP MPI-rank0   327717. kBytes
=======================================================================

   base      :      30000. kBytes
   nonlr-proj:       1404. kBytes
   fftplans  :      58581. kBytes
   grid      :     214084. kBytes
   one-center:         12. kBytes
   wavefun   :      23636. kBytes
 
     INWAV:  cpu time    3.6132: real time    3.6474
 Broyden mixing: mesh for mixing (old mesh)
   NGX = 89   NGY =107   NGZ = 89
  (NGX  =360   NGY  =432   NGZ  =360)
  gives a total of 847547 points

 charge density for first step will be calculated from the start-wavefunctions


--------------------------------------------------------------------------------------------------------


 Maximum index for non-local projection operator          283
 Maximum index for augmentation-charges          386 (set IRDMAX)


--------------------------------------------------------------------------------------------------------


 initial charge from wavefunction
 First call to EWALD:  gamma=   0.072
 Maximum number of real-space cells 3x 2x 3
 Maximum number of reciprocal cells 3x 3x 3

    FEWALD:  cpu time    0.0016: real time    0.0016


--------------------------------------- Iteration      1(   1)  ---------------------------------------


    POTLOK:  cpu time   94.4864: real time   94.8972
    SETDIJ:  cpu time    0.5752: real time    0.6076
     EDDAV:  cpu time   44.7941: real time   45.2277
       DOS:  cpu time    0.0007: real time    0.0284
    CHARGE:  cpu time    7.9622: real time    7.9758
    MIXING:  cpu time    0.0525: real time    0.0526
    --------------------------------------------
      LOOP:  cpu time  147.8712: real time  148.7894

 eigenvalue-minimisations  :   464
 total energy-change (2. order) :-0.1404697E+03  (-0.7139078E-01)
 number of electron     114.0000029 magnetization      -0.0000000
 augmentation part       15.8103392 magnetization       0.0000000

 Broyden mixing:
  rms(total) = 0.65365E-01    rms(broyden)= 0.65322E-01
  rms(prec ) = 0.69654E-01
  weight for this iteration     100.00

 Free energy of the ion-electron system (eV)
  ---------------------------------------------------
  alpha Z        PSCENC =         3.32928416
  Ewald energy   TEWEN  =     17683.00923515
  -Hartree energ DENC   =    -25633.72575757
  -exchange      EXHF   =         0.00000000
  -V(xc)+E(xc)   XCENC  =       664.09486534
  PAW double counting   =     10362.20960098   -10441.38591448
  entropy T*S    EENTRO =        -0.00000000
  eigenvalues    EBANDS =     -1986.90624868
  atomic energy  EATOM  =      9003.41176406
  Solvation  Ediel_sol  =       205.49344788
  ---------------------------------------------------
  free energy    TOTEN  =      -140.46972315 eV

  energy without entropy =     -140.46972315  energy(sigma->0) =     -140.46972315


--------------------------------------------------------------------------------------------------------




--------------------------------------- Iteration      1(   2)  ---------------------------------------


    POTLOK:  cpu time   83.5174: real time   83.6770
    SETDIJ:  cpu time    0.4078: real time    0.4087
    EDDIAG:  cpu time    8.5030: real time    8.5303
  RMM-DIIS:  cpu time   47.7585: real time   47.8429
    ORTHCH:  cpu time    0.0845: real time    0.0847
       DOS:  cpu time    0.0004: real time    0.0004
    CHARGE:  cpu time    7.9202: real time    7.9334
    MIXING:  cpu time    0.0516: real time    0.0526
    --------------------------------------------
      LOOP:  cpu time  148.2434: real time  148.5299

 eigenvalue-minimisations  :   320
 total energy-change (2. order) :-0.2746538E-02  (-0.1835023E-01)
 number of electron     114.0000029 magnetization      -0.0000000
 augmentation part       15.7957463 magnetization       0.0000000

 Broyden mixing:
  rms(total) = 0.35795E-01    rms(broyden)= 0.35787E-01
  rms(prec ) = 0.39658E-01
  weight for this iteration     100.00

 eigenvalues of (default mixing * dielectric matrix)
  average eigenvalue GAMMA=   1.1753
  1.1753

 Free energy of the ion-electron system (eV)
  ---------------------------------------------------
  alpha Z        PSCENC =         3.32928416
  Ewald energy   TEWEN  =     17683.00923515
  -Hartree energ DENC   =    -25634.04711256
  -exchange      EXHF   =         0.00000000
  -V(xc)+E(xc)   XCENC  =       664.22575865
  PAW double counting   =     10367.07174136   -10446.28113892
  entropy T*S    EENTRO =        -0.00000000
  eigenvalues    EBANDS =     -1986.42347190
  atomic energy  EATOM  =      9003.41176406
  Solvation  Ediel_sol  =       205.23147030
  ---------------------------------------------------
  free energy    TOTEN  =      -140.47246969 eV

  energy without entropy =     -140.47246969  energy(sigma->0) =     -140.47246969


--------------------------------------------------------------------------------------------------------




--------------------------------------- Iteration      1(   3)  ---------------------------------------


    POTLOK:  cpu time   82.9614: real time   83.1179
    SETDIJ:  cpu time    0.4081: real time    0.4091
    EDDIAG:  cpu time    8.5188: real time    8.5328
  RMM-DIIS:  cpu time   48.9966: real time   49.0772
    ORTHCH:  cpu time    0.0755: real time    0.0756
       DOS:  cpu time    0.0004: real time    0.0004
    CHARGE:  cpu time    7.9392: real time    7.9517
    MIXING:  cpu time    0.0523: real time    0.0524
    --------------------------------------------
      LOOP:  cpu time  148.9523: real time  149.2170

 eigenvalue-minimisations  :   330
 total energy-change (2. order) : 0.2385733E-02  (-0.1930990E-02)
 number of electron     114.0000029 magnetization      -0.0000000
 augmentation part       15.7921915 magnetization      -0.0000001

 Broyden mixing:
  rms(total) = 0.22116E-01    rms(broyden)= 0.22110E-01
  rms(prec ) = 0.25406E-01
  weight for this iteration     100.00

 eigenvalues of (default mixing * dielectric matrix)
  average eigenvalue GAMMA=   1.3124
  1.3124  1.3124

 Free energy of the ion-electron system (eV)
  ---------------------------------------------------
  alpha Z        PSCENC =         3.32928416
  Ewald energy   TEWEN  =     17683.00923515
  -Hartree energ DENC   =    -25633.58363484
  -exchange      EXHF   =         0.00000000
  -V(xc)+E(xc)   XCENC  =       664.21446327
  PAW double counting   =     10367.37006329   -10446.56379554
  entropy T*S    EENTRO =        -0.00000000
  eigenvalues    EBANDS =     -1986.51918700
  atomic energy  EATOM  =      9003.41176406
  Solvation  Ediel_sol  =       204.86172350
  ---------------------------------------------------
  free energy    TOTEN  =      -140.47008395 eV

  energy without entropy =     -140.47008395  energy(sigma->0) =     -140.47008395


--------------------------------------------------------------------------------------------------------




--------------------------------------- Iteration      1(   4)  ---------------------------------------


    POTLOK:  cpu time   81.9896: real time   82.1462
    SETDIJ:  cpu time    0.4067: real time    0.4076
    EDDIAG:  cpu time    8.4726: real time    8.4872
  RMM-DIIS:  cpu time   48.1410: real time   48.2204
    ORTHCH:  cpu time    0.0748: real time    0.0749
       DOS:  cpu time    0.0004: real time    0.0004
    CHARGE:  cpu time    7.9800: real time    7.9928
    MIXING:  cpu time    0.0534: real time    0.0538
    --------------------------------------------
      LOOP:  cpu time  147.1185: real time  147.3835

 eigenvalue-minimisations  :   322
 total energy-change (2. order) : 0.1921940E-02  (-0.3470282E-03)
 number of electron     114.0000029 magnetization      -0.0000000
 augmentation part       15.7946084 magnetization       0.0000000

 Broyden mixing:
  rms(total) = 0.11431E-01    rms(broyden)= 0.11431E-01
  rms(prec ) = 0.15008E-01
  weight for this iteration     100.00

 eigenvalues of (default mixing * dielectric matrix)
  average eigenvalue GAMMA=   1.5613
  2.6069  1.0386  1.0386

 Free energy of the ion-electron system (eV)
  ---------------------------------------------------
  alpha Z        PSCENC =         3.32928416
  Ewald energy   TEWEN  =     17683.00923515
  -Hartree energ DENC   =    -25633.00167795
  -exchange      EXHF   =         0.00000000
  -V(xc)+E(xc)   XCENC  =       664.19218358
  PAW double counting   =     10366.86432369   -10446.05099150
  entropy T*S    EENTRO =        -0.00000000
  eigenvalues    EBANDS =     -1986.65967176
  atomic energy  EATOM  =      9003.41176406
  Solvation  Ediel_sol  =       204.43738855
  ---------------------------------------------------
  free energy    TOTEN  =      -140.46816201 eV

  energy without entropy =     -140.46816201  energy(sigma->0) =     -140.46816201


--------------------------------------------------------------------------------------------------------




--------------------------------------- Iteration      1(   5)  ---------------------------------------


    POTLOK:  cpu time   82.9775: real time   83.1359
    SETDIJ:  cpu time    0.4074: real time    0.4083
    EDDIAG:  cpu time    8.5463: real time    8.5609
  RMM-DIIS:  cpu time   47.7683: real time   47.8464
    ORTHCH:  cpu time    0.0754: real time    0.0756
       DOS:  cpu time    0.0004: real time    0.0004
    CHARGE:  cpu time    7.9395: real time    7.9524
    MIXING:  cpu time    0.0552: real time    0.0553
    --------------------------------------------
      LOOP:  cpu time  147.7700: real time  148.0351

 eigenvalue-minimisations  :   320
 total energy-change (2. order) : 0.2504305E-02  (-0.3579171E-03)
 number of electron     114.0000029 magnetization      -0.0000000
 augmentation part       15.7955651 magnetization       0.0000001

 Broyden mixing:
  rms(total) = 0.61326E-02    rms(broyden)= 0.61312E-02
  rms(prec ) = 0.88861E-02
  weight for this iteration     100.00

 eigenvalues of (default mixing * dielectric matrix)
  average eigenvalue GAMMA=   1.5792
  2.5246  0.9046  1.4438  1.4438

 Free energy of the ion-electron system (eV)
  ---------------------------------------------------
  alpha Z        PSCENC =         3.32928416
  Ewald energy   TEWEN  =     17683.00923515
  -Hartree energ DENC   =    -25632.52237462
  -exchange      EXHF   =         0.00000000
  -V(xc)+E(xc)   XCENC  =       664.22226627
  PAW double counting   =     10367.08746901   -10446.27069387
  entropy T*S    EENTRO =        -0.00000000
  eigenvalues    EBANDS =     -1986.50550237
  atomic energy  EATOM  =      9003.41176406
  Solvation  Ediel_sol  =       203.77289449
  ---------------------------------------------------
  free energy    TOTEN  =      -140.46565771 eV

  energy without entropy =     -140.46565771  energy(sigma->0) =     -140.46565771


--------------------------------------------------------------------------------------------------------




--------------------------------------- Iteration      1(   6)  ---------------------------------------


    POTLOK:  cpu time   82.5858: real time   82.7434
    SETDIJ:  cpu time    0.4075: real time    0.4083
    EDDIAG:  cpu time    8.4828: real time    8.4968
  RMM-DIIS:  cpu time   47.7072: real time   47.7846
    ORTHCH:  cpu time    0.0828: real time    0.0830
       DOS:  cpu time    0.0005: real time    0.0005
    CHARGE:  cpu time    7.8828: real time    7.8954
    MIXING:  cpu time    0.0640: real time    0.0641
    --------------------------------------------
      LOOP:  cpu time  147.2133: real time  147.4759

 eigenvalue-minimisations  :   320
 total energy-change (2. order) :-0.5971299E-03  (-0.2343224E-03)
 number of electron     114.0000029 magnetization      -0.0000000
 augmentation part       15.7929134 magnetization       0.0000004

 Broyden mixing:
  rms(total) = 0.81502E-02    rms(broyden)= 0.81489E-02
  rms(prec ) = 0.96075E-02
  weight for this iteration     100.00

 eigenvalues of (default mixing * dielectric matrix)
  average eigenvalue GAMMA=   1.7062
  2.7153  2.7153  0.9579  1.0713  1.0713

 Free energy of the ion-electron system (eV)
  ---------------------------------------------------
  alpha Z        PSCENC =         3.32928416
  Ewald energy   TEWEN  =     17683.00923515
  -Hartree energ DENC   =    -25632.46278666
  -exchange      EXHF   =         0.00000000
  -V(xc)+E(xc)   XCENC  =       664.24921417
  PAW double counting   =     10367.61184360   -10446.80612287
  entropy T*S    EENTRO =        -0.00000000
  eigenvalues    EBANDS =     -1986.09305725
  atomic energy  EATOM  =      9003.41176406
  Solvation  Ediel_sol  =       203.28437080
  ---------------------------------------------------
  free energy    TOTEN  =      -140.46625484 eV

  energy without entropy =     -140.46625484  energy(sigma->0) =     -140.46625484


--------------------------------------------------------------------------------------------------------




--------------------------------------- Iteration      1(   7)  ---------------------------------------


    POTLOK:  cpu time   83.0021: real time   83.1619
    SETDIJ:  cpu time    0.4079: real time    0.4088
    EDDIAG:  cpu time    8.4480: real time    8.4628
  RMM-DIIS:  cpu time   47.8722: real time   47.9512
    ORTHCH:  cpu time    0.0776: real time    0.0778
       DOS:  cpu time    0.0004: real time    0.0004
    CHARGE:  cpu time    7.9080: real time    7.9204
    MIXING:  cpu time    0.0625: real time    0.0626
    --------------------------------------------
      LOOP:  cpu time  147.7787: real time  148.0460

 eigenvalue-minimisations  :   320
 total energy-change (2. order) :-0.4259821E-03  (-0.1287763E-03)
 number of electron     114.0000029 magnetization      -0.0000000
 augmentation part       15.7944510 magnetization       0.0000010

 Broyden mixing:
  rms(total) = 0.31478E-02    rms(broyden)= 0.31463E-02
  rms(prec ) = 0.42822E-02
  weight for this iteration     100.00

 eigenvalues of (default mixing * dielectric matrix)
  average eigenvalue GAMMA=   1.7151
  2.9554  2.9554  1.1078  1.1078  1.0820  1.0820

 Free energy of the ion-electron system (eV)
  ---------------------------------------------------
  alpha Z        PSCENC =         3.32928416
  Ewald energy   TEWEN  =     17683.00923515
  -Hartree energ DENC   =    -25631.89415291
  -exchange      EXHF   =         0.00000000
  -V(xc)+E(xc)   XCENC  =       664.22963742
  PAW double counting   =     10367.21608987   -10446.41058091
  entropy T*S    EENTRO =        -0.00000000
  eigenvalues    EBANDS =     -1986.04810493
  atomic energy  EATOM  =      9003.41176406
  Solvation  Ediel_sol  =       202.69014726
  ---------------------------------------------------
  free energy    TOTEN  =      -140.46668082 eV

  energy without entropy =     -140.46668082  energy(sigma->0) =     -140.46668082


--------------------------------------------------------------------------------------------------------




--------------------------------------- Iteration      1(   8)  ---------------------------------------


    POTLOK:  cpu time   79.6992: real time   79.8486
    SETDIJ:  cpu time    0.4102: real time    0.4111
    EDDIAG:  cpu time    8.4688: real time    8.4828
  RMM-DIIS:  cpu time   46.5270: real time   46.6045
    ORTHCH:  cpu time    0.0755: real time    0.0757
       DOS:  cpu time    0.0004: real time    0.0004
    CHARGE:  cpu time    7.9050: real time    7.9177
    MIXING:  cpu time    0.0650: real time    0.0651
    --------------------------------------------
      LOOP:  cpu time  143.1511: real time  143.4060

 eigenvalue-minimisations  :   302
 total energy-change (2. order) :-0.7400958E-03  (-0.4520700E-04)
 number of electron     114.0000029 magnetization      -0.0000000
 augmentation part       15.7950578 magnetization       0.0000010

 Broyden mixing:
  rms(total) = 0.23861E-02    rms(broyden)= 0.23858E-02
  rms(prec ) = 0.31334E-02
  weight for this iteration     100.00

 eigenvalues of (default mixing * dielectric matrix)
  average eigenvalue GAMMA=   1.8560
  4.5677  2.5925  1.3867  1.2223  1.0472  1.0878  1.0878

 Free energy of the ion-electron system (eV)
  ---------------------------------------------------
  alpha Z        PSCENC =         3.32928416
  Ewald energy   TEWEN  =     17683.00923515
  -Hartree energ DENC   =    -25631.63185506
  -exchange      EXHF   =         0.00000000
  -V(xc)+E(xc)   XCENC  =       664.23158630
  PAW double counting   =     10367.08437770   -10446.27608839
  entropy T*S    EENTRO =        -0.00000000
  eigenvalues    EBANDS =     -1986.04866845
  atomic energy  EATOM  =      9003.41176406
  Solvation  Ediel_sol  =       202.42294361
  ---------------------------------------------------
  free energy    TOTEN  =      -140.46742092 eV

  energy without entropy =     -140.46742092  energy(sigma->0) =     -140.46742092


--------------------------------------------------------------------------------------------------------




--------------------------------------- Iteration      1(   9)  ---------------------------------------


    POTLOK:  cpu time   80.3798: real time   80.5359
    SETDIJ:  cpu time    0.4086: real time    0.4096
    EDDIAG:  cpu time    8.4520: real time    8.4667
  RMM-DIIS:  cpu time   46.1267: real time   46.2024
    ORTHCH:  cpu time    0.0754: real time    0.0756
       DOS:  cpu time    0.0004: real time    0.0004
    CHARGE:  cpu time    7.9505: real time    7.9632
    MIXING:  cpu time    0.0663: real time    0.0664
    --------------------------------------------
      LOOP:  cpu time  143.4597: real time  143.7201

 eigenvalue-minimisations  :   298
 total energy-change (2. order) :-0.1432236E-02  (-0.7727519E-04)
 number of electron     114.0000029 magnetization      -0.0000000
 augmentation part       15.7945336 magnetization      -0.0000054

 Broyden mixing:
  rms(total) = 0.11328E-02    rms(broyden)= 0.11323E-02
  rms(prec ) = 0.15639E-02
  weight for this iteration     100.00

 eigenvalues of (default mixing * dielectric matrix)
  average eigenvalue GAMMA=   2.0856
  6.1111  2.6604  2.5476  1.0554  1.0554  0.9531  1.1508  1.1508

 Free energy of the ion-electron system (eV)
  ---------------------------------------------------
  alpha Z        PSCENC =         3.32928416
  Ewald energy   TEWEN  =     17683.00923515
  -Hartree energ DENC   =    -25631.44266150
  -exchange      EXHF   =         0.00000000
  -V(xc)+E(xc)   XCENC  =       664.23717975
  PAW double counting   =     10367.14033091   -10446.33391820
  entropy T*S    EENTRO =        -0.00000000
  eigenvalues    EBANDS =     -1985.93394571
  atomic energy  EATOM  =      9003.41176406
  Solvation  Ediel_sol  =       202.11387823
  ---------------------------------------------------
  free energy    TOTEN  =      -140.46885315 eV

  energy without entropy =     -140.46885315  energy(sigma->0) =     -140.46885315


--------------------------------------------------------------------------------------------------------




--------------------------------------- Iteration      1(  10)  ---------------------------------------


    POTLOK:  cpu time   78.0797: real time   78.2315
    SETDIJ:  cpu time    0.4094: real time    0.4103
    EDDIAG:  cpu time    8.4663: real time    8.4802
  RMM-DIIS:  cpu time   46.1504: real time   46.2292
    ORTHCH:  cpu time    0.0744: real time    0.0746
       DOS:  cpu time    0.0004: real time    0.0004
    CHARGE:  cpu time    7.8833: real time    7.8961
    MIXING:  cpu time    0.0685: real time    0.0687
    --------------------------------------------
      LOOP:  cpu time  141.1324: real time  141.3909

 eigenvalue-minimisations  :   298
 total energy-change (2. order) :-0.1354526E-02  (-0.6808058E-04)
 number of electron     114.0000029 magnetization      -0.0000000
 augmentation part       15.7945202 magnetization      -0.0000048

 Broyden mixing:
  rms(total) = 0.81717E-03    rms(broyden)= 0.81701E-03
  rms(prec ) = 0.99792E-03
  weight for this iteration     100.00

 eigenvalues of (default mixing * dielectric matrix)
  average eigenvalue GAMMA=   2.0430
  6.6964  2.8824  2.4452  1.0608  1.0608  1.2320  1.2320  0.9725  0.8051

 Free energy of the ion-electron system (eV)
  ---------------------------------------------------
  alpha Z        PSCENC =         3.32928416
  Ewald energy   TEWEN  =     17683.00923515
  -Hartree energ DENC   =    -25631.27987896
  -exchange      EXHF   =         0.00000000
  -V(xc)+E(xc)   XCENC  =       664.22942203
  PAW double counting   =     10367.05962418   -10446.25247954
  entropy T*S    EENTRO =        -0.00000000
  eigenvalues    EBANDS =     -1985.96431989
  atomic energy  EATOM  =      9003.41176406
  Solvation  Ediel_sol  =       201.98714112
  ---------------------------------------------------
  free energy    TOTEN  =      -140.47020768 eV

  energy without entropy =     -140.47020768  energy(sigma->0) =     -140.47020768


--------------------------------------------------------------------------------------------------------




--------------------------------------- Iteration      1(  11)  ---------------------------------------


    POTLOK:  cpu time   75.2762: real time   75.4208
    SETDIJ:  cpu time    0.4068: real time    0.4078
    EDDIAG:  cpu time    8.4320: real time    8.4461
  RMM-DIIS:  cpu time   44.0762: real time   44.1499
    ORTHCH:  cpu time    0.0751: real time    0.0753
       DOS:  cpu time    0.0004: real time    0.0004
    CHARGE:  cpu time    7.9341: real time    7.9471
    MIXING:  cpu time    0.0754: real time    0.0755
    --------------------------------------------
      LOOP:  cpu time  136.2763: real time  136.5228

 eigenvalue-minimisations  :   284
 total energy-change (2. order) :-0.4495069E-03  (-0.2711061E-04)
 number of electron     114.0000029 magnetization      -0.0000000
 augmentation part       15.7946976 magnetization       0.0000001

 Broyden mixing:
  rms(total) = 0.53440E-03    rms(broyden)= 0.53427E-03
  rms(prec ) = 0.66544E-03
  weight for this iteration     100.00

 eigenvalues of (default mixing * dielectric matrix)
  average eigenvalue GAMMA=   2.1828
  7.8039  3.2723  2.4635  2.2392  1.0625  1.0625  1.2682  1.0296  0.9621  0.6639

 Free energy of the ion-electron system (eV)
  ---------------------------------------------------
  alpha Z        PSCENC =         3.32928416
  Ewald energy   TEWEN  =     17683.00923515
  -Hartree energ DENC   =    -25631.20858685
  -exchange      EXHF   =         0.00000000
  -V(xc)+E(xc)   XCENC  =       664.22595081
  PAW double counting   =     10367.03257593   -10446.22494752
  entropy T*S    EENTRO =        -0.00000000
  eigenvalues    EBANDS =     -1986.00999568
  atomic energy  EATOM  =      9003.41176406
  Solvation  Ediel_sol  =       201.96406274
  ---------------------------------------------------
  free energy    TOTEN  =      -140.47065719 eV

  energy without entropy =     -140.47065719  energy(sigma->0) =     -140.47065719


--------------------------------------------------------------------------------------------------------




--------------------------------------- Iteration      1(  12)  ---------------------------------------


    POTLOK:  cpu time   75.8981: real time   76.0429
    SETDIJ:  cpu time    0.4065: real time    0.4075
    EDDIAG:  cpu time    8.4596: real time    8.4741
  RMM-DIIS:  cpu time   42.8823: real time   42.9547
    ORTHCH:  cpu time    0.0766: real time    0.0767
       DOS:  cpu time    0.0004: real time    0.0004
    CHARGE:  cpu time    7.8964: real time    7.9094
    MIXING:  cpu time    0.0783: real time    0.0784
    --------------------------------------------
      LOOP:  cpu time  135.6981: real time  135.9440

 eigenvalue-minimisations  :   270
 total energy-change (2. order) :-0.4321133E-03  (-0.1589288E-04)
 number of electron     114.0000029 magnetization      -0.0000000
 augmentation part       15.7947100 magnetization      -0.0000006

 Broyden mixing:
  rms(total) = 0.60700E-03    rms(broyden)= 0.60696E-03
  rms(prec ) = 0.65715E-03
  weight for this iteration     100.00

 eigenvalues of (default mixing * dielectric matrix)
  average eigenvalue GAMMA=   2.1934
  8.3293  4.0156  2.7377  2.0298  1.0636  1.0636  1.2107  1.0722  0.9878  0.9878
  0.6287

 Free energy of the ion-electron system (eV)
  ---------------------------------------------------
  alpha Z        PSCENC =         3.32928416
  Ewald energy   TEWEN  =     17683.00923515
  -Hartree energ DENC   =    -25631.15132341
  -exchange      EXHF   =         0.00000000
  -V(xc)+E(xc)   XCENC  =       664.22513565
  PAW double counting   =     10367.03734863   -10446.22985863
  entropy T*S    EENTRO =        -0.00000000
  eigenvalues    EBANDS =     -1986.04322268
  atomic energy  EATOM  =      9003.41176406
  Solvation  Ediel_sol  =       201.94054775
  ---------------------------------------------------
  free energy    TOTEN  =      -140.47108930 eV

  energy without entropy =     -140.47108930  energy(sigma->0) =     -140.47108930


--------------------------------------------------------------------------------------------------------




--------------------------------------- Iteration      1(  13)  ---------------------------------------


    POTLOK:  cpu time   74.2540: real time   74.3971
    SETDIJ:  cpu time    0.4074: real time    0.4083
    EDDIAG:  cpu time    8.4532: real time    8.4671
  RMM-DIIS:  cpu time   39.1906: real time   39.2562
    ORTHCH:  cpu time    0.0742: real time    0.0743
       DOS:  cpu time    0.0005: real time    0.0005
    CHARGE:  cpu time    7.9232: real time    7.9350
    MIXING:  cpu time    0.0815: real time    0.0816
    --------------------------------------------
      LOOP:  cpu time  130.3845: real time  130.6200

 eigenvalue-minimisations  :   234
 total energy-change (2. order) :-0.1321857E-03  (-0.5142215E-05)
 number of electron     114.0000029 magnetization      -0.0000000
 augmentation part       15.7945736 magnetization       0.0000010

 Broyden mixing:
  rms(total) = 0.14984E-03    rms(broyden)= 0.14965E-03
  rms(prec ) = 0.20537E-03
  weight for this iteration     100.00

 eigenvalues of (default mixing * dielectric matrix)
  average eigenvalue GAMMA=   2.1593
  8.5680  4.2323  2.8082  1.9409  1.0689  1.0689  1.4723  1.3071  1.0185  0.9039
  0.9039  0.6180

 Free energy of the ion-electron system (eV)
  ---------------------------------------------------
  alpha Z        PSCENC =         3.32928416
  Ewald energy   TEWEN  =     17683.00923515
  -Hartree energ DENC   =    -25631.14210590
  -exchange      EXHF   =         0.00000000
  -V(xc)+E(xc)   XCENC  =       664.22606005
  PAW double counting   =     10367.05104437   -10446.24381110
  entropy T*S    EENTRO =        -0.00000000
  eigenvalues    EBANDS =     -1986.04335231
  atomic energy  EATOM  =      9003.41176406
  Solvation  Ediel_sol  =       201.93066003
  ---------------------------------------------------
  free energy    TOTEN  =      -140.47122149 eV

  energy without entropy =     -140.47122149  energy(sigma->0) =     -140.47122149


--------------------------------------------------------------------------------------------------------




--------------------------------------- Iteration      1(  14)  ---------------------------------------


    POTLOK:  cpu time   73.1690: real time   73.3084
    SETDIJ:  cpu time    0.4062: real time    0.4070
    EDDIAG:  cpu time    8.5054: real time    8.5196
  RMM-DIIS:  cpu time   36.9803: real time   37.0396
    ORTHCH:  cpu time    0.0753: real time    0.0754
       DOS:  cpu time    0.0004: real time    0.0004
    CHARGE:  cpu time    7.9558: real time    7.9692
    MIXING:  cpu time    0.0855: real time    0.0856
    --------------------------------------------
      LOOP:  cpu time  127.1780: real time  127.4053

 eigenvalue-minimisations  :   213
 total energy-change (2. order) :-0.1304841E-03  (-0.1743278E-05)
 number of electron     114.0000029 magnetization      -0.0000000
 augmentation part       15.7945014 magnetization       0.0000015

 Broyden mixing:
  rms(total) = 0.27443E-03    rms(broyden)= 0.27437E-03
  rms(prec ) = 0.29617E-03
  weight for this iteration     100.00

 eigenvalues of (default mixing * dielectric matrix)
  average eigenvalue GAMMA=   2.2556
  9.1069  4.9499  3.0143  2.5261  1.9636  1.0611  1.0611  1.3037  0.9945  0.9945
  0.9985  0.7352  0.6140

 Free energy of the ion-electron system (eV)
  ---------------------------------------------------
  alpha Z        PSCENC =         3.32928416
  Ewald energy   TEWEN  =     17683.00923515
  -Hartree energ DENC   =    -25631.11426092
  -exchange      EXHF   =         0.00000000
  -V(xc)+E(xc)   XCENC  =       664.22550973
  PAW double counting   =     10367.03786264   -10446.23055875
  entropy T*S    EENTRO =        -0.00000000
  eigenvalues    EBANDS =     -1986.05416641
  atomic energy  EATOM  =      9003.41176406
  Solvation  Ediel_sol  =       201.91397837
  ---------------------------------------------------
  free energy    TOTEN  =      -140.47135197 eV

  energy without entropy =     -140.47135197  energy(sigma->0) =     -140.47135197


--------------------------------------------------------------------------------------------------------




--------------------------------------- Iteration      1(  15)  ---------------------------------------


    POTLOK:  cpu time   71.3159: real time   71.4534
    SETDIJ:  cpu time    0.4076: real time    0.4084
    EDDIAG:  cpu time    8.3765: real time    8.3908
  RMM-DIIS:  cpu time   36.9640: real time   37.0271
    ORTHCH:  cpu time    0.0753: real time    0.0755
       DOS:  cpu time    0.0005: real time    0.0005
    CHARGE:  cpu time    7.9099: real time    7.9229
    MIXING:  cpu time    0.0901: real time    0.0902
    --------------------------------------------
      LOOP:  cpu time  125.1396: real time  125.3688

 eigenvalue-minimisations  :   212
 total energy-change (2. order) :-0.7065576E-04  (-0.1145296E-05)
 number of electron     114.0000029 magnetization      -0.0000000
 augmentation part       15.7945239 magnetization       0.0000011

 Broyden mixing:
  rms(total) = 0.13279E-03    rms(broyden)= 0.13278E-03
  rms(prec ) = 0.14537E-03
  weight for this iteration     100.00

 eigenvalues of (default mixing * dielectric matrix)
  average eigenvalue GAMMA=   2.1713
  9.1616  5.2011  2.9623  2.5713  1.9882  1.0636  1.0636  1.3060  1.0034  1.0034
  0.8932  0.8932  0.6801  0.6075

 Free energy of the ion-electron system (eV)
  ---------------------------------------------------
  alpha Z        PSCENC =         3.32928416
  Ewald energy   TEWEN  =     17683.00923515
  -Hartree energ DENC   =    -25631.08654830
  -exchange      EXHF   =         0.00000000
  -V(xc)+E(xc)   XCENC  =       664.22444732
  PAW double counting   =     10367.01727092   -10446.20972833
  entropy T*S    EENTRO =        -0.00000000
  eigenvalues    EBANDS =     -1986.06902117
  atomic energy  EATOM  =      9003.41176406
  Solvation  Ediel_sol  =       201.90187356
  ---------------------------------------------------
  free energy    TOTEN  =      -140.47142263 eV

  energy without entropy =     -140.47142263  energy(sigma->0) =     -140.47142263


--------------------------------------------------------------------------------------------------------




--------------------------------------- Iteration      1(  16)  ---------------------------------------


    POTLOK:  cpu time   68.1672: real time   68.3022
    SETDIJ:  cpu time    0.4081: real time    0.4090
    EDDIAG:  cpu time    8.3936: real time    8.4080
  RMM-DIIS:  cpu time   36.2561: real time   36.3192
    ORTHCH:  cpu time    0.0790: real time    0.0792
       DOS:  cpu time    0.0005: real time    0.0005
    CHARGE:  cpu time    7.9010: real time    7.9137
    MIXING:  cpu time    0.0974: real time    0.0976
    --------------------------------------------
      LOOP:  cpu time  121.3029: real time  121.5294

 eigenvalue-minimisations  :   206
 total energy-change (2. order) :-0.1309054E-04  (-0.5045806E-06)
 number of electron     114.0000029 magnetization      -0.0000000
 augmentation part       15.7945441 magnetization       0.0000006

 Broyden mixing:
  rms(total) = 0.48076E-04    rms(broyden)= 0.48055E-04
  rms(prec ) = 0.64453E-04
  weight for this iteration     100.00

 eigenvalues of (default mixing * dielectric matrix)
  average eigenvalue GAMMA=   2.1468
  9.2006  5.3638  2.9635  2.3057  2.3057  1.0703  1.0703  1.3717  1.3717  1.0623
  1.0623  0.9878  0.8037  0.6594  0.6030

 Free energy of the ion-electron system (eV)
  ---------------------------------------------------
  alpha Z        PSCENC =         3.32928416
  Ewald energy   TEWEN  =     17683.00923515
  -Hartree energ DENC   =    -25631.08029645
  -exchange      EXHF   =         0.00000000
  -V(xc)+E(xc)   XCENC  =       664.22429895
  PAW double counting   =     10367.01448231   -10446.20689443
  entropy T*S    EENTRO =        -0.00000000
  eigenvalues    EBANDS =     -1986.07154869
  atomic energy  EATOM  =      9003.41176406
  Solvation  Ediel_sol  =       201.89823921
  ---------------------------------------------------
  free energy    TOTEN  =      -140.47143572 eV

  energy without entropy =     -140.47143572  energy(sigma->0) =     -140.47143572


--------------------------------------------------------------------------------------------------------




--------------------------------------- Iteration      1(  17)  ---------------------------------------


    POTLOK:  cpu time   69.1802: real time   69.3141
    SETDIJ:  cpu time    0.4060: real time    0.4070
    EDDIAG:  cpu time    8.4487: real time    8.4628
  RMM-DIIS:  cpu time   36.1327: real time   36.1931
    ORTHCH:  cpu time    0.0743: real time    0.0745
       DOS:  cpu time    0.0004: real time    0.0004
    CHARGE:  cpu time    7.9453: real time    7.9594
    MIXING:  cpu time    0.1032: real time    0.1034
    --------------------------------------------
      LOOP:  cpu time  122.2909: real time  122.5147

 eigenvalue-minimisations  :   206
 total energy-change (2. order) :-0.3358602E-04  (-0.5003725E-06)
 number of electron     114.0000029 magnetization      -0.0000000
 augmentation part       15.7945623 magnetization       0.0000003

 Broyden mixing:
  rms(total) = 0.57297E-04    rms(broyden)= 0.57282E-04
  rms(prec ) = 0.63555E-04
  weight for this iteration     100.00

 eigenvalues of (default mixing * dielectric matrix)
  average eigenvalue GAMMA=   2.2220
  9.5705  5.8985  3.7252  2.5456  2.5456  1.8412  1.4046  1.0685  1.0685  1.0034
  1.0034  0.9382  0.9382  0.7863  0.6267  0.5882

 Free energy of the ion-electron system (eV)
  ---------------------------------------------------
  alpha Z        PSCENC =         3.32928416
  Ewald energy   TEWEN  =     17683.00923515
  -Hartree energ DENC   =    -25631.06695156
  -exchange      EXHF   =         0.00000000
  -V(xc)+E(xc)   XCENC  =       664.22419688
  PAW double counting   =     10367.01514439   -10446.20757568
  entropy T*S    EENTRO =        -0.00000000
  eigenvalues    EBANDS =     -1986.07266718
  atomic energy  EATOM  =      9003.41176406
  Solvation  Ediel_sol  =       201.88610047
  ---------------------------------------------------
  free energy    TOTEN  =      -140.47146930 eV

  energy without entropy =     -140.47146930  energy(sigma->0) =     -140.47146930


--------------------------------------------------------------------------------------------------------




--------------------------------------- Iteration      1(  18)  ---------------------------------------


    POTLOK:  cpu time   67.7298: real time   67.8624
    SETDIJ:  cpu time    0.4071: real time    0.4080
    EDDIAG:  cpu time    8.4257: real time    8.4400
  RMM-DIIS:  cpu time   36.1663: real time   36.2267
    ORTHCH:  cpu time    0.0789: real time    0.0791
       DOS:  cpu time    0.0004: real time    0.0004
    --------------------------------------------
      LOOP:  cpu time  112.8081: real time  113.0164

 eigenvalue-minimisations  :   206
 total energy-change (2. order) :-0.9686690E-05  (-0.3619789E-06)
 number of electron     114.0000029 magnetization      -0.0000000
 augmentation part       15.7945623 magnetization       0.0000003

 Free energy of the ion-electron system (eV)
  ---------------------------------------------------
  alpha Z        PSCENC =         3.32928416
  Ewald energy   TEWEN  =     17683.00923515
  -Hartree energ DENC   =    -25631.06128343
  -exchange      EXHF   =         0.00000000
  -V(xc)+E(xc)   XCENC  =       664.22428260
  PAW double counting   =     10367.01679501   -10446.20925358
  entropy T*S    EENTRO =        -0.00000000
  eigenvalues    EBANDS =     -1986.07271053
  atomic energy  EATOM  =      9003.41176406
  Solvation  Ediel_sol  =       201.88040756
  ---------------------------------------------------
  free energy    TOTEN  =      -140.47147899 eV

  energy without entropy =     -140.47147899  energy(sigma->0) =     -140.47147899


--------------------------------------------------------------------------------------------------------




 average (electrostatic) potential at core
  the test charge radii are     0.6991  0.7167  0.7215
  (the norm of the test charge is              1.0000)
       1 -67.6325       2 -66.4626       3 -66.3437       4 -66.0073       5 -65.0671
       6 -63.2854       7 -92.0166       8 -91.9892       9 -91.9025      10 -91.8993
      11 -91.9425      12 -91.8497      13 -91.8517      14 -91.6305      15 -91.6285
      16 -90.9985      17 -91.0181      18 -83.2348      19 -83.3026
 
 
 
 E-fermi :  -5.9464     XC(G=0):  -0.1590     alpha+bet : -0.0969


 spin component 1

 k-point     1 :       0.0000    0.0000    0.0000
  band No.  band energies     occupation 
      1     -35.7940      1.00000
      2     -34.9987      1.00000
      3     -34.5770      1.00000
      4     -34.3521      1.00000
      5     -33.6370      1.00000
      6     -33.5103      1.00000
      7     -33.3065      1.00000
      8     -33.2308      1.00000
      9     -33.0693      1.00000
     10     -32.8628      1.00000
     11     -32.1327      1.00000
     12     -27.7146      1.00000
     13     -25.6206      1.00000
     14     -22.0120      1.00000
     15     -21.0317      1.00000
     16     -19.6346      1.00000
     17     -18.1353      1.00000
     18     -17.3522      1.00000
     19     -16.5070      1.00000
     20     -16.3566      1.00000
     21     -16.2103      1.00000
     22     -15.7581      1.00000
     23     -15.7020      1.00000
     24     -15.5420      1.00000
     25     -15.1431      1.00000
     26     -14.9570      1.00000
     27     -14.8190      1.00000
     28     -14.6023      1.00000
     29     -14.1380      1.00000
     30     -12.7483      1.00000
     31     -12.6293      1.00000
     32     -12.4971      1.00000
     33     -12.3511      1.00000
     34     -12.2436      1.00000
     35     -12.1471      1.00000
     36     -11.9458      1.00000
     37     -11.8718      1.00000
     38     -11.7472      1.00000
     39     -11.6439      1.00000
     40     -11.4280      1.00000
     41     -11.3610      1.00000
     42     -11.1071      1.00000
     43     -11.0595      1.00000
     44     -11.0049      1.00000
     45     -10.9229      1.00000
     46     -10.8283      1.00000
     47     -10.7881      1.00000
     48     -10.7704      1.00000
     49     -10.5798      1.00000
     50     -10.4051      1.00000
     51     -10.3250      1.00000
     52     -10.0898      1.00000
     53      -9.8162      1.00000
     54      -8.7837      1.00000
     55      -6.7810      1.00000
     56      -6.2743      1.00000
     57      -6.1782      1.00000
     58      -1.0374      0.00000
     59      -0.7933      0.00000
     60      -0.2068      0.00000
     61      -0.0556      0.00000
     62       0.1266      0.00000
     63       0.1376      0.00000
     64       0.2220      0.00000
     65       0.2476      0.00000
     66       0.2577      0.00000
     67       0.2696      0.00000
     68       0.3705      0.00000
     69       0.4156      0.00000
     70       0.4296      0.00000
     71       0.4308      0.00000
     72       0.4434      0.00000
     73       0.4524      0.00000
     74       0.4570      0.00000
     75       0.4659      0.00000
     76       0.5263      0.00000
     77       0.5426      0.00000
     78       0.5437      0.00000
     79       0.5703      0.00000
     80       0.6984      0.00000

 spin component 2

 k-point     1 :       0.0000    0.0000    0.0000
  band No.  band energies     occupation 
      1     -35.7940      1.00000
      2     -34.9987      1.00000
      3     -34.5770      1.00000
      4     -34.3521      1.00000
      5     -33.6370      1.00000
      6     -33.5103      1.00000
      7     -33.3065      1.00000
      8     -33.2308      1.00000
      9     -33.0693      1.00000
     10     -32.8628      1.00000
     11     -32.1327      1.00000
     12     -27.7146      1.00000
     13     -25.6206      1.00000
     14     -22.0120      1.00000
     15     -21.0317      1.00000
     16     -19.6346      1.00000
     17     -18.1353      1.00000
     18     -17.3522      1.00000
     19     -16.5070      1.00000
     20     -16.3566      1.00000
     21     -16.2103      1.00000
     22     -15.7581      1.00000
     23     -15.7020      1.00000
     24     -15.5420      1.00000
     25     -15.1431      1.00000
     26     -14.9570      1.00000
     27     -14.8190      1.00000
     28     -14.6023      1.00000
     29     -14.1380      1.00000
     30     -12.7483      1.00000
     31     -12.6293      1.00000
     32     -12.4971      1.00000
     33     -12.3511      1.00000
     34     -12.2436      1.00000
     35     -12.1471      1.00000
     36     -11.9458      1.00000
     37     -11.8718      1.00000
     38     -11.7472      1.00000
     39     -11.6439      1.00000
     40     -11.4280      1.00000
     41     -11.3610      1.00000
     42     -11.1071      1.00000
     43     -11.0595      1.00000
     44     -11.0049      1.00000
     45     -10.9229      1.00000
     46     -10.8283      1.00000
     47     -10.7881      1.00000
     48     -10.7704      1.00000
     49     -10.5798      1.00000
     50     -10.4051      1.00000
     51     -10.3250      1.00000
     52     -10.0898      1.00000
     53      -9.8162      1.00000
     54      -8.7837      1.00000
     55      -6.7810      1.00000
     56      -6.2743      1.00000
     57      -6.1782      1.00000
     58      -1.0374      0.00000
     59      -0.7933      0.00000
     60      -0.2067      0.00000
     61      -0.0556      0.00000
     62       0.1271      0.00000
     63       0.1373      0.00000
     64       0.2221      0.00000
     65       0.2469      0.00000
     66       0.2578      0.00000
     67       0.2697      0.00000
     68       0.3701      0.00000
     69       0.4157      0.00000
     70       0.4294      0.00000
     71       0.4308      0.00000
     72       0.4433      0.00000
     73       0.4526      0.00000
     74       0.4567      0.00000
     75       0.4659      0.00000
     76       0.5263      0.00000
     77       0.5434      0.00000
     78       0.5411      0.00000
     79       0.5708      0.00000
     80       0.6988      0.00000


--------------------------------------------------------------------------------------------------------


 soft charge-density along one line, spin component           1
         0         1         2         3         4         5         6         7         8         9
 total charge-density along one line
 
 soft charge-density along one line, spin component           2
         0         1         2         3         4         5         6         7         8         9
 total charge-density along one line
 
 pseudopotential strength for first ion, spin component:           1
 10.781  14.346   0.014   0.002  -0.008  -0.034  -0.006   0.019
 14.346  19.089   0.018   0.003  -0.010  -0.044  -0.007   0.024
  0.014   0.018  -4.757  -0.001   0.002   9.254  -0.000   0.000
  0.002   0.003  -0.001  -4.757   0.000  -0.000   9.259   0.000
 -0.008  -0.010   0.002   0.000  -4.756   0.000   0.000   9.257
 -0.034  -0.044   9.254  -0.000   0.000 -20.299   0.001  -0.003
 -0.006  -0.007  -0.000   9.259   0.000   0.001 -20.309  -0.001
  0.019   0.024   0.000   0.000   9.257  -0.003  -0.001 -20.305
 pseudopotential strength for first ion, spin component:           2
 10.781  14.346   0.014   0.002  -0.008  -0.034  -0.006   0.019
 14.346  19.089   0.018   0.003  -0.010  -0.044  -0.007   0.024
  0.014   0.018  -4.757  -0.001   0.002   9.254  -0.000   0.000
  0.002   0.003  -0.001  -4.757   0.000  -0.000   9.259   0.000
 -0.008  -0.010   0.002   0.000  -4.756   0.000   0.000   9.257
 -0.034  -0.044   9.254  -0.000   0.000 -20.299   0.001  -0.003
 -0.006  -0.007  -0.000   9.259   0.000   0.001 -20.309  -0.001
  0.019   0.024   0.000   0.000   9.257  -0.003  -0.001 -20.305
 total augmentation occupancy for first ion, spin component:           1
  8.415  -4.135   0.283   0.058  -0.164   0.074   0.015  -0.042
 -4.135   2.253  -0.304  -0.058   0.172  -0.051  -0.010   0.029
  0.283  -0.304   1.529   0.028  -0.082   0.134  -0.003   0.010
  0.058  -0.058   0.028   1.412  -0.014  -0.003   0.158   0.002
 -0.164   0.172  -0.082  -0.014   1.439   0.010   0.002   0.150
  0.074  -0.051   0.134  -0.003   0.010   0.015  -0.001   0.003
  0.015  -0.010  -0.003   0.158   0.002  -0.001   0.022   0.001
 -0.042   0.029   0.010   0.002   0.150   0.003   0.001   0.020
 total augmentation occupancy for first ion, spin component:           2
  0.000  -0.000   0.000   0.000  -0.000   0.000   0.000  -0.000
 -0.000   0.000  -0.000  -0.000   0.000  -0.000   0.000   0.000
  0.000  -0.000   0.000  -0.000  -0.000  -0.000  -0.000   0.000
  0.000  -0.000  -0.000   0.000   0.000  -0.000   0.000   0.000
 -0.000   0.000  -0.000   0.000   0.000  -0.000   0.000   0.000
  0.000  -0.000  -0.000  -0.000  -0.000  -0.000  -0.000  -0.000
  0.000   0.000  -0.000   0.000   0.000  -0.000   0.000   0.000
 -0.000   0.000   0.000   0.000   0.000  -0.000   0.000   0.000


------------------------ aborting loop because EDIFF is reached ----------------------------------------


 


 total charge     
 
# of ion       s       p       d       tot
------------------------------------------
    1        0.816   1.558   0.000   2.374
    2        0.833   1.601   0.000   2.434
    3        0.833   1.593   0.000   2.426
    4        0.835   1.592   0.000   2.427
    5        0.840   1.563   0.000   2.404
    6        0.876   1.719   0.000   2.595
    7        1.758   4.411   0.000   6.170
    8        1.759   4.413   0.000   6.171
    9        1.758   4.408   0.000   6.166
   10        1.758   4.402   0.000   6.160
   11        1.757   4.402   0.000   6.159
   12        1.758   4.402   0.000   6.159
   13        1.757   4.402   0.000   6.159
   14        1.757   4.403   0.000   6.160
   15        1.757   4.402   0.000   6.159
   16        1.755   4.401   0.000   6.157
   17        1.755   4.399   0.000   6.154
   18        1.586   3.597   0.000   5.183
   19        1.587   3.598   0.000   5.185
--------------------------------------------------
tot         27.535  65.266   0.000  92.802
 


 magnetization (x)
 
# of ion       s       p       d       tot
------------------------------------------
    1        0.000   0.000   0.000   0.000
    2       -0.000  -0.000   0.000  -0.000
    3        0.000  -0.000   0.000  -0.000
    4        0.000  -0.000   0.000  -0.000
    5        0.000   0.000   0.000   0.000
    6       -0.000  -0.000   0.000  -0.000
    7       -0.000  -0.000   0.000  -0.000
    8       -0.000  -0.000   0.000  -0.000
    9       -0.000  -0.000   0.000  -0.000
   10        0.000  -0.000   0.000  -0.000
   11       -0.000  -0.000   0.000  -0.000
   12       -0.000  -0.000   0.000  -0.000
   13       -0.000   0.000   0.000  -0.000
   14        0.000   0.000   0.000   0.000
   15        0.000   0.000   0.000   0.000
   16        0.000   0.000   0.000   0.000
   17        0.000   0.000   0.000   0.000
   18        0.000   0.000   0.000   0.000
   19       -0.000   0.000   0.000   0.000
--------------------------------------------------
tot         -0.000   0.000   0.000   0.000
 
    CHARGE:  cpu time    1.0171: real time    1.0187
    FORLOC:  cpu time    0.1474: real time    0.1478
[...]
     68       0.3741      0.00000
     69       0.4209      0.00000
     70       0.4325      0.00000
     71       0.4395      0.00000
     72       0.4518      0.00000
     73       0.4640      0.00000
     74       0.4662      0.00000
     75       0.4713      0.00000
     76       0.5311      0.00000
     77       0.5356      0.00000
     78       0.5418      0.00000
     79       0.5442      0.00000
     80       0.6829      0.00000

 spin component 2

 k-point     1 :       0.0000    0.0000    0.0000
  band No.  band energies     occupation 
      1     -35.8522      1.00000
      2     -35.0274      1.00000
      3     -34.6034      1.00000
      4     -34.3631      1.00000
      5     -33.6913      1.00000
      6     -33.5433      1.00000
      7     -33.4036      1.00000
      8     -33.2732      1.00000
      9     -33.0920      1.00000
     10     -32.8623      1.00000
     11     -32.1867      1.00000
     12     -27.6284      1.00000
     13     -25.4524      1.00000
     14     -22.0101      1.00000
     15     -21.0289      1.00000
     16     -19.6503      1.00000
     17     -18.1718      1.00000
     18     -17.3675      1.00000
     19     -16.5425      1.00000
     20     -16.3864      1.00000
     21     -16.2403      1.00000
     22     -15.7978      1.00000
     23     -15.7381      1.00000
     24     -15.5696      1.00000
     25     -15.1598      1.00000
     26     -14.9906      1.00000
     27     -14.8533      1.00000
     28     -14.6274      1.00000
     29     -14.1808      1.00000
     30     -12.7782      1.00000
     31     -12.6499      1.00000
     32     -12.5179      1.00000
     33     -12.3726      1.00000
     34     -12.2624      1.00000
     35     -12.1376      1.00000
     36     -11.9380      1.00000
     37     -11.8936      1.00000
     38     -11.7534      1.00000
     39     -11.6448      1.00000
     40     -11.4488      1.00000
     41     -11.4255      1.00000
     42     -11.1315      1.00000
     43     -11.0756      1.00000
     44     -11.0262      1.00000
     45     -10.9292      1.00000
     46     -10.8415      1.00000
     47     -10.8154      1.00000
     48     -10.7534      1.00000
     49     -10.5355      1.00000
     50     -10.3873      1.00000
     51     -10.3091      1.00000
     52     -10.0300      1.00000
     53      -9.7982      1.00000
     54      -8.7527      1.00000
     55      -6.6887      1.00000
     56      -6.2178      1.00000
     57      -6.1097      1.00000
     58      -1.0301      0.00000
     59      -0.7653      0.00000
     60      -0.2033      0.00000
     61      -0.0509      0.00000
     62       0.1344      0.00000
     63       0.1414      0.00000
     64       0.2275      0.00000
     65       0.2560      0.00000
     66       0.2686      0.00000
     67       0.2773      0.00000
     68       0.3740      0.00000
     69       0.4210      0.00000
     70       0.4324      0.00000
     71       0.4395      0.00000
     72       0.4518      0.00000
     73       0.4640      0.00000
     74       0.4662      0.00000
     75       0.4713      0.00000
     76       0.5311      0.00000
     77       0.5356      0.00000
     78       0.5418      0.00000
     79       0.5442      0.00000
     80       0.6829      0.00000


--------------------------------------------------------------------------------------------------------


 soft charge-density along one line, spin component           1
         0         1         2         3         4         5         6         7         8         9
 total charge-density along one line
 
 soft charge-density along one line, spin component           2
         0         1         2         3         4         5         6         7         8         9
 total charge-density along one line
 
 pseudopotential strength for first ion, spin component:           1
 10.783  14.349   0.014   0.002  -0.008  -0.034  -0.006   0.019
 14.349  19.093   0.017   0.003  -0.010  -0.044  -0.007   0.025
  0.014   0.017  -4.759  -0.000   0.001   9.256  -0.000   0.002
  0.002   0.003  -0.000  -4.758   0.000  -0.000   9.261   0.000
 -0.008  -0.010   0.001   0.000  -4.758   0.002   0.000   9.259
 -0.034  -0.044   9.256  -0.000   0.002 -20.302   0.001  -0.005
 -0.006  -0.007  -0.000   9.261   0.000   0.001 -20.313  -0.001
  0.019   0.025   0.002   0.000   9.259  -0.005  -0.001 -20.309
 pseudopotential strength for first ion, spin component:           2
 10.783  14.349   0.014   0.002  -0.008  -0.034  -0.006   0.019
 14.349  19.093   0.017   0.003  -0.010  -0.044  -0.007   0.025
  0.014   0.017  -4.759  -0.000   0.001   9.256  -0.000   0.002
  0.002   0.003  -0.000  -4.758   0.000  -0.000   9.261   0.000
 -0.008  -0.010   0.001   0.000  -4.758   0.002   0.000   9.259
 -0.034  -0.044   9.256  -0.000   0.002 -20.302   0.001  -0.005
 -0.006  -0.007  -0.000   9.261   0.000   0.001 -20.313  -0.001
  0.019   0.025   0.002   0.000   9.259  -0.005  -0.001 -20.309
 total augmentation occupancy for first ion, spin component:           1
  8.509  -4.194   0.287   0.056  -0.149   0.074   0.014  -0.039
 -4.194   2.287  -0.303  -0.056   0.162  -0.051  -0.010   0.027
  0.287  -0.303   1.535   0.024  -0.070   0.135  -0.004   0.013
  0.056  -0.056   0.024   1.419  -0.015  -0.004   0.159   0.002
 -0.149   0.162  -0.070  -0.015   1.449   0.013   0.002   0.152
  0.074  -0.051   0.135  -0.004   0.013   0.016  -0.001   0.003
  0.014  -0.010  -0.004   0.159   0.002  -0.001   0.022   0.001
 -0.039   0.027   0.013   0.002   0.152   0.003   0.001   0.020
 total augmentation occupancy for first ion, spin component:           2
 -0.000  -0.000   0.000   0.000   0.000   0.000   0.000   0.000
 -0.000   0.000  -0.000  -0.000   0.000  -0.000  -0.000  -0.000
  0.000  -0.000   0.000   0.000  -0.000  -0.000  -0.000   0.000
  0.000  -0.000   0.000  -0.000   0.000   0.000  -0.000   0.000
  0.000   0.000  -0.000   0.000  -0.000   0.000   0.000  -0.000
  0.000  -0.000  -0.000   0.000   0.000  -0.000   0.000  -0.000
  0.000  -0.000  -0.000  -0.000   0.000   0.000  -0.000   0.000
  0.000  -0.000   0.000   0.000  -0.000  -0.000   0.000  -0.000


------------------------ aborting loop because EDIFF is reached ----------------------------------------


 


 total charge     
 
# of ion       s       p       d       tot
------------------------------------------
    1        0.816   1.565   0.000   2.380
    2        0.833   1.604   0.000   2.436
    3        0.833   1.596   0.000   2.429
    4        0.835   1.593   0.000   2.428
    5        0.840   1.573   0.000   2.413
    6        0.875   1.719   0.000   2.595
    7        1.758   4.412   0.000   6.171
    8        1.759   4.414   0.000   6.172
    9        1.758   4.412   0.000   6.170
   10        1.758   4.403   0.000   6.161
   11        1.757   4.403   0.000   6.160
   12        1.758   4.403   0.000   6.161
   13        1.757   4.403   0.000   6.160
   14        1.757   4.404   0.000   6.161
   15        1.757   4.402   0.000   6.159
   16        1.755   4.405   0.000   6.160
   17        1.755   4.401   0.000   6.156
   18        1.585   3.596   0.000   5.181
   19        1.586   3.595   0.000   5.182
--------------------------------------------------
tot         27.532  65.302   0.000  92.835
 


 magnetization (x)
 
# of ion       s       p       d       tot
------------------------------------------
    1       -0.000   0.000   0.000   0.000
    2       -0.000  -0.000   0.000  -0.000
    3       -0.000   0.000   0.000   0.000
    4       -0.000  -0.000   0.000  -0.000
    5        0.000   0.000   0.000   0.000
    6       -0.000   0.000   0.000   0.000
    7        0.000   0.000   0.000   0.000
    8       -0.000  -0.000   0.000  -0.000
    9        0.000  -0.000   0.000  -0.000
   10       -0.000   0.000   0.000   0.000
   11       -0.000  -0.000   0.000  -0.000
   12        0.000  -0.000   0.000  -0.000
   13       -0.000   0.000   0.000   0.000
   14        0.000  -0.000   0.000  -0.000
   15       -0.000  -0.000   0.000  -0.000
   16        0.000  -0.000   0.000  -0.000
   17       -0.000   0.000   0.000   0.000
   18       -0.000  -0.000   0.000  -0.000
   19       -0.000   0.000   0.000   0.000
--------------------------------------------------
tot         -0.000  -0.000   0.000  -0.000
 
    CHARGE:  cpu time    1.0216: real time    1.0234
    FORLOC:  cpu time    0.1454: real time    0.1457
    FORNL :  cpu time    3.0827: real time    3.0879
    STRESS:  cpu time  142.3653: real time  142.6092
    FORCOR:  cpu time   27.8968: real time   27.9579
    FORHAR:  cpu time    0.3775: real time    0.3784
    MIXING:  cpu time    0.0571: real time    0.0572
    OFIELD:  cpu time    0.0001: real time    0.0001

  FORCE on cell =-STRESS in cart. coord.  units (eV):
  Direction    XX          YY          ZZ          XY          YZ          ZX
  --------------------------------------------------------------------------------------
  Alpha Z     3.32928     3.32928     3.32928
  Ewald    4505.33160  9344.05833  3846.86690    63.60878   -36.79377  -202.83804
  Hartree  7141.05758 12027.48883  6474.09171    11.41108    23.87885   -68.95210
  E(xc)    -624.98736  -622.64359  -626.24897    -0.35633    -0.37227     0.09821
  Local  -13151.28293-23007.01465-11789.24589   -60.22705     5.51632   245.84111
  n-local  -489.26100  -493.96481  -485.67934     0.49825     2.34937     1.63658
  augment   213.68064   229.59137   207.50744    -1.37913     0.37841     1.94357
  Kinetic  2401.77348  2518.22722  2369.70493   -13.25022     5.54249    22.71547
  Fock        0.00000     0.00000     0.00000     0.00000     0.00000     0.00000
  -------------------------------------------------------------------------------------
  Total      -0.35872    -0.92802     0.32605     0.30539     0.49939     0.44479
  in kB      -0.03801    -0.09832     0.03455     0.03236     0.05291     0.04713
  external pressure =       -0.03 kB  Pullay stress =        0.00 kB


 VOLUME and BASIS-vectors are now :
 -----------------------------------------------------------------------------
  energy-cutoff  :      550.00
  volume of cell :    15121.85
      direct lattice vectors                 reciprocal lattice vectors
    23.263503480  0.000000000  0.000000000     0.042985787  0.000000000  0.000000000
     0.000000000 28.039770550  0.000000000     0.000000000  0.035663630  0.000000000
     0.000000000  0.000000000 23.182239730     0.000000000  0.000000000  0.043136470

  length of vectors
    23.263503480 28.039770550 23.182239730     0.042985787  0.035663630  0.043136470


 FORCES acting on ions
    electron-ion (+dipol)            ewald-force                    non-local-force                 convergence-correction
 -----------------------------------------------------------------------------------------------
   0.169E+02 -.193E+03 -.160E+02   -.124E+02 0.184E+03 0.146E+02   -.435E+01 0.786E+01 0.134E+01   0.341E-03 -.269E-03 -.613E-03
   -.503E+02 -.115E+03 0.522E+01   0.402E+02 0.114E+03 -.407E+01   0.992E+01 -.248E-01 -.117E+01   0.232E-03 0.418E-03 -.625E-03
   0.272E+02 -.181E+02 0.518E+01   -.168E+02 0.147E+02 -.358E+01   -.101E+02 0.152E+01 -.155E+01   0.132E-02 0.105E-02 -.167E-03
   -.294E+02 0.909E+02 -.141E+02   0.197E+02 -.945E+02 0.977E+01   0.992E+01 0.142E+01 0.436E+01   0.140E-02 0.247E-03 -.197E-03
   0.225E+02 0.207E+03 0.865E+01   -.130E+02 -.215E+03 -.718E-01   -.881E+01 0.549E+01 -.793E+01   -.126E-03 -.276E-02 0.143E-02
   -.128E+02 0.232E+03 -.329E+02   0.130E+02 -.233E+03 0.331E+02   0.510E+00 -.782E+00 0.484E+00   -.188E-02 -.158E-02 -.327E-02
   0.534E+03 -.417E+03 0.358E+03   -.581E+03 0.421E+03 -.394E+03   0.460E+02 -.583E+01 0.362E+02   0.912E-02 0.335E-02 -.738E-02
   0.246E+03 -.384E+03 -.624E+03   -.265E+03 0.386E+03 0.680E+03   0.194E+02 -.435E+01 -.558E+02   -.612E-02 -.138E-02 -.943E-02
   -.321E+03 -.723E+03 0.704E+02   0.358E+03 0.768E+03 -.805E+02   -.361E+02 -.455E+02 0.983E+01   -.872E-02 -.528E-02 0.871E-02
   -.452E+03 -.237E+03 0.596E+03   0.481E+03 0.239E+03 -.646E+03   -.284E+02 -.438E+01 0.500E+02   -.108E-02 0.185E-02 0.145E-02
   -.589E+03 -.157E+03 -.467E+03   0.628E+03 0.149E+03 0.508E+03   -.395E+02 0.563E+01 -.412E+02   0.221E-02 0.367E-02 -.556E-02
   0.577E+03 -.606E+02 -.471E+03   -.617E+03 0.620E+02 0.511E+03   0.399E+02 -.457E+01 -.404E+02   0.873E-02 -.910E-03 -.315E-02
   0.421E+03 -.562E+02 0.624E+03   -.448E+03 0.524E+02 -.674E+03   0.271E+02 0.906E+00 0.501E+02   0.309E-02 0.497E-02 0.711E-03
   -.671E+03 0.132E+03 0.306E+03   0.720E+03 -.135E+03 -.334E+03   -.483E+02 -.133E+01 0.285E+02   -.170E-02 -.383E-02 -.763E-02
   -.246E+03 0.185E+03 -.693E+03   0.259E+03 -.194E+03 0.746E+03   -.132E+02 0.513E+01 -.535E+02   0.124E-01 0.359E-02 0.794E-03
   0.684E+03 0.241E+03 -.101E+03   -.734E+03 -.239E+03 0.116E+03   0.504E+02 -.542E+01 -.140E+02   -.197E-02 -.298E-02 0.216E-01
   0.802E+02 0.327E+03 0.681E+03   -.781E+02 -.334E+03 -.732E+03   -.761E+00 0.395E+01 0.522E+02   -.120E-01 -.145E-01 0.814E-02
   -.450E+03 0.407E+03 0.485E+02   0.500E+03 -.417E+03 -.604E+02   -.481E+02 0.780E+01 0.122E+02   0.998E-03 0.977E-02 0.558E-02
   0.221E+03 0.498E+03 -.280E+03   -.253E+03 -.528E+03 0.309E+03   0.322E+02 0.275E+02 -.277E+02   -.652E-02 -.113E-01 -.319E-01
 -----------------------------------------------------------------------------------------------
   0.222E+01 0.501E+01 -.208E+01   0.227E-12 0.114E-12 -.341E-12   -.225E+01 -.499E+01 0.208E+01   -.245E-03 -.159E-01 -.215E-01
 
 
 POSITION                                       TOTAL-FORCE (eV/Angst)
 -----------------------------------------------------------------------------------
     11.52487     17.01954     11.87408         0.008670     -0.005144     -0.004357
     12.27503     15.68626     11.62886        -0.011493     -0.002837      0.002385
     11.35650     14.43411     11.59154        -0.002028     -0.005410     -0.001538
     12.10920     13.09102     11.78591        -0.007463      0.004571      0.001102
     11.32377     11.82967     11.36440         0.004194      0.011144      0.002899
     11.90110     10.51053     11.97276        -0.000079      0.013481     -0.014581
     10.47899     17.12602     11.04231        -0.012288     -0.003447      0.007048
     11.09100     17.10123     13.13619        -0.002960      0.000895      0.004321
     12.36116     18.04054     11.64680         0.007351     -0.004327     -0.003155
     12.92224     15.79349     10.44734         0.002741      0.001915     -0.011026
     13.19050     15.54772     12.61715         0.005988     -0.000123      0.011199
     10.42151     14.56748     12.56428         0.001301      0.002061     -0.003275
     10.72809     14.41626     10.39029        -0.002174      0.005778     -0.001299
     13.26802     13.17097     11.08392         0.006297     -0.000129      0.003481
     12.41297     12.97626     13.10831        -0.005867     -0.008975     -0.003653
     10.01742     12.03708     11.72193         0.000971     -0.001380     -0.017600
     11.34568     11.75585      9.99352         0.006779     -0.002808      0.016790
     13.09509     10.32062     11.66787        -0.002175     -0.009062     -0.003424
     11.11110      9.83574     12.65326         0.002233      0.003799      0.014683
 -----------------------------------------------------------------------------------
    total drift:                               -0.028555      0.004574     -0.019174


--------------------------------------------------------------------------------------------------------



  FREE ENERGIE OF THE ION-ELECTRON SYSTEM (eV)
  ---------------------------------------------------
  free  energy   TOTEN  =      -140.50064499 eV

  energy  without entropy=     -140.50064499  energy(sigma->0) =     -140.50064499
 
 d Force = 0.5560079E-04[ 0.496E-04, 0.616E-04]  d Energy = 0.9438352E-04-0.388E-04
 d Force =-0.5252736E-01[-0.521E-01,-0.530E-01]  d Ewald  =-0.5252732E-01-0.334E-07


--------------------------------------------------------------------------------------------------------


    POTLOK:  cpu time   74.7470: real time   74.8956


--------------------------------------------------------------------------------------------------------


 Conjugate gradient step on ions:
 trial-energy change:   -0.000094  1 .order   -0.000056   -0.000062   -0.000050
  (g-gl).g = 0.224E-03      g.g   = 0.248E-03  gl.gl    = 0.286E-03
 g(Force)  = 0.248E-03   g(Stress)= 0.000E+00 ortho     = 0.335E-04
 gamma     =   0.78052
 trial     =   0.22459
 opt step  =   0.89837  (harmonic =   1.15486) maximal distance =0.00318788
 next E    =  -140.500709   (d E  =  -0.00016)


--------------------------------------------------------------------------------------------------------


  
 reached required accuracy - stopping structural energy minimisation
 writing wavefunctions
     LOOP+:  cpu time  633.9179: real time  636.8833
    4ORBIT:  cpu time    0.0000: real time    0.0000
 


 total charge     
 
# of ion       s       p       d       tot
------------------------------------------
    1        0.816   1.565   0.000   2.380
    2        0.833   1.604   0.000   2.436
    3        0.833   1.596   0.000   2.429
    4        0.835   1.593   0.000   2.428
    5        0.840   1.573   0.000   2.413
    6        0.875   1.719   0.000   2.595
    7        1.758   4.412   0.000   6.171
    8        1.759   4.414   0.000   6.172
    9        1.758   4.412   0.000   6.170
   10        1.758   4.403   0.000   6.161
   11        1.757   4.403   0.000   6.160
   12        1.758   4.403   0.000   6.161
   13        1.757   4.403   0.000   6.160
   14        1.757   4.404   0.000   6.161
   15        1.757   4.402   0.000   6.159
   16        1.755   4.405   0.000   6.160
   17        1.755   4.401   0.000   6.156
   18        1.585   3.596   0.000   5.181
   19        1.586   3.595   0.000   5.182
--------------------------------------------------
tot         27.532  65.302   0.000  92.835
 


 magnetization (x)
 
# of ion       s       p       d       tot
------------------------------------------
    1       -0.000   0.000   0.000   0.000
    2       -0.000  -0.000   0.000  -0.000
    3       -0.000   0.000   0.000   0.000
    4       -0.000  -0.000   0.000  -0.000
    5        0.000   0.000   0.000   0.000
    6       -0.000   0.000   0.000   0.000
    7        0.000   0.000   0.000   0.000
    8       -0.000  -0.000   0.000  -0.000
    9        0.000  -0.000   0.000  -0.000
   10       -0.000   0.000   0.000   0.000
   11       -0.000  -0.000   0.000  -0.000
   12        0.000  -0.000   0.000  -0.000
   13       -0.000   0.000   0.000   0.000
   14        0.000  -0.000   0.000  -0.000
   15       -0.000  -0.000   0.000  -0.000
   16        0.000  -0.000   0.000  -0.000
   17       -0.000   0.000   0.000   0.000
   18       -0.000  -0.000   0.000  -0.000
   19       -0.000   0.000   0.000   0.000
--------------------------------------------------
tot         -0.000  -0.000   0.000  -0.000
 

 total amount of memory used by VASP MPI-rank0   327717. kBytes
=======================================================================

   base      :      30000. kBytes
   nonlr-proj:       1404. kBytes
   fftplans  :      58581. kBytes
   grid      :     214084. kBytes
   one-center:         12. kBytes
   wavefun   :      23636. kBytes
 
  
  
 General timing and accounting informations for this job:
 ========================================================
  
                  Total CPU time used (sec):    27956.410
                            User time (sec):    26606.494
                          System time (sec):     1349.916
                         Elapsed time (sec):    28029.326
  
                   Maximum memory used (kb):     1544464.
                   Average memory used (kb):           0.
  
                          Minor page faults:     10533328
                          Major page faults:          168
                 Voluntary context switches:       299939
