 vasp.5.4.4.18Apr17-6-g9f103f2a35 (build Jun 11 2020 13:42:08) complex          
  
 executed on             LinuxIFC date 2021.02.03  10:22:29
 running on   48 total cores
 distrk:  each k-point on    8 cores,    6 groups
 distr:  one band on NCORES_PER_BAND=   1 cores,    8 groups


--------------------------------------------------------------------------------------------------------


 INCAR:
 POTCAR:    PAW_PBE B 06Sep2000                   
 POTCAR:    PAW_PBE N 08Apr2002                   
 POTCAR:    PAW_PBE C 08Apr2002                   
 POTCAR:    PAW_PBE F 08Apr2002                   
 POTCAR:    PAW_PBE O 08Apr2002                   

 ----------------------------------------------------------------------------- 
|                                                                             |
|           W    W    AA    RRRRR   N    N  II  N    N   GGGG   !!!           |
|           W    W   A  A   R    R  NN   N  II  NN   N  G    G  !!!           |
|           W    W  A    A  R    R  N N  N  II  N N  N  G       !!!           |
|           W WW W  AAAAAA  RRRRR   N  N N  II  N  N N  G  GGG   !            |
|           WW  WW  A    A  R   R   N   NN  II  N   NN  G    G                |
|           W    W  A    A  R    R  N    N  II  N    N   GGGG   !!!           |
|                                                                             |
|      For optimal performance we recommend to set                            |
|        NCORE= 4 - approx SQRT( number of cores)                             |
|      NCORE specifies how many cores store one orbital (NPAR=cpu/NCORE).     |
|      This setting can  greatly improve the performance of VASP for DFT.     |
|      The default,   NCORE=1            might be grossly inefficient         |
|      on modern multi-core architectures or massively parallel machines.     |
|      Do your own testing !!!!                                               |
|      Unfortunately you need to use the default for GW and RPA calculations. |
|      (for HF NCORE is supported but not extensively tested yet)             |
|                                                                             |
 ----------------------------------------------------------------------------- 


 ----------------------------------------------------------------------------- 
|                                                                             |
|           W    W    AA    RRRRR   N    N  II  N    N   GGGG   !!!           |
|           W    W   A  A   R    R  NN   N  II  NN   N  G    G  !!!           |
|           W    W  A    A  R    R  N N  N  II  N N  N  G       !!!           |
|           W WW W  AAAAAA  RRRRR   N  N N  II  N  N N  G  GGG   !            |
|           WW  WW  A    A  R   R   N   NN  II  N   NN  G    G                |
|           W    W  A    A  R    R  N    N  II  N    N   GGGG   !!!           |
|                                                                             |
|      You have enabled k-point parallelism (KPAR>1).                         |
|      This developmental code was originally  written by Paul Kent at ORNL,  |
|      and carefully double checked in Vienna.                                |
|      GW as well as linear response parallelism added by Martijn Marsman     |
|      and Georg Kresse.                                                      |
|      Carefully verify results versus KPAR=1.                                |
|      Report problems to Paul Kent and Vienna.                               |
|                                                                             |
 ----------------------------------------------------------------------------- 

 POTCAR:    PAW_PBE B 06Sep2000                   
   VRHFIN =B: s2p1                                                              
   LEXCH  = PE                                                                  
   EATOM  =    71.1703 eV,    5.2309 Ry                                         
                                                                                
   TITEL  = PAW_PBE B 06Sep2000                                                 
   LULTRA =        F    use ultrasoft PP ?                                      
   IUNSCR =        1    unscreen: 0-lin 1-nonlin 2-no                           
   RPACOR =    1.200    partial core radius                                     
   POMASS =   10.811; ZVAL   =    3.000    mass and valenz                      
   RCORE  =    1.700    outmost cutoff radius                                   
   RWIGS  =    1.710; RWIGS  =    0.905    wigner-seitz radius (au A)           
   ENMAX  =  318.614; ENMIN  =  238.960 eV                                      
   ICORE  =        2    local potential                                         
   LCOR   =        T    correct aug charges                                     
   LPAW   =        T    paw PP                                                  
   EAUG   =  535.514                                                            
   DEXC   =    0.000                                                            
   RMAX   =    1.732    core radius for proj-oper                               
   RAUG   =    1.300    factor for augmentation sphere                          
   RDEP   =    1.757    radius for radial grids                                 
   RDEPT  =    1.436    core radius for aug-charge                              
                                                                                
   Atomic configuration                                                         
    4 entries                                                                   
     n  l   j            E        occ.                                          
     1  0  0.50      -180.5896   2.0000                                         
     2  0  0.50        -9.4431   2.0000                                         
     2  1  0.50        -3.6068   1.0000                                         
     3  2  1.50        -4.0817   0.0000                                         
   Description                                                                  
     l       E           TYP  RCUT    TYP  RCUT                                 
     0     -9.4430752     23  1.500                                             
     0      0.8675899     23  1.500                                             
     1     -3.6067955     23  1.700                                             
     1      6.1086146     23  1.700                                             
     2     -4.0817478      7  1.700                                             
  local pseudopotential read in
  partial core-charges read in
  partial kinetic energy density read in
  atomic valenz-charges read in
  non local Contribution for L=           0  read in
    real space projection operators read in
  non local Contribution for L=           0  read in
    real space projection operators read in
  non local Contribution for L=           1  read in
    real space projection operators read in
  non local Contribution for L=           1  read in
    real space projection operators read in
    PAW grid and wavefunctions read in
 
   number of l-projection  operators is LMAX  =           4
   number of lm-projection operators is LMMAX =           8
 
 POTCAR:    PAW_PBE N 08Apr2002                   
   VRHFIN =N: s2p3                                                              
   LEXCH  = PE                                                                  
   EATOM  =   264.5486 eV,   19.4438 Ry                                         
                                                                                
   TITEL  = PAW_PBE N 08Apr2002                                                 
   LULTRA =        F    use ultrasoft PP ?                                      
   IUNSCR =        1    unscreen: 0-lin 1-nonlin 2-no                           
   RPACOR =    1.200    partial core radius                                     
   POMASS =   14.001; ZVAL   =    5.000    mass and valenz                      
   RCORE  =    1.500    outmost cutoff radius                                   
   RWIGS  =    1.400; RWIGS  =    0.741    wigner-seitz radius (au A)           
   ENMAX  =  400.000; ENMIN  =  300.000 eV                                      
   ICORE  =        2    local potential                                         
   LCOR   =        T    correct aug charges                                     
   LPAW   =        T    paw PP                                                  
   EAUG   =  627.112                                                            
   DEXC   =    0.000                                                            
   RMAX   =    1.529    core radius for proj-oper                               
   RAUG   =    1.300    factor for augmentation sphere                          
   RDEP   =    1.514    radius for radial grids                                 
   RDEPT  =    1.338    core radius for aug-charge                              
                                                                                
   Atomic configuration                                                         
    4 entries                                                                   
     n  l   j            E        occ.                                          
     1  0  0.50      -384.7179   2.0000                                         
     2  0  0.50       -18.5828   2.0000                                         
     2  1  0.50        -7.0898   3.0000                                         
     3  2  1.50        -6.8029   0.0000                                         
   Description                                                                  
     l       E           TYP  RCUT    TYP  RCUT                                 
     0    -18.5828119     23  1.200                                             
     0    -13.5018863     23  1.200                                             
     1     -7.0897853     23  1.500                                             
     1      9.5240782     23  1.500                                             
     2     -6.8029130      7  1.500                                             
  local pseudopotential read in
  partial core-charges read in
  partial kinetic energy density read in
  atomic valenz-charges read in
  non local Contribution for L=           0  read in
    real space projection operators read in
  non local Contribution for L=           0  read in
    real space projection operators read in
  non local Contribution for L=           1  read in
    real space projection operators read in
  non local Contribution for L=           1  read in
    real space projection operators read in
    PAW grid and wavefunctions read in
 
   number of l-projection  operators is LMAX  =           4
   number of lm-projection operators is LMMAX =           8
 
 POTCAR:    PAW_PBE C 08Apr2002                   
   VRHFIN =C: s2p2                                                              
   LEXCH  = PE                                                                  
   EATOM  =   147.1560 eV,   10.8157 Ry                                         
                                                                                
   TITEL  = PAW_PBE C 08Apr2002                                                 
   LULTRA =        F    use ultrasoft PP ?                                      
   IUNSCR =        1    unscreen: 0-lin 1-nonlin 2-no                           
   RPACOR =    1.200    partial core radius                                     
   POMASS =   12.011; ZVAL   =    4.000    mass and valenz                      
   RCORE  =    1.500    outmost cutoff radius                                   
   RWIGS  =    1.630; RWIGS  =    0.863    wigner-seitz radius (au A)           
   ENMAX  =  400.000; ENMIN  =  300.000 eV                                      
   ICORE  =        2    local potential                                         
   LCOR   =        T    correct aug charges                                     
   LPAW   =        T    paw PP                                                  
   EAUG   =  644.873                                                            
   DEXC   =    0.000                                                            
   RMAX   =    1.529    core radius for proj-oper                               
   RAUG   =    1.300    factor for augmentation sphere                          
   RDEP   =    1.501    radius for radial grids                                 
   RDEPT  =    1.300    core radius for aug-charge                              
                                                                                
   Atomic configuration                                                         
    4 entries                                                                   
     n  l   j            E        occ.                                          
     1  0  0.50      -273.3789   2.0000                                         
     2  0  0.50       -13.7508   2.0000                                         
     2  1  0.50        -5.2854   2.0000                                         
     3  2  1.50        -5.4423   0.0000                                         
   Description                                                                  
     l       E           TYP  RCUT    TYP  RCUT                                 
     0    -13.7508458     23  1.200                                             
     0     -8.2022199     23  1.200                                             
     1     -5.2854383     23  1.500                                             
     1     34.0145650     23  1.500                                             
     2     -5.4423304      7  1.500                                             
  local pseudopotential read in
  partial core-charges read in
  partial kinetic energy density read in
  atomic valenz-charges read in
  non local Contribution for L=           0  read in
    real space projection operators read in
  non local Contribution for L=           0  read in
    real space projection operators read in
  non local Contribution for L=           1  read in
    real space projection operators read in
  non local Contribution for L=           1  read in
    real space projection operators read in
    PAW grid and wavefunctions read in
 
   number of l-projection  operators is LMAX  =           4
   number of lm-projection operators is LMMAX =           8
 
 POTCAR:    PAW_PBE F 08Apr2002                   
   VRHFIN =F: s2p5                                                              
   LEXCH  = PE                                                                  
   EATOM  =   659.6475 eV,   48.4827 Ry                                         
                                                                                
   TITEL  = PAW_PBE F 08Apr2002                                                 
   LULTRA =        F    use ultrasoft PP ?                                      
   IUNSCR =        1    unscreen: 0-lin 1-nonlin 2-no                           
   RPACOR =    1.200    partial core radius                                     
   POMASS =   18.998; ZVAL   =    7.000    mass and valenz                      
   RCORE  =    1.520    outmost cutoff radius                                   
   RWIGS  =    1.500; RWIGS  =    0.794    wigner-seitz radius (au A)           
   ENMAX  =  400.000; ENMIN  =  300.000 eV                                      
   ICORE  =        2    local potential                                         
   LCOR   =        T    correct aug charges                                     
   LPAW   =        T    paw PP                                                  
   EAUG   =  613.614                                                            
   RMAX   =    1.555    core radius for proj-oper                               
   RAUG   =    1.300    factor for augmentation sphere                          
   RDEP   =    1.539    radius for radial grids                                 
   RDEPT  =    1.299    core radius for aug-charge                              
                                                                                
   Atomic configuration                                                         
    4 entries                                                                   
     n  l   j            E        occ.                                          
     1  0  0.50      -663.3661   2.0000                                         
     2  0  0.50       -29.8995   2.0000                                         
     2  1  0.50       -11.1114   5.0000                                         
     3  2  1.50       -10.8847   0.0000                                         
   Description                                                                  
     l       E           TYP  RCUT    TYP  RCUT                                 
     0    -29.8995018     23  1.200                                             
     0     -9.5240782     23  1.200                                             
     1    -11.1113914     23  1.520                                             
     1      1.3605826     23  1.520                                             
     2    -10.8846608      7  1.500                                             
  local pseudopotential read in
  partial core-charges read in
  partial kinetic energy density read in
  atomic valenz-charges read in
  non local Contribution for L=           0  read in
    real space projection operators read in
  non local Contribution for L=           0  read in
    real space projection operators read in
  non local Contribution for L=           1  read in
    real space projection operators read in
  non local Contribution for L=           1  read in
    real space projection operators read in
    PAW grid and wavefunctions read in
 
   number of l-projection  operators is LMAX  =           4
   number of lm-projection operators is LMMAX =           8
 
 POTCAR:    PAW_PBE O 08Apr2002                   
   VRHFIN =O: s2p4                                                              
   LEXCH  = PE                                                                  
   EATOM  =   432.3788 eV,   31.7789 Ry                                         
                                                                                
   TITEL  = PAW_PBE O 08Apr2002                                                 
   LULTRA =        F    use ultrasoft PP ?                                      
   IUNSCR =        1    unscreen: 0-lin 1-nonlin 2-no                           
   RPACOR =    1.200    partial core radius                                     
   POMASS =   16.000; ZVAL   =    6.000    mass and valenz                      
   RCORE  =    1.520    outmost cutoff radius                                   
   RWIGS  =    1.550; RWIGS  =    0.820    wigner-seitz radius (au A)           
   ENMAX  =  400.000; ENMIN  =  300.000 eV                                      
   ICORE  =        2    local potential                                         
   LCOR   =        T    correct aug charges                                     
   LPAW   =        T    paw PP                                                  
   EAUG   =  605.392                                                            
   DEXC   =    0.000                                                            
   RMAX   =    1.553    core radius for proj-oper                               
   RAUG   =    1.300    factor for augmentation sphere                          
   RDEP   =    1.550    radius for radial grids                                 
   RDEPT  =    1.329    core radius for aug-charge                              
                                                                                
   Atomic configuration                                                         
    4 entries                                                                   
     n  l   j            E        occ.                                          
     1  0  0.50      -514.6923   2.0000                                         
     2  0  0.50       -23.9615   2.0000                                         
     2  1  0.50        -9.0305   4.0000                                         
     3  2  1.50        -9.5241   0.0000                                         
   Description                                                                  
     l       E           TYP  RCUT    TYP  RCUT                                 
     0    -23.9615318     23  1.200                                             
     0     -9.5240782     23  1.200                                             
     1     -9.0304911     23  1.520                                             
     1      8.1634956     23  1.520                                             
     2     -9.5240782      7  1.500                                             
  local pseudopotential read in
  partial core-charges read in
  partial kinetic energy density read in
  kinetic energy density of atom read in
  atomic valenz-charges read in
  non local Contribution for L=           0  read in
    real space projection operators read in
  non local Contribution for L=           0  read in
    real space projection operators read in
  non local Contribution for L=           1  read in
    real space projection operators read in
  non local Contribution for L=           1  read in
    real space projection operators read in
    PAW grid and wavefunctions read in
 
   number of l-projection  operators is LMAX  =           4
   number of lm-projection operators is LMMAX =           8
 
 Optimization of the real space projectors (new method)

 maximal supplied QI-value         = 22.11
 optimisation between [QCUT,QGAM] = [ 11.94, 23.88] = [ 39.92,159.67] Ry 
 Optimized for a Real-space Cutoff    1.11 Angstroem

   l    n(q)    QCUT    max X(q) W(low)/X(q) W(high)/X(q)  e(spline) 
   0      8    11.939    53.033    0.41E-03    0.69E-03    0.53E-07
   0      8    11.939    34.740    0.40E-03    0.68E-03    0.52E-07
   1      7    11.939    30.949    0.26E-03    0.22E-03    0.14E-06
   1      7    11.939    19.518    0.24E-03    0.20E-03    0.13E-06
 Optimization of the real space projectors (new method)

 maximal supplied QI-value         = 25.13
 optimisation between [QCUT,QGAM] = [ 11.81, 23.88] = [ 39.08,159.64] Ry 
 Optimized for a Real-space Cutoff    1.25 Angstroem

   l    n(q)    QCUT    max X(q) W(low)/X(q) W(high)/X(q)  e(spline) 
   0      9    11.813    79.467    0.37E-04    0.68E-04    0.41E-06
   0      9    11.813    66.151    0.38E-04    0.67E-04    0.41E-06
   1      8    11.813    20.169    0.33E-03    0.30E-03    0.71E-06
   1      8    11.813    14.454    0.33E-03    0.31E-03    0.72E-06
 Optimization of the real space projectors (new method)

 maximal supplied QI-value         = 25.13
 optimisation between [QCUT,QGAM] = [ 11.81, 23.88] = [ 39.08,159.64] Ry 
 Optimized for a Real-space Cutoff    1.05 Angstroem

   l    n(q)    QCUT    max X(q) W(low)/X(q) W(high)/X(q)  e(spline) 
   0      7    11.813   115.676    0.42E-03    0.31E-03    0.23E-06
   0      7    11.813    87.132    0.42E-03    0.31E-03    0.23E-06
   1      7    11.813     4.429    0.34E-03    0.52E-04    0.16E-06
   1      7    11.813     2.733    0.27E-03    0.31E-04    0.13E-06
 Optimization of the real space projectors (new method)

 maximal supplied QI-value         = 24.76
 optimisation between [QCUT,QGAM] = [ 11.88, 24.01] = [ 39.54,161.47] Ry 
 Optimized for a Real-space Cutoff    1.05 Angstroem

   l    n(q)    QCUT    max X(q) W(low)/X(q) W(high)/X(q)  e(spline) 
   0      7    11.883    14.049    0.20E-03    0.16E-03    0.14E-06
   0      7    11.883     8.945    0.29E-03    0.20E-03    0.19E-06
   1      7    11.883     7.086    0.38E-03    0.88E-04    0.22E-06
   1      7    11.883     6.747    0.34E-03    0.55E-04    0.20E-06
 Optimization of the real space projectors (new method)

 maximal supplied QI-value         = 24.76
 optimisation between [QCUT,QGAM] = [ 11.88, 24.01] = [ 39.54,161.47] Ry 
 Optimized for a Real-space Cutoff    1.05 Angstroem

   l    n(q)    QCUT    max X(q) W(low)/X(q) W(high)/X(q)  e(spline) 
   0      7    11.883    20.381    0.32E-03    0.21E-03    0.20E-06
   0      7    11.883    15.268    0.35E-03    0.22E-03    0.22E-06
   1      7    11.883     5.964    0.44E-03    0.69E-04    0.24E-06
   1      7    11.883     5.382    0.38E-03    0.34E-04    0.20E-06
  PAW_PBE B 06Sep2000                   :
 energy of atom  1       EATOM=  -71.1703
 kinetic energy error for atom=    0.0009 (will be added to EATOM!!)
  PAW_PBE N 08Apr2002                   :
 energy of atom  2       EATOM= -264.5486
 kinetic energy error for atom=    0.0116 (will be added to EATOM!!)
  PAW_PBE C 08Apr2002                   :
 energy of atom  3       EATOM= -147.1560
 kinetic energy error for atom=    0.0066 (will be added to EATOM!!)
  PAW_PBE F 08Apr2002                   :
 energy of atom  4       EATOM= -659.6475
 kinetic energy error for atom=    0.0296 (will be added to EATOM!!)
  PAW_PBE O 08Apr2002                   :
 energy of atom  5       EATOM= -432.3788
 kinetic energy error for atom=    0.0194 (will be added to EATOM!!)
 
 
 POSCAR: B N C F O                               
  positions in direct lattice
  velocities in cartesian coordinates

 METAGGA = SCAN     LMAXTAU =  6    LMIXTAU =  F

 exchange correlation table for  LEXCH =        8
   RHO(1)=    0.500       N(1)  =     2000
   RHO(2)=  100.500       N(2)  =     4000

 VTST: version 3.1, (03/28/14)

 CHAIN: initializing optimizer
 
 OPT: Using Conjugate-Gradient optimizer
 OPT: CG, Init
 OPT: CG, FDSTEP      0.005000
 OPT: CG, MAXMOVE      0.200000
 
 CHAIN: Read ICHAIN            2
 
 POSCAR: B N C F O                               
  positions in direct lattice
  velocities in cartesian coordinates
 CHAIN: Running the Dimer method

 Dimer: -----------------
 Dimer: Input Parameters
 Dimer:   Seed      0
 Dimer: RotMax      4
 Dimer:     dR      0.005000
 Dimer:  FNMax      1.000000
 Dimer:  FNMin      0.010000
 Dimer: -----------------
 


--------------------------------------------------------------------------------------------------------


 ion  position               nearest neighbor table
   1  0.111  0.056  0.500-  42 1.45  37 1.45  43 1.45
   2  0.111  0.222  0.500-  37 1.45  38 1.45  44 1.45
   3  0.111  0.389  0.500-  38 1.45  39 1.45  45 1.45
   4  0.111  0.556  0.500-  39 1.45  46 1.45  40 1.45
   5  0.111  0.722  0.500-  40 1.45  47 1.45  41 1.45
   6  0.111  0.889  0.500-  41 1.45  48 1.45  42 1.45
   7  0.278  0.056  0.500-  48 1.45  49 1.45  43 1.45
   8  0.278  0.222  0.500-  43 1.45  44 1.45  50 1.45
   9  0.278  0.389  0.500-  44 1.45  45 1.45  51 1.45
  10  0.278  0.556  0.500-  46 1.45  52 1.45  45 1.45
  11  0.278  0.722  0.500-  53 1.45  47 1.45  46 1.45
  12  0.278  0.889  0.500-  47 1.45  54 1.45  48 1.45
  13  0.444  0.056  0.500-  54 1.45  55 1.45  49 1.45
  14  0.444  0.222  0.500-  49 1.45  56 1.45  50 1.45
  15  0.444  0.389  0.500-  57 1.45  50 1.45  51 1.45
  16  0.444  0.556  0.500-  58 1.45  52 1.45  51 1.45
  17  0.444  0.722  0.500-  59 1.45  53 1.45  52 1.45
  18  0.444  0.889  0.500-  60 1.45  54 1.45  53 1.45
  19  0.611  0.056  0.500-  61 1.45  60 1.45  55 1.45
  20  0.611  0.222  0.500-  55 1.45  62 1.45  56 1.45
  21  0.611  0.389  0.500-  63 1.45  56 1.45  57 1.45
  22  0.611  0.556  0.500-  64 1.45  58 1.45  57 1.45
  23  0.611  0.722  0.500-  65 1.45  59 1.45  58 1.45
  24  0.611  0.889  0.500-  66 1.45  60 1.45  59 1.45
  25  0.778  0.056  0.500-  66 1.45  67 1.45  61 1.45
  26  0.778  0.222  0.500-  61 1.45  68 1.45  62 1.45
  27  0.778  0.389  0.500-  69 1.45  63 1.45  62 1.45
  28  0.778  0.556  0.500-  70 1.45  64 1.45  63 1.45
  29  0.778  0.722  0.500-  71 1.45  65 1.45  64 1.45
  30  0.778  0.889  0.500-  66 1.45  72 1.45  65 1.45
  31  0.944  0.056  0.500-  72 1.45  67 1.45  37 1.45
  32  0.944  0.222  0.500-  68 1.45  67 1.45  38 1.45
  33  0.944  0.389  0.500-  68 1.45  69 1.45  39 1.45
  34  0.944  0.556  0.500-  40 1.45  70 1.45  69 1.45
  35  0.944  0.722  0.500-  70 1.45  41 1.45  71 1.45
  36  0.944  0.889  0.500-  71 1.45  42 1.45  72 1.45
  37  0.056  0.111  0.500-   2 1.45   1 1.45  31 1.45
  38  0.056  0.278  0.500-   3 1.45   2 1.45  32 1.45
  39  0.056  0.444  0.500-   3 1.45   4 1.45  33 1.45
  40  0.056  0.611  0.500-   5 1.45  34 1.45   4 1.45
  41  0.056  0.778  0.500-   6 1.45  35 1.45   5 1.45
  42  0.056  0.944  0.500-   1 1.45  36 1.45   6 1.45
  43  0.222  0.111  0.500-   8 1.45   1 1.45   7 1.45
  44  0.222  0.278  0.500-   9 1.45   8 1.45   2 1.45
  45  0.222  0.444  0.500-   9 1.45  10 1.45   3 1.45
  46  0.222  0.611  0.500-  10 1.45   4 1.45  11 1.45
  47  0.222  0.778  0.500-  12 1.45   5 1.45  11 1.45
  48  0.222  0.944  0.500-   7 1.45   6 1.45  12 1.45
  49  0.389  0.111  0.500-  14 1.45   7 1.45  13 1.45
  50  0.389  0.278  0.500-  15 1.45   8 1.45  14 1.45
  51  0.389  0.444  0.500-  15 1.45   9 1.45  16 1.45
  52  0.389  0.611  0.500-  16 1.45  10 1.45  17 1.45
  53  0.389  0.778  0.500-  11 1.45  17 1.45  18 1.45
  54  0.389  0.944  0.500-  13 1.45  12 1.45  18 1.45
  55  0.556  0.111  0.500-  20 1.45  13 1.45  19 1.45
  56  0.556  0.278  0.500-  14 1.45  21 1.45  20 1.45
  57  0.556  0.444  0.500-  15 1.45  21 1.45  22 1.45
  58  0.556  0.611  0.500-  16 1.45  22 1.45  23 1.45
  59  0.556  0.778  0.500-  17 1.45  23 1.45  24 1.45
  60  0.556  0.944  0.500-  18 1.45  19 1.45  24 1.45
  61  0.722  0.111  0.500-  26 1.45  19 1.45  25 1.45
  62  0.722  0.278  0.500-  20 1.45  26 1.45  27 1.45
  63  0.722  0.444  0.500-  21 1.45  27 1.45  28 1.45
  64  0.722  0.611  0.500-  22 1.45  28 1.45  29 1.45
  65  0.722  0.778  0.500-  23 1.45  29 1.45  30 1.45
  66  0.722  0.944  0.500-  24 1.45  25 1.45  30 1.45
  67  0.889  0.111  0.500-  32 1.45  25 1.45  31 1.45
  68  0.889  0.278  0.500-  32 1.45  33 1.45  26 1.45
  69  0.889  0.444  0.500-  27 1.45  33 1.45  34 1.45
  70  0.889  0.611  0.500-  35 1.45  28 1.45  34 1.45
  71  0.889  0.778  0.500-  36 1.45  29 1.45  35 1.45
  72  0.889  0.944  0.500-  31 1.45  30 1.45  36 1.45
  73  0.373  0.314  0.673-  76 1.33  78 1.34  77 1.34  74 1.54
  74  0.355  0.312  0.629-  80 1.33  79 1.33  73 1.54  75 1.81
  75  0.343  0.422  0.617-  82 1.21  81 1.21  74 1.81
  76  0.462  0.396  0.682-  73 1.33
  77  0.377  0.230  0.683-  73 1.34
  78  0.297  0.314  0.692-  73 1.34
  79  0.433  0.318  0.610-  74 1.33
  80  0.269  0.228  0.620-  74 1.33
  81  0.429  0.493  0.613-  75 1.21
  82  0.252  0.394  0.616-  75 1.21
 

IMPORTANT INFORMATION: All symmetrisations will be switched off!
NOSYMM: (Re-)initialisation of all symmetry stuff for point group C_1.

 
 
 KPOINTS: K-Point Grid                            

Automatic generation of k-mesh.
Space group operators:
 irot       det(A)        alpha          n_x          n_y          n_z        tau_x        tau_y        tau_z
    1     1.000000     0.000000     1.000000     0.000000     0.000000     0.000000     0.000000     0.000000
 
 Subroutine IBZKPT returns following result:
 ===========================================
 
 Found      5 irreducible k-points:
 
 Following reciprocal coordinates:
            Coordinates               Weight
  0.000000  0.000000  0.000000      1.000000
  0.333333  0.000000  0.000000      2.000000
  0.000000  0.333333  0.000000      2.000000
  0.333333  0.333333  0.000000      2.000000
 -0.333333  0.333333  0.000000      2.000000
 
 Following cartesian coordinates:
            Coordinates               Weight
  0.000000  0.000000  0.000000      1.000000
  0.022114 -0.012768  0.000000      2.000000
  0.022114  0.012768  0.000000      2.000000
  0.044229  0.000000  0.000000      2.000000
  0.000000  0.025535  0.000000      2.000000
 


--------------------------------------------------------------------------------------------------------




 Dimension of arrays:
   k-points           NKPTS =      5   k-points in BZ     NKDIM =      5   number of bands    NBANDS=    256
   number of dos      NEDOS =   1200   number of ions     NIONS =     82
   non local maximal  LDIM  =      4   non local SUM 2l+1 LMDIM =      8
   total plane-waves  NPLWV = ******
   max r-space proj   IRMAX =   2059   max aug-charges    IRDMAX=   4038
   dimension x,y,z NGX =    90 NGY =   90 NGZ =  210
   dimension x,y,z NGXF=   180 NGYF=  180 NGZF=  420
   support grid    NGXF=   180 NGYF=  180 NGZF=  420
   ions per type =              36  36   3   5   2
   NGX,Y,Z   is equivalent  to a cutoff of   9.93,  9.93,  9.94 a.u.
   NGXF,Y,Z  is equivalent  to a cutoff of  19.85, 19.85, 19.88 a.u.

 SYSTEM =  hBN                                     
 POSCAR =  B N C F O                               

 Startparameter for this run:
   NWRITE =      2    write-flag & timer
   PREC   = normal    normal or accurate (medium, high low for compatibility)
   ISTART =      0    job   : 0-new  1-cont  2-samecut
   ICHARG =      2    charge: 1-file 2-atom 10-const
   ISPIN  =      2    spin polarized calculation?
   LNONCOLLINEAR =      F non collinear calculations
   LSORBIT =      F    spin-orbit coupling
   INIWAV =      1    electr: 0-lowe 1-rand  2-diag
   LASPH  =      T    aspherical Exc in radial PAW
   METAGGA=      F    non-selfconsistent MetaGGA calc.

 Electronic Relaxation 1
   ENCUT  =  550.0 eV  40.42 Ry    6.36 a.u.  28.82 28.82 67.15*2*pi/ulx,y,z
   ENINI  =  550.0     initial cutoff
   ENAUG  =  644.9 eV  augmentation charge cutoff
   NELM   =    100;   NELMIN=  2; NELMDL=  0     # of ELM steps 
   EDIFF  = 0.1E-04   stopping-criterion for ELM
   LREAL  =      T    real-space projection
   NLSPLINE    = F    spline interpolate recip. space projectors
   LCOMPAT=      F    compatible to vasp.4.4
   GGA_COMPAT  = T    GGA compatible to vasp.4.4-vasp.4.6
   LMAXPAW     = -100 max onsite density
   LMAXMIX     =    2 max onsite mixed and CHGCAR
   VOSKOWN=      0    Vosko Wilk Nusair interpolation
   ROPT   =   -0.00050  -0.00050  -0.00050  -0.00050
   ROPT   =   -0.00050
 Ionic relaxation
   EDIFFG = -.5E-01   stopping-criterion for IOM
   NSW    =    500    number of steps for IOM
   NBLOCK =      1;   KBLOCK =    500    inner block; outer block 
   IBRION =      3    ionic relax: 0-MD 1-quasi-New 2-CG
   NFREE  =      0    steps in history (QN), initial steepest desc. (CG)
   ISIF   =      2    stress and relaxation
   IWAVPR =     11    prediction:  0-non 1-charg 2-wave 3-comb
   ISYM   =      0    0-nonsym 1-usesym 2-fastsym
   LCORR  =      T    Harris-Foulkes like correction to forces

   POTIM  = 0.0000    time-step for ionic-motion
   TEIN   =    0.0    initial temperature
   TEBEG  =    0.0;   TEEND  =   0.0 temperature during run
   SMASS  =  -3.00    Nose mass-parameter (am)
   estimated Nose-frequenzy (Omega)   =  0.10E-29 period in steps =  0.00 mass=  -0.519E-26a.u.
   SCALEE = 1.0000    scale energy and forces
   NPACO  =    256;   APACO  = 16.0  distance and # of slots for P.C.
   PSTRESS=    0.0 pullay stress

  Mass of Ions in am
   POMASS =  10.81 14.00 12.01 19.00 16.00
  Ionic Valenz
   ZVAL   =   3.00  5.00  4.00  7.00  6.00
  Atomic Wigner-Seitz radii
   RWIGS  =  -1.00 -1.00 -1.00 -1.00 -1.00
  virtual crystal weights 
   VCA    =   1.00  1.00  1.00  1.00  1.00
   NELECT =     345.9000    total number of electrons
   NUPDOWN=      -1.0000    fix difference up-down

 DOS related values:
   EMIN   = -10.00;   EMAX   =  5.00  energy-range for DOS
   EFERMI =   0.00
   ISMEAR =     0;   SIGMA  =   0.05  broadening in eV -4-tet -1-fermi 0-gaus

 Electronic relaxation 2 (details)
   IALGO  =     68    algorithm
   LDIAG  =      T    sub-space diagonalisation (order eigenvalues)
   LSUBROT=      F    optimize rotation matrix (better conditioning)
   TURBO    =      0    0=normal 1=particle mesh
   IRESTART =      0    0=no restart 2=restart with 2 vectors
   NREBOOT  =      0    no. of reboots
   NMIN     =      0    reboot dimension
   EREF     =   0.00    reference energy to select bands
   IMIX   =      4    mixing-type and parameters
     AMIX     =   0.40;   BMIX     =  1.00
     AMIX_MAG =   1.60;   BMIX_MAG =  1.00
     AMIN     =   0.10
     WC   =   100.;   INIMIX=   1;  MIXPRE=   1;  MAXMIX= -45

 Intra band minimization:
   WEIMIN = 0.0010     energy-eigenvalue tresh-hold
   EBREAK =  0.98E-08  absolut break condition
   DEPER  =   0.30     relativ break condition  

   TIME   =   0.40     timestep for ELM

  volume/ion in A,a.u.               =      84.26       568.60
  Fermi-wavevector in a.u.,A,eV,Ry     =   0.603369  1.140202  4.953256  0.364054
  Thomas-Fermi vector in A             =   1.656324
 
 Write flags
   LWAVE        =      T    write WAVECAR
   LDOWNSAMPLE  =      F    k-point downsampling of WAVECAR
   LCHARG       =      F    write CHGCAR
   LVTOT        =      F    write LOCPOT, total local potential
   LVHAR        =      F    write LOCPOT, Hartree potential only
   LELF         =      F    write electronic localiz. function (ELF)
   LORBIT       =     11    0 simple, 1 ext, 2 COOP (PROOUT), +10 PAW based schemes


 Dipole corrections
   LMONO  =      F    monopole corrections only (constant potential shift)
   LDIPOL =      F    correct potential (dipole corrections)
   IDIPOL =      0    1-x, 2-y, 3-z, 4-all directions 
   EPSILON=  1.0000000 bulk dielectric constant

 Exchange correlation treatment:
   GGA     =    --    GGA type
   LEXCH   =     8    internal setting for exchange type
   VOSKOWN=      0    Vosko Wilk Nusair interpolation
   LHFCALC =     F    Hartree Fock is set to
   LHFONE  =     F    Hartree Fock one center treatment
   AEXX    =    0.0000 exact exchange contribution

 Linear response parameters
   LEPSILON=     F    determine dielectric tensor
   LRPA    =     F    only Hartree local field effects (RPA)
   LNABLA  =     F    use nabla operator in PAW spheres
   LVEL    =     F    velocity operator in full k-point grid
   LINTERFAST=   F  fast interpolation
   KINTER  =     0    interpolate to denser k-point grid
   CSHIFT  =0.1000    complex shift for real part using Kramers Kronig
   OMEGAMAX=  -1.0    maximum frequency
   DEG_THRESHOLD= 0.2000000E-02 threshold for treating states as degnerate
   RTIME   =   -0.100 relaxation time in fs
  (WPLASMAI=    0.000 imaginary part of plasma frequency in eV, 0.658/RTIME)
   DFIELD  = 0.0000000 0.0000000 0.0000000 field for delta impulse in time
 
 Orbital magnetization related:
   ORBITALMAG=     F  switch on orbital magnetization
   LCHIMAG   =     F  perturbation theory with respect to B field
   DQ        =  0.001000  dq finite difference perturbation B field
   LLRAUG    =     F  two centre corrections for induced B field

 Solvation model:
   LSOL    =     T         switch on solvation model
   EB_K    = 78.400000     relative permittivity of the bulk solvent
   SIGMA_K =  0.600000     width of the dielectric cavity
   NC_K    =  0.002500     cutoff charge density
   TAU     =  0.000000     cavity surface tension
   LAMBDA_D_K    =  3.040000     Debye length in Angstroms
   LRHOB     =     F     write boundcharge  density
   LRHOION     =     F     write ioniccharge density



--------------------------------------------------------------------------------------------------------


 quickmin algorithm: (dynamic with friction)
   using selective dynamics as specified on POSCAR
 charge density and potential will be updated during run
 spin polarized calculation
 RMM-DIIS sequential band-by-band and
  variant of blocked Davidson during initial phase
 perform sub-space diagonalisation
    before iterative eigenvector-optimisation
 modified Broyden-mixing scheme, WC =      100.0
 initial mixing is a Kerker type mixing with AMIX =  0.4000 and BMIX =      1.0000
 Hartree-type preconditioning will be used
 using additional bands           83
 real space projection scheme for non local part
 use partial core corrections
 calculate Harris-corrections to forces 
   (improved forces if not selfconsistent)
 use gradient corrections 
 use of overlap-Matrix (Vanderbilt PP)
 Gauss-broadening in eV      SIGMA  =   0.05


--------------------------------------------------------------------------------------------------------


  energy-cutoff  :      550.00
  volume of cell :     6909.18
      direct lattice vectors                 reciprocal lattice vectors
     7.536550057-13.053746059  0.000000000     0.066343353 -0.038303181  0.000000000
     7.536550057 13.053746059  0.000000000     0.066343353  0.038303181  0.000000000
     0.000000000  0.000000000 35.114664386     0.000000000  0.000000000  0.028478131

  length of vectors
    15.073150730 15.073150730 35.114664386     0.076606620  0.076606620  0.028478131


 
 k-points in units of 2pi/SCALE and weight: K-Point Grid                            
   0.00000000  0.00000000  0.00000000       0.111
   0.02211445 -0.01276773  0.00000000       0.222
   0.02211445  0.01276773  0.00000000       0.222
   0.04422890  0.00000000  0.00000000       0.222
   0.00000000  0.02553545  0.00000000       0.222
 
 k-points in reciprocal lattice and weights: K-Point Grid                            
   0.00000000  0.00000000  0.00000000       0.111
   0.33333333  0.00000000  0.00000000       0.222
   0.00000000  0.33333333  0.00000000       0.222
   0.33333333  0.33333333  0.00000000       0.222
  -0.33333333  0.33333333  0.00000000       0.222
 
 position of ions in fractional coordinates (direct lattice) 
   0.11108803  0.05555974  0.50001994
   0.11108767  0.22222837  0.49998351
   0.11109520  0.38889547  0.49995893
   0.11110861  0.55557032  0.49996537
   0.11110612  0.72223813  0.50002082
   0.11110383  0.88889580  0.50004666
   0.27777072  0.05555793  0.50004415
   0.27775272  0.22220982  0.49998054
   0.27775351  0.38889139  0.49995282
   0.27777361  0.55557091  0.49995579
   0.27777352  0.72223595  0.49997453
   0.27777123  0.88889812  0.50003784
   0.44444049  0.05556045  0.50004971
   0.44445118  0.22221477  0.50005331
   0.44446728  0.38891115  0.49999346
   0.44445255  0.55558863  0.49999023
   0.44444216  0.72224092  0.49996455
   0.44443754  0.88890187  0.50000594
   0.61110622  0.05557036  0.50003445
   0.61110862  0.22222906  0.50004834
   0.61111828  0.38890390  0.50001964
   0.61111415  0.55558474  0.49997942
   0.61110579  0.72224433  0.49996891
   0.61110008  0.88890590  0.49999351
   0.77776752  0.05557441  0.50002333
   0.77777267  0.22224054  0.50002621
   0.77777710  0.38891412  0.50002439
   0.77777319  0.55558105  0.50000498
   0.77776847  0.72224423  0.49999700
   0.77776495  0.88890981  0.50000980
   0.94442694  0.05557027  0.50001807
   0.94442948  0.22224201  0.49999263
   0.94444060  0.38891326  0.49999041
   0.94444327  0.55558139  0.50001457
   0.94443801  0.72223969  0.50003070
   0.94443173  0.88890129  0.50003369
   0.05554421  0.11112791  0.50000648
   0.05554905  0.27779305  0.49996734
   0.05555507  0.44446150  0.49995683
   0.05555314  0.61112974  0.49999916
   0.05554807  0.77779259  0.50004671
   0.05554541  0.94445692  0.50004612
   0.22220940  0.11111878  0.50001218
   0.22222451  0.27779872  0.49998554
   0.22222185  0.44445623  0.49995029
   0.22221918  0.61112252  0.49994425
   0.22221677  0.77779058  0.50001291
   0.22221627  0.94445662  0.50005521
   0.38888383  0.11112911  0.50006627
   0.38887295  0.27779879  0.50005203
   0.38888441  0.44445155  0.50005707
   0.38888134  0.61111865  0.49996686
   0.38888142  0.77778940  0.49997086
   0.38888028  0.94445597  0.50003793
   0.55554779  0.11112313  0.50005064
   0.55554579  0.27779359  0.50005843
   0.55554946  0.44445924  0.49999167
   0.55554549  0.61112525  0.49996391
   0.55554605  0.77779280  0.49996083
   0.55554485  0.94446156  0.50001059
   0.72221442  0.11113410  0.50003804
   0.72221522  0.27779806  0.50003864
   0.72221873  0.44446602  0.50001312
   0.72221389  0.61113049  0.49998248
   0.72220966  0.77779705  0.49998495
   0.72220936  0.94446510  0.50001157
   0.88887849  0.11113318  0.50001437
   0.88888317  0.27780337  0.49999774
   0.88888568  0.44446913  0.50001491
   0.88888217  0.61113201  0.50002156
   0.88887843  0.77779428  0.50002448
   0.88887682  0.94446282  0.50002940
   0.37343770  0.31380869  0.67279896
   0.35500358  0.31199827  0.62947530
   0.34290054  0.42226882  0.61713674
   0.46190409  0.39647791  0.68232932
   0.37747678  0.22978222  0.68260302
   0.29675099  0.31394969  0.69182832
   0.43343840  0.31780509  0.61013328
   0.26909671  0.22756950  0.61987251
   0.42917036  0.49328637  0.61321960
   0.25248088  0.39399135  0.61635262
 
 position of ions in cartesian coordinates  (Angst):
   1.25594926 -0.72485211 17.55803230
   2.51205301  1.45080251 17.55675308
   3.76820475  3.62633420 17.55589003
   5.02445912  5.80189023 17.55611620
   6.28054062  7.97756203 17.55806324
   7.53654725 10.15309879 17.55897047
   2.51214802 -2.90070927 17.55888237
   3.76799272 -0.72504288 17.55664870
   5.02420268  1.45076569 17.55567535
   6.28054273  3.62629536 17.55577967
   7.53662144  5.80189964 17.55643788
   8.79266195  7.97749513 17.55866076
   3.76828206 -5.07634126 17.55907784
   5.02436135 -2.90101768 17.55920432
   6.28079824 -0.72521558 17.55710243
   7.53686046  1.45074216 17.55698923
   8.79276542  3.62631437 17.55608751
  10.04877916  5.80192449 17.55754062
   5.02444140 -7.25182406 17.55854196
   6.28049115 -5.07633510 17.55902951
   7.53671722 -2.90073016 17.55802175
   8.79288453 -0.72486679 17.55660950
  10.04885985  1.45077428 17.55624032
  11.30487016  3.62640673 17.55710436
   6.28052318 -9.42732538 17.55815154
   7.53664966 -7.25177534 17.55825242
   8.79282676 -5.07611854 17.55818854
  10.04889092 -2.90043978 17.55750707
  11.30492083 -0.72479929 17.55722673
  12.56097779  1.45085684 17.55767633
   7.53652900-11.60290927 17.55796684
   8.79267810 -9.42725189 17.55707346
  10.04888808 -7.25171288 17.55699533
  11.30501095 -5.07610422 17.55784381
  12.56099991 -2.90052035 17.55841031
  13.81700605 -0.72488026 17.55851535
   1.25613284  0.72557550 17.55755960
   2.51224939  2.90111668 17.55618542
   3.76839988  5.07668573 17.55581644
   5.02448885  7.25235581 17.55730277
   6.28051360  9.42799655 17.55897231
   7.53656764 11.60362509 17.55895163
   2.51214454 -1.45014870 17.55775987
   3.76845005  0.72545165 17.55682455
   5.02445268  2.90099117 17.55558679
   6.28052148  5.07664546 17.55537464
   7.53660541  7.25231939 17.55778566
   8.79268864  9.42794208 17.55927097
   3.76837254 -3.62573969 17.55965917
   5.02440492 -1.44993382 17.55915915
   6.28047816  0.72535930 17.55933633
   7.53655003  2.90102944 17.55616836
   8.79267307  5.07670595 17.55630883
  10.04875537  7.25234393 17.55866396
   5.02439877 -5.80140676 17.55911024
   6.28050396 -3.62570677 17.55938385
   7.53661564 -1.45014350 17.55703970
   8.79267248  0.72552408 17.55606481
  10.04877501  2.90115256 17.55595676
  11.30487337  5.07681991 17.55770389
   6.28057282 -7.97688741 17.55866803
   7.53665017 -5.80130876 17.55868889
   8.79277803 -3.62571329 17.55779295
  10.04881663 -1.45005454 17.55671711
  11.30487563  0.72562376 17.55680387
  12.56097550  2.90127002 17.55773863
   7.53663802-10.15248977 17.55783682
   8.79279158 -7.97688053 17.55725275
  10.04889529 -5.80130074 17.55785577
  11.30493195 -3.62568010 17.55808914
  12.56096230 -1.45006420 17.55819166
  13.81705601  0.72560550 17.55836441
   5.17946677 -0.77838193 23.62510985
   5.02689283 -0.56138040 22.10381393
   5.76673723  1.03605333 21.67054956
   6.46923893 -0.85405678 23.95976523
   4.57663787 -1.92796736 23.96937613
   4.60257628  0.22450751 24.29331943
   5.66178419 -1.50944789 21.42462528
   3.74314978 -0.54208573 21.76661519
   6.95214133  0.83695401 21.53300030
   4.87217034  1.84724171 21.64301548
 


--------------------------------------------------------------------------------------------------------


 k-point  1 :   0.0000 0.0000 0.0000  plane waves:  202395
 k-point  2 :   0.3333 0.0000 0.0000  plane waves:  202358
 k-point  3 :   0.0000 0.3333 0.0000  plane waves:  202358
 k-point  4 :   0.3333 0.3333 0.0000  plane waves:  202335
 k-point  5 :  -0.3333 0.3333 0.0000  plane waves:  202358

 maximum and minimum number of plane-waves per node :    202395   202335

 maximum number of plane-waves:    202395
 maximum index in each direction: 
   IXMAX=   29   IYMAX=   28   IZMAX=   67
   IXMIN=  -29   IYMIN=  -29   IZMIN=  -67


 serial   3D FFT for wavefunctions
 parallel 3D FFT for charge:
    minimum data exchange during FFTs selected (reduces bandwidth)


 total amount of memory used by VASP MPI-rank0  1602132. kBytes
=======================================================================

   base      :      30000. kBytes
   nonlr-proj:      12083. kBytes
   fftplans  :      65180. kBytes
   grid      :     454720. kBytes
   one-center:        503. kBytes
   wavefun   :    1039646. kBytes
 
     INWAV:  cpu time    0.0001: real time    0.0004
 Broyden mixing: mesh for mixing (old mesh)
   NGX = 57   NGY = 57   NGZ =135
  (NGX  =180   NGY  =180   NGZ  =420)
  gives a total of 438615 points

 initial charge density was supplied:
 charge density of overlapping atoms calculated
 number of electron     347.0000000 magnetization      82.0000000
 keeping initial charge density in first step


--------------------------------------------------------------------------------------------------------


 Maximum index for non-local projection operator         1953
 Maximum index for augmentation-charges          483 (set IRDMAX)


--------------------------------------------------------------------------------------------------------


 First call to EWALD:  gamma=   0.093
 Maximum number of real-space cells 4x 4x 2
 Maximum number of reciprocal cells 2x 2x 5

    FEWALD:  cpu time    0.0361: real time    0.0354


--------------------------------------- Iteration      1(   1)  ---------------------------------------


    POTLOK:  cpu time   82.5728: real time   82.6345
    SETDIJ:  cpu time    0.7512: real time    0.4867
     EDDAV:  cpu time  153.1301: real time   92.0504
       DOS:  cpu time    0.0529: real time    0.0513
    --------------------------------------------
      LOOP:  cpu time  236.5070: real time  175.2229

 eigenvalue-minimisations  :  6104
 total energy-change (2. order) : 0.3496910E+04  (-0.1177310E+05)
 number of electron     347.0000000 magnetization      82.0000000
 augmentation part      347.0000000 magnetization      82.0000000

 Free energy of the ion-electron system (eV)
  ---------------------------------------------------
  alpha Z        PSCENC =        92.14382556
  Ewald energy   TEWEN  =    110978.71748852
  -Hartree energ DENC   =   -123667.91827576
  -exchange      EXHF   =         0.00000000
  -V(xc)+E(xc)   XCENC  =      1477.79447300
  PAW double counting   =     12389.81687870   -12541.43845553
  entropy T*S    EENTRO =        -0.05503752
  eigenvalues    EBANDS =     -2301.28353798
  atomic energy  EATOM  =     16689.68470767
  Solvation  Ediel_sol  =       379.44830445
  ---------------------------------------------------
  free energy    TOTEN  =      3496.91037111 eV

  energy without entropy =     3496.96540863  energy(sigma->0) =     3496.93788987


--------------------------------------------------------------------------------------------------------




--------------------------------------- Iteration      1(   2)  ---------------------------------------


     EDDAV:  cpu time  188.1649: real time  111.4247
       DOS:  cpu time    0.0023: real time    0.0011
    --------------------------------------------
      LOOP:  cpu time  188.1672: real time  111.4259

 eigenvalue-minimisations  :  8144
 total energy-change (2. order) :-0.3405114E+04  (-0.3106964E+04)
 number of electron     347.0000000 magnetization      82.0000000
 augmentation part      347.0000000 magnetization      82.0000000

 Free energy of the ion-electron system (eV)
  ---------------------------------------------------
  alpha Z        PSCENC =        92.14382556
  Ewald energy   TEWEN  =    110978.71748852
  -Hartree energ DENC   =   -123667.91827576
  -exchange      EXHF   =         0.00000000
  -V(xc)+E(xc)   XCENC  =      1477.79447300
  PAW double counting   =     12389.81687870   -12541.43845553
  entropy T*S    EENTRO =        -0.00406713
  eigenvalues    EBANDS =     -5706.44864891
  atomic energy  EATOM  =     16689.68470767
  Solvation  Ediel_sol  =       379.44830445
  ---------------------------------------------------
  free energy    TOTEN  =        91.79623058 eV

  energy without entropy =       91.80029771  energy(sigma->0) =       91.79826414


--------------------------------------------------------------------------------------------------------




--------------------------------------- Iteration      1(   3)  ---------------------------------------


     EDDAV:  cpu time  162.2428: real time   97.1721
       DOS:  cpu time    0.0028: real time    0.0014
    --------------------------------------------
      LOOP:  cpu time  162.2457: real time   97.1736

 eigenvalue-minimisations  :  6592
 total energy-change (2. order) :-0.9432213E+03  (-0.9356438E+03)
 number of electron     347.0000000 magnetization      82.0000000
 augmentation part      347.0000000 magnetization      82.0000000

 Free energy of the ion-electron system (eV)
  ---------------------------------------------------
  alpha Z        PSCENC =        92.14382556
  Ewald energy   TEWEN  =    110978.71748852
  -Hartree energ DENC   =   -123667.91827576
  -exchange      EXHF   =         0.00000000
  -V(xc)+E(xc)   XCENC  =      1477.79447300
  PAW double counting   =     12389.81687870   -12541.43845553
  entropy T*S    EENTRO =        -0.00454909
  eigenvalues    EBANDS =     -6649.66948027
  atomic energy  EATOM  =     16689.68470767
  Solvation  Ediel_sol  =       379.44830445
  ---------------------------------------------------
  free energy    TOTEN  =      -851.42508274 eV

  energy without entropy =     -851.42053365  energy(sigma->0) =     -851.42280820


--------------------------------------------------------------------------------------------------------




--------------------------------------- Iteration      1(   4)  ---------------------------------------


     EDDAV:  cpu time  158.1254: real time   94.7676
       DOS:  cpu time    0.0030: real time    0.0015
    --------------------------------------------
      LOOP:  cpu time  158.1284: real time   94.7691

 eigenvalue-minimisations  :  6344
 total energy-change (2. order) :-0.4801749E+02  (-0.4759514E+02)
 number of electron     347.0000000 magnetization      82.0000000
 augmentation part      347.0000000 magnetization      82.0000000

 Free energy of the ion-electron system (eV)
  ---------------------------------------------------
  alpha Z        PSCENC =        92.14382556
  Ewald energy   TEWEN  =    110978.71748852
  -Hartree energ DENC   =   -123667.91827576
  -exchange      EXHF   =         0.00000000
  -V(xc)+E(xc)   XCENC  =      1477.79447300
  PAW double counting   =     12389.81687870   -12541.43845553
  entropy T*S    EENTRO =        -0.00332620
  eigenvalues    EBANDS =     -6697.68818867
  atomic energy  EATOM  =     16689.68470767
  Solvation  Ediel_sol  =       379.44830445
  ---------------------------------------------------
  free energy    TOTEN  =      -899.44256825 eV

  energy without entropy =     -899.43924206  energy(sigma->0) =     -899.44090515


--------------------------------------------------------------------------------------------------------




--------------------------------------- Iteration      1(   5)  ---------------------------------------


     EDDAV:  cpu time  159.6105: real time   95.6240
       DOS:  cpu time    0.0030: real time    0.0015
    CHARGE:  cpu time   15.8841: real time   14.9154
    MIXING:  cpu time    0.1521: real time    0.1256
    --------------------------------------------
      LOOP:  cpu time  175.6497: real time  110.6665

 eigenvalue-minimisations  :  6488
 total energy-change (2. order) :-0.1004148E+01  (-0.1000510E+01)
 number of electron     345.8999710 magnetization      77.9346339
 augmentation part       18.3106883 magnetization      78.2955809

 Broyden mixing:
  rms(total) = 0.65996E+01    rms(broyden)= 0.65986E+01
  rms(prec ) = 0.66963E+01
  weight for this iteration     100.00

 Free energy of the ion-electron system (eV)
  ---------------------------------------------------
  alpha Z        PSCENC =        92.14382556
  Ewald energy   TEWEN  =    110978.71748852
  -Hartree energ DENC   =   -123667.91827576
  -exchange      EXHF   =         0.00000000
  -V(xc)+E(xc)   XCENC  =      1477.79447300
  PAW double counting   =     12389.81687870   -12541.43845553
  entropy T*S    EENTRO =        -0.00331859
  eigenvalues    EBANDS =     -6698.69234450
  atomic energy  EATOM  =     16689.68470767
  Solvation  Ediel_sol  =       379.44830445
  ---------------------------------------------------
  free energy    TOTEN  =      -900.44671648 eV

  energy without entropy =     -900.44339789  energy(sigma->0) =     -900.44505718


--------------------------------------------------------------------------------------------------------




--------------------------------------- Iteration      1(   6)  ---------------------------------------


    POTLOK:  cpu time   77.4663: real time   77.6379
    SETDIJ:  cpu time    1.1865: real time    0.7832
    EDDIAG:  cpu time   22.9716: real time   18.3620
  RMM-DIIS:  cpu time  172.7302: real time  104.7915
    ORTHCH:  cpu time    2.1017: real time    1.0616
       DOS:  cpu time    0.0039: real time    0.0019
    CHARGE:  cpu time   15.8607: real time   14.8858
    MIXING:  cpu time    0.1645: real time    0.1214
    --------------------------------------------
      LOOP:  cpu time  292.4855: real time  217.6455

 eigenvalue-minimisations  :  5120
 total energy-change (2. order) : 0.2405444E+03  (-0.2881243E+02)
 number of electron     345.8999733 magnetization      73.4880945
 augmentation part       17.3592062 magnetization      70.4824637

 Broyden mixing:
  rms(total) = 0.33387E+01    rms(broyden)= 0.33383E+01
  rms(prec ) = 0.33836E+01
  weight for this iteration     100.00

 eigenvalues of (default mixing * dielectric matrix)
  average eigenvalue GAMMA=   1.0267
  1.0267

 Free energy of the ion-electron system (eV)
  ---------------------------------------------------
  alpha Z        PSCENC =        92.14382556
  Ewald energy   TEWEN  =    110978.71748852
  -Hartree energ DENC   =   -124237.36938538
  -exchange      EXHF   =         0.00000000
  -V(xc)+E(xc)   XCENC  =      1624.41287269
  PAW double counting   =     20250.43227030   -20408.86847741
  entropy T*S    EENTRO =        -0.00656613
  eigenvalues    EBANDS =     -5904.11146597
  atomic energy  EATOM  =     16689.68470767
  Solvation  Ediel_sol  =       255.06240580
  ---------------------------------------------------
  free energy    TOTEN  =      -659.90232434 eV

  energy without entropy =     -659.89575821  energy(sigma->0) =     -659.89904128


--------------------------------------------------------------------------------------------------------




--------------------------------------- Iteration      1(   7)  ---------------------------------------


    POTLOK:  cpu time   76.2603: real time   76.4318
    SETDIJ:  cpu time    1.1136: real time    0.7104
    EDDIAG:  cpu time   22.8887: real time   18.3012
  RMM-DIIS:  cpu time  173.0229: real time  105.0100
    ORTHCH:  cpu time    2.1283: real time    1.0690
       DOS:  cpu time    0.0078: real time    0.0039
    CHARGE:  cpu time   15.8049: real time   14.8178
    MIXING:  cpu time    0.1601: real time    0.1055
    --------------------------------------------
      LOOP:  cpu time  291.3865: real time  216.4496

 eigenvalue-minimisations  :  5125
 total energy-change (2. order) :-0.4276068E+02  (-0.7537509E+01)
 number of electron     345.8999752 magnetization      69.5145126
 augmentation part       16.2415922 magnetization      68.0418509

 Broyden mixing:
  rms(total) = 0.23705E+01    rms(broyden)= 0.23700E+01
  rms(prec ) = 0.23936E+01
  weight for this iteration     100.00

 eigenvalues of (default mixing * dielectric matrix)
  average eigenvalue GAMMA=   1.0633
  1.3454  0.7812

 Free energy of the ion-electron system (eV)
  ---------------------------------------------------
  alpha Z        PSCENC =        92.14382556
  Ewald energy   TEWEN  =    110978.71748852
  -Hartree energ DENC   =   -124583.68652358
  -exchange      EXHF   =         0.00000000
  -V(xc)+E(xc)   XCENC  =      1618.01723682
  PAW double counting   =     28408.05845334   -28571.94911494
  entropy T*S    EENTRO =        -0.00794762
  eigenvalues    EBANDS =     -5427.11627167
  atomic energy  EATOM  =     16689.68470767
  Solvation  Ediel_sol  =        93.47514054
  ---------------------------------------------------
  free energy    TOTEN  =      -702.66300535 eV

  energy without entropy =     -702.65505773  energy(sigma->0) =     -702.65903154


--------------------------------------------------------------------------------------------------------




--------------------------------------- Iteration      1(   8)  ---------------------------------------


    POTLOK:  cpu time   75.0016: real time   75.1759
    SETDIJ:  cpu time    1.1198: real time    0.7163
    EDDIAG:  cpu time   22.8915: real time   18.2695
  RMM-DIIS:  cpu time  172.6564: real time  104.7427
    ORTHCH:  cpu time    2.1368: real time    1.0784
       DOS:  cpu time    0.3855: real time    0.1932
    CHARGE:  cpu time   15.9175: real time   14.9151
    MIXING:  cpu time    0.1547: real time    0.1052
    --------------------------------------------
      LOOP:  cpu time  290.2638: real time  215.1963

 eigenvalue-minimisations  :  5120
 total energy-change (2. order) :-0.3615910E+01  (-0.1356476E+01)
 number of electron     345.8999754 magnetization      64.0281745
 augmentation part       16.1759907 magnetization      61.3268070

 Broyden mixing:
  rms(total) = 0.18154E+01    rms(broyden)= 0.18151E+01
  rms(prec ) = 0.18315E+01
  weight for this iteration     100.00

 eigenvalues of (default mixing * dielectric matrix)
  average eigenvalue GAMMA=   1.1185
  1.5061  1.2162  0.6331

 Free energy of the ion-electron system (eV)
  ---------------------------------------------------
  alpha Z        PSCENC =        92.14382556
  Ewald energy   TEWEN  =    110978.71748852
  -Hartree energ DENC   =   -124688.91486822
  -exchange      EXHF   =         0.00000000
  -V(xc)+E(xc)   XCENC  =      1621.19162419
  PAW double counting   =     33763.62042533   -33929.40240340
  entropy T*S    EENTRO =        -0.01016780
  eigenvalues    EBANDS =     -5223.74601282
  atomic energy  EATOM  =     16689.68470767
  Solvation  Ediel_sol  =        -9.56353459
  ---------------------------------------------------
  free energy    TOTEN  =      -706.27891556 eV

  energy without entropy =     -706.26874776  energy(sigma->0) =     -706.27383166


--------------------------------------------------------------------------------------------------------




--------------------------------------- Iteration      1(   9)  ---------------------------------------


    POTLOK:  cpu time   76.2933: real time   76.4691
    SETDIJ:  cpu time    1.0761: real time    0.6728
    EDDIAG:  cpu time   22.9350: real time   18.2983
  RMM-DIIS:  cpu time  172.7158: real time  104.7667
    ORTHCH:  cpu time    2.1212: real time    1.0654
       DOS:  cpu time    0.0302: real time    0.0152
    CHARGE:  cpu time   15.8322: real time   14.8541
    MIXING:  cpu time    0.1660: real time    0.1144
    --------------------------------------------
      LOOP:  cpu time  291.1698: real time  216.2558

 eigenvalue-minimisations  :  5120
 total energy-change (2. order) :-0.2617743E+02  (-0.1523089E+01)
 number of electron     345.8999748 magnetization      57.7716163
 augmentation part       16.2330864 magnetization      55.0748323

 Broyden mixing:
  rms(total) = 0.12150E+01    rms(broyden)= 0.12149E+01
  rms(prec ) = 0.12223E+01
  weight for this iteration     100.00

 eigenvalues of (default mixing * dielectric matrix)
  average eigenvalue GAMMA=   1.3430
  2.5264  1.4015  0.7810  0.6630

 Free energy of the ion-electron system (eV)
  ---------------------------------------------------
  alpha Z        PSCENC =        92.14382556
  Ewald energy   TEWEN  =    110978.71748852
  -Hartree energ DENC   =   -124718.85291737
  -exchange      EXHF   =         0.00000000
  -V(xc)+E(xc)   XCENC  =      1609.56652521
  PAW double counting   =     38689.89252035   -38856.65356773
  entropy T*S    EENTRO =        -0.01793918
  eigenvalues    EBANDS =     -5074.37257012
  atomic energy  EATOM  =     16689.68470767
  Solvation  Ediel_sol  =      -142.56441945
  ---------------------------------------------------
  free energy    TOTEN  =      -732.45634653 eV

  energy without entropy =     -732.43840735  energy(sigma->0) =     -732.44737694


--------------------------------------------------------------------------------------------------------




--------------------------------------- Iteration      1(  10)  ---------------------------------------


    POTLOK:  cpu time   76.2425: real time   76.4185
    SETDIJ:  cpu time    1.0542: real time    0.6506
    EDDIAG:  cpu time   22.9226: real time   18.3141
  RMM-DIIS:  cpu time  172.7935: real time  104.8932
    ORTHCH:  cpu time    2.1116: real time    1.0772
       DOS:  cpu time    0.0040: real time    0.0020
    CHARGE:  cpu time   15.8897: real time   14.9158
    MIXING:  cpu time    0.1796: real time    0.1240
    --------------------------------------------
      LOOP:  cpu time  291.1976: real time  216.3953

 eigenvalue-minimisations  :  5120
 total energy-change (2. order) :-0.3147721E+02  (-0.1637068E+01)
 number of electron     345.8999747 magnetization      56.2099139
 augmentation part       16.1292099 magnetization      55.3722435

 Broyden mixing:
  rms(total) = 0.12291E+01    rms(broyden)= 0.12287E+01
  rms(prec ) = 0.12597E+01
  weight for this iteration     100.00

 eigenvalues of (default mixing * dielectric matrix)
  average eigenvalue GAMMA=   1.1707
  2.6327  1.3702  0.7794  0.5356  0.5356

 Free energy of the ion-electron system (eV)
  ---------------------------------------------------
  alpha Z        PSCENC =        92.14382556
  Ewald energy   TEWEN  =    110978.71748852
  -Hartree energ DENC   =   -124734.84081009
  -exchange      EXHF   =         0.00000000
  -V(xc)+E(xc)   XCENC  =      1591.07129941
  PAW double counting   =     41976.33162757   -42143.99191735
  entropy T*S    EENTRO =        -0.00316813
  eigenvalues    EBANDS =     -4954.88472995
  atomic energy  EATOM  =     16689.68470767
  Solvation  Ediel_sol  =      -258.16188368
  ---------------------------------------------------
  free energy    TOTEN  =      -763.93356046 eV

  energy without entropy =     -763.93039234  energy(sigma->0) =     -763.93197640


--------------------------------------------------------------------------------------------------------




--------------------------------------- Iteration      1(  11)  ---------------------------------------


    POTLOK:  cpu time   73.9570: real time   74.1284
    SETDIJ:  cpu time    1.0652: real time    0.6617
    EDDIAG:  cpu time   22.8924: real time   18.2698
  RMM-DIIS:  cpu time  172.8366: real time  104.8489
    ORTHCH:  cpu time    2.1312: real time    1.0705
       DOS:  cpu time    0.0054: real time    0.0027
    CHARGE:  cpu time   15.8505: real time   14.8493
    MIXING:  cpu time    0.1796: real time    0.1281
    --------------------------------------------
      LOOP:  cpu time  288.9180: real time  213.9595

 eigenvalue-minimisations  :  5120
 total energy-change (2. order) :-0.3495299E+01  (-0.1885657E+00)
 number of electron     345.8999745 magnetization      47.0162814
 augmentation part       16.1806050 magnetization      45.1875670

 Broyden mixing:
  rms(total) = 0.94701E+00    rms(broyden)= 0.94652E+00
  rms(prec ) = 0.95297E+00
  weight for this iteration     100.00

 eigenvalues of (default mixing * dielectric matrix)
  average eigenvalue GAMMA=   1.1680
  2.5777  1.6429  0.8853  0.8853  0.5757  0.4414

 Free energy of the ion-electron system (eV)
  ---------------------------------------------------
  alpha Z        PSCENC =        92.14382556
  Ewald energy   TEWEN  =    110978.71748852
  -Hartree energ DENC   =   -124733.99335285
  -exchange      EXHF   =         0.00000000
  -V(xc)+E(xc)   XCENC  =      1588.51848400
  PAW double counting   =     42044.89179012   -42212.52371254
  entropy T*S    EENTRO =        -0.02148062
  eigenvalues    EBANDS =     -4949.09728609
  atomic energy  EATOM  =     16689.68470767
  Solvation  Ediel_sol  =      -265.74932342
  ---------------------------------------------------
  free energy    TOTEN  =      -767.42885965 eV

  energy without entropy =     -767.40737903  energy(sigma->0) =     -767.41811934


--------------------------------------------------------------------------------------------------------




--------------------------------------- Iteration      1(  12)  ---------------------------------------


    POTLOK:  cpu time   75.6113: real time   75.7809
    SETDIJ:  cpu time    1.2082: real time    0.8051
    EDDIAG:  cpu time   22.9692: real time   18.3424
  RMM-DIIS:  cpu time  172.6761: real time  104.7450
    ORTHCH:  cpu time    2.1227: real time    1.0664
       DOS:  cpu time    0.0193: real time    0.0096
    CHARGE:  cpu time   15.8818: real time   14.9003
    MIXING:  cpu time    0.1818: real time    0.1307
    --------------------------------------------
      LOOP:  cpu time  290.6703: real time  215.7804

 eigenvalue-minimisations  :  5120
 total energy-change (2. order) :-0.1793836E+02  (-0.1371426E+01)
 number of electron     345.8999746 magnetization      34.8913319
 augmentation part       16.0460733 magnetization      33.5484152

 Broyden mixing:
  rms(total) = 0.75863E+00    rms(broyden)= 0.75850E+00
  rms(prec ) = 0.77069E+00
  weight for this iteration     100.00

 eigenvalues of (default mixing * dielectric matrix)
  average eigenvalue GAMMA=   1.5020
  4.2383  2.3967  1.3437  0.7368  0.7368  0.6237  0.4377

 Free energy of the ion-electron system (eV)
  ---------------------------------------------------
  alpha Z        PSCENC =        92.14382556
  Ewald energy   TEWEN  =    110978.71748852
  -Hartree energ DENC   =   -124674.20044198
  -exchange      EXHF   =         0.00000000
  -V(xc)+E(xc)   XCENC  =      1576.26034645
  PAW double counting   =     41094.04320846   -41261.11840580
  entropy T*S    EENTRO =        -0.01765249
  eigenvalues    EBANDS =     -4963.47195778
  atomic energy  EATOM  =     16689.68470767
  Solvation  Ediel_sol  =      -317.40833756
  ---------------------------------------------------
  free energy    TOTEN  =      -785.36721894 eV

  energy without entropy =     -785.34956646  energy(sigma->0) =     -785.35839270


--------------------------------------------------------------------------------------------------------




--------------------------------------- Iteration      1(  13)  ---------------------------------------


    POTLOK:  cpu time   75.0077: real time   75.1845
    SETDIJ:  cpu time    1.2000: real time    0.7969
    EDDIAG:  cpu time   22.9309: real time   18.3247
  RMM-DIIS:  cpu time  172.6725: real time  104.7815
    ORTHCH:  cpu time    2.1362: real time    1.0730
       DOS:  cpu time    0.0032: real time    0.0016
    CHARGE:  cpu time   15.8429: real time   14.8576
    MIXING:  cpu time    0.1854: real time    0.1373
    --------------------------------------------
      LOOP:  cpu time  289.9787: real time  215.1572

 eigenvalue-minimisations  :  5120
 total energy-change (2. order) :-0.9562834E+01  (-0.9811506E+00)
 number of electron     345.8999745 magnetization      28.0399034
 augmentation part       16.0351218 magnetization      27.6261284

 Broyden mixing:
  rms(total) = 0.55223E+00    rms(broyden)= 0.55220E+00
  rms(prec ) = 0.56557E+00
  weight for this iteration     100.00

 eigenvalues of (default mixing * dielectric matrix)
  average eigenvalue GAMMA=   1.6596
  5.9894  2.3100  1.4109  0.8862  0.8862  0.7396  0.6265  0.4283

 Free energy of the ion-electron system (eV)
  ---------------------------------------------------
  alpha Z        PSCENC =        92.14382556
  Ewald energy   TEWEN  =    110978.71748852
  -Hartree energ DENC   =   -124577.23153163
  -exchange      EXHF   =         0.00000000
  -V(xc)+E(xc)   XCENC  =      1566.62803261
  PAW double counting   =     40460.80549538   -40627.16494208
  entropy T*S    EENTRO =        -0.03520782
  eigenvalues    EBANDS =     -5003.76144965
  atomic energy  EATOM  =     16689.68470767
  Solvation  Ediel_sol  =      -374.71647199
  ---------------------------------------------------
  free energy    TOTEN  =      -794.93005342 eV

  energy without entropy =     -794.89484560  energy(sigma->0) =     -794.91244951


--------------------------------------------------------------------------------------------------------




--------------------------------------- Iteration      1(  14)  ---------------------------------------


    POTLOK:  cpu time   73.8671: real time   74.0305
    SETDIJ:  cpu time    1.1275: real time    0.7241
    EDDIAG:  cpu time   22.9030: real time   18.2880
  RMM-DIIS:  cpu time  172.5311: real time  104.6765
    ORTHCH:  cpu time    2.1166: real time    1.0631
       DOS:  cpu time    0.0280: real time    0.0140
    CHARGE:  cpu time   15.9600: real time   14.9814
    MIXING:  cpu time    0.1977: real time    0.1475
    --------------------------------------------
      LOOP:  cpu time  288.7311: real time  213.9251

 eigenvalue-minimisations  :  5120
 total energy-change (2. order) :-0.7378874E+00  (-0.2195636E+00)
 number of electron     345.8999745 magnetization      25.4199610
 augmentation part       15.9818542 magnetization      25.3545850

 Broyden mixing:
  rms(total) = 0.73110E+00    rms(broyden)= 0.73017E+00
  rms(prec ) = 0.77802E+00
  weight for this iteration     100.00

 eigenvalues of (default mixing * dielectric matrix)
  average eigenvalue GAMMA=   1.7230
  7.4390  2.4459  1.2553  1.2553  0.8152  0.6356  0.6356  0.6175  0.4074

 Free energy of the ion-electron system (eV)
  ---------------------------------------------------
  alpha Z        PSCENC =        92.14382556
  Ewald energy   TEWEN  =    110978.71748852
  -Hartree energ DENC   =   -124522.62787425
  -exchange      EXHF   =         0.00000000
  -V(xc)+E(xc)   XCENC  =      1565.24541910
  PAW double counting   =     40534.40678863   -40700.86508074
  entropy T*S    EENTRO =        -0.00325743
  eigenvalues    EBANDS =     -5036.96370707
  atomic energy  EATOM  =     16689.68470767
  Solvation  Ediel_sol  =      -395.40625082
  ---------------------------------------------------
  free energy    TOTEN  =      -795.66794083 eV

  energy without entropy =     -795.66468340  energy(sigma->0) =     -795.66631211


--------------------------------------------------------------------------------------------------------




--------------------------------------- Iteration      1(  15)  ---------------------------------------


    POTLOK:  cpu time   73.8306: real time   73.9950
    SETDIJ:  cpu time    1.2159: real time    0.8127
    EDDIAG:  cpu time   22.9205: real time   18.3128
  RMM-DIIS:  cpu time  172.9429: real time  104.9811
    ORTHCH:  cpu time    2.1093: real time    1.0598
       DOS:  cpu time    0.0221: real time    0.0111
    CHARGE:  cpu time   15.8346: real time   14.8490
    MIXING:  cpu time    0.2055: real time    0.1555
    --------------------------------------------
      LOOP:  cpu time  289.0815: real time  214.1770

 eigenvalue-minimisations  :  5120
 total energy-change (2. order) : 0.3421167E+01  (-0.1012875E+00)
 number of electron     345.8999744 magnetization      22.0901697
 augmentation part       16.0268742 magnetization      21.7575612

 Broyden mixing:
  rms(total) = 0.59614E+00    rms(broyden)= 0.59610E+00
  rms(prec ) = 0.63423E+00
  weight for this iteration     100.00

 eigenvalues of (default mixing * dielectric matrix)
  average eigenvalue GAMMA=   1.7004
  7.7295  2.5278  1.1795  1.1795  1.0134  1.0134  0.7552  0.4168  0.5944  0.5944

 Free energy of the ion-electron system (eV)
  ---------------------------------------------------
  alpha Z        PSCENC =        92.14382556
  Ewald energy   TEWEN  =    110978.71748852
  -Hartree energ DENC   =   -124497.76924394
  -exchange      EXHF   =         0.00000000
  -V(xc)+E(xc)   XCENC  =      1566.89006167
  PAW double counting   =     40235.24030633   -40401.64452789
  entropy T*S    EENTRO =        -0.01592250
  eigenvalues    EBANDS =     -5066.15226946
  atomic energy  EATOM  =     16689.68470767
  Solvation  Ediel_sol  =      -389.34119995
  ---------------------------------------------------
  free energy    TOTEN  =      -792.24677399 eV

  energy without entropy =     -792.23085149  energy(sigma->0) =     -792.23881274


--------------------------------------------------------------------------------------------------------




--------------------------------------- Iteration      1(  16)  ---------------------------------------


    POTLOK:  cpu time   74.4946: real time   74.6688
    SETDIJ:  cpu time    1.1142: real time    0.7107
    EDDIAG:  cpu time   22.9056: real time   18.2984
  RMM-DIIS:  cpu time  172.5425: real time  104.7021
    ORTHCH:  cpu time    2.1226: real time    1.0660
       DOS:  cpu time    0.0143: real time    0.0072
    CHARGE:  cpu time   15.8750: real time   14.8992
    MIXING:  cpu time    0.2213: real time    0.1664
    --------------------------------------------
      LOOP:  cpu time  289.2901: real time  214.5187

 eigenvalue-minimisations  :  5120
 total energy-change (2. order) : 0.2981246E+01  (-0.1998064E+00)
 number of electron     345.8999744 magnetization      18.4520934
 augmentation part       16.1080164 magnetization      17.4321367

 Broyden mixing:
  rms(total) = 0.52637E+00    rms(broyden)= 0.52526E+00
  rms(prec ) = 0.54585E+00
  weight for this iteration     100.00

 eigenvalues of (default mixing * dielectric matrix)
  average eigenvalue GAMMA=   1.7823
  8.9275  2.5893  1.9656  1.3645  0.8581  0.8581  0.7743  0.7743  0.6138  0.4213
  0.4589

 Free energy of the ion-electron system (eV)
  ---------------------------------------------------
  alpha Z        PSCENC =        92.14382556
  Ewald energy   TEWEN  =    110978.71748852
  -Hartree energ DENC   =   -124492.51978691
  -exchange      EXHF   =         0.00000000
  -V(xc)+E(xc)   XCENC  =      1570.15564316
  PAW double counting   =     40071.53875454   -40238.08643731
  entropy T*S    EENTRO =        -0.01710681
  eigenvalues    EBANDS =     -5089.16687345
  atomic energy  EATOM  =     16689.68470767
  Solvation  Ediel_sol  =      -371.71574308
  ---------------------------------------------------
  free energy    TOTEN  =      -789.26552810 eV

  energy without entropy =     -789.24842129  energy(sigma->0) =     -789.25697470


--------------------------------------------------------------------------------------------------------




--------------------------------------- Iteration      1(  17)  ---------------------------------------


    POTLOK:  cpu time   73.3638: real time   73.5323
    SETDIJ:  cpu time    1.1462: real time    0.7430
    EDDIAG:  cpu time   22.8664: real time   18.2661
  RMM-DIIS:  cpu time  172.7452: real time  104.8295
[...]
   -.528E+01 0.281E+01 0.715E+02   0.522E+01 -.289E+01 -.713E+02   0.704E-03 0.128E-02 0.950E-04   0.972E-03 0.314E-03 -.453E-02
   0.254E+01 0.487E+01 0.701E+02   -.250E+01 -.491E+01 -.699E+02   -.199E-02 0.150E-02 -.911E-02   -.380E-03 0.477E-03 -.436E-02
   -.664E+01 0.187E+02 0.793E+02   0.669E+01 -.187E+02 -.791E+02   -.140E-02 0.190E-03 -.553E-02   0.508E-03 -.812E-03 -.496E-02
   -.245E+02 0.228E+02 0.915E+02   0.245E+02 -.227E+02 -.912E+02   -.586E-02 0.645E-02 0.374E-02   0.175E-02 -.181E-02 -.572E-02
   -.323E+02 0.997E+01 0.915E+02   0.322E+02 -.985E+01 -.912E+02   -.101E-01 0.192E-02 0.106E-01   0.235E-02 -.151E-02 -.592E-02
   -.202E+02 -.324E+01 0.795E+02   0.200E+02 0.325E+01 -.792E+02   -.385E-02 0.233E-02 0.540E-02   0.141E-02 -.337E-03 -.526E-02
   -.315E+01 -.434E+01 0.701E+02   0.309E+01 0.430E+01 -.699E+02   -.840E-04 0.161E-03 -.381E-02   0.544E-04 0.607E-03 -.453E-02
   0.188E+02 -.103E+02 0.776E+02   -.187E+02 0.103E+02 -.774E+02   0.362E-02 -.172E-02 -.334E-02   -.257E-02 0.137E-02 -.584E-02
   0.971E+01 -.913E+01 0.761E+02   -.960E+01 0.904E+01 -.759E+02   0.212E-03 0.444E-03 0.504E-02   -.198E-02 0.217E-02 -.573E-02
   -.476E+01 0.243E+00 0.731E+02   0.480E+01 -.298E+00 -.729E+02   -.182E-02 -.666E-03 -.637E-02   -.526E-03 0.133E-02 -.495E-02
   -.112E+02 0.616E+01 0.722E+02   0.112E+02 -.614E+01 -.720E+02   0.628E-05 0.782E-03 -.591E-02   0.435E-03 -.721E-04 -.448E-02
   -.319E+01 0.388E+01 0.727E+02   0.311E+01 -.383E+01 -.724E+02   0.127E-02 0.135E-02 -.479E-02   -.190E-03 -.792E-03 -.449E-02
   0.123E+02 -.326E+01 0.751E+02   -.123E+02 0.329E+01 -.749E+02   0.323E-02 0.291E-02 -.885E-02   -.160E-02 -.342E-03 -.512E-02
   0.353E+01 0.257E+02 -.414E+03   -.423E+01 -.243E+02 0.407E+03   0.869E+00 -.100E+01 0.825E+01   0.159E-02 -.745E-02 0.126E-01
   -.105E+02 -.420E+02 -.322E+03   0.161E+02 0.506E+02 0.330E+03   -.523E+01 -.804E+01 -.675E+01   -.455E-02 -.154E-01 -.150E-02
   -.424E+02 -.114E+03 -.308E+03   0.419E+02 0.114E+03 0.310E+03   0.607E+00 0.117E+01 -.120E+00   0.603E-02 0.851E-02 -.856E-02
   -.536E+03 0.880E+02 -.906E+03   0.595E+03 -.912E+02 0.923E+03   -.576E+02 0.359E+01 -.158E+02   0.152E-01 -.113E-01 0.137E-01
   0.246E+03 0.516E+03 -.882E+03   -.272E+03 -.566E+03 0.900E+03   0.260E+02 0.498E+02 -.158E+02   -.279E-02 -.179E-01 0.106E-01
   0.244E+03 -.365E+03 -.103E+04   -.270E+03 0.410E+03 0.107E+04   0.256E+02 -.442E+02 -.306E+02   -.434E-02 -.124E-02 0.190E-01
   -.214E+03 0.419E+03 -.307E+03   0.245E+03 -.461E+03 0.278E+03   -.289E+02 0.422E+02 0.315E+02   0.100E-01 -.332E-01 -.208E-01
   0.555E+03 0.310E+02 -.433E+03   -.614E+03 -.278E+02 0.420E+03   0.581E+02 -.164E+01 0.162E+02   -.281E-01 -.149E-01 -.137E-01
   -.452E+03 -.128E+03 -.438E+03   0.512E+03 0.118E+03 0.433E+03   -.571E+02 0.986E+01 0.662E+01   0.228E-01 0.312E-02 -.133E-01
   0.204E+03 -.437E+03 -.477E+03   -.249E+03 0.477E+03 0.478E+03   0.433E+02 -.388E+02 0.126E+01   -.461E-02 0.152E-01 -.118E-01
 -----------------------------------------------------------------------------------------------
   -.554E+01 -.129E+02 0.570E+01   -.284E-13 0.114E-12 0.148E-11   0.552E+01 0.130E+02 -.525E+01   0.115E-01 -.744E-01 -.419E+00
 
 
 POSITION                                       TOTAL-FORCE (eV/Angst)
 -----------------------------------------------------------------------------------
      1.25601     -0.72485     17.55805        -0.002787      0.001304      0.000663
      2.51200      1.45095     17.55675        -0.001342     -0.006967      0.000996
      3.76833      3.62627     17.55590        -0.008696      0.006720     -0.001537
      5.02444      5.80190     17.55608        -0.000365      0.001808     -0.000544
      6.28053      7.97760     17.55807        -0.000475      0.001162      0.000144
      7.53662     10.15313     17.55898        -0.004889     -0.001261      0.000655
      2.51224     -2.90065     17.55892        -0.007485     -0.006766     -0.000597
      3.76808     -0.72507     17.55670        -0.007655      0.000829      0.001485
      5.02457      1.45084     17.55565        -0.026674     -0.002706      0.000676
      6.28050      3.62628     17.55578         0.000984      0.002003     -0.000021
      7.53656      5.80193     17.55640         0.003632      0.001966     -0.000695
      8.79267      7.97751     17.55869        -0.000962      0.000663      0.000178
      3.76833     -5.07637     17.55909        -0.003682      0.000933      0.000818
      5.02450     -2.90016     17.55922        -0.006989     -0.051247      0.000361
      6.28073     -0.72520     17.55720         0.002241     -0.001311      0.002352
      7.53692      1.45084     17.55706        -0.002045     -0.003047      0.001778
      8.79270      3.62629     17.55608         0.004765      0.003153     -0.000717
     10.04876      5.80198     17.55753         0.001376     -0.000007     -0.000099
      5.02440     -7.25183     17.55855         0.002394      0.001746      0.001086
      6.28048     -5.07631     17.55905         0.000295     -0.002826      0.000814
      7.53667     -2.90057     17.55808         0.002084     -0.009252      0.001626
      8.79268     -0.72503     17.55667         0.013410      0.010089      0.000279
     10.04880      1.45079     17.55625         0.004382      0.001185     -0.000360
     11.30486      3.62646     17.55710         0.001946     -0.000582     -0.000416
      6.28055     -9.42727     17.55816        -0.002745     -0.002625     -0.000417
      7.53670     -7.25162     17.55829        -0.003708     -0.008056     -0.000072
      8.79270     -5.07618     17.55819         0.005847      0.005489      0.000955
     10.04879     -2.90051     17.55753         0.005869      0.005794      0.000250
     11.30486     -0.72481     17.55722         0.004042      0.003794     -0.000282
     12.56095      1.45085     17.55766         0.001451      0.001389     -0.000366
      7.53658    -11.60288     17.55796        -0.002131     -0.001928      0.000091
      8.79272     -9.42735     17.55707        -0.002588      0.006898     -0.000070
     10.04892     -7.25168     17.55697        -0.003928     -0.000842     -0.000652
     11.30495     -5.07608     17.55784         0.002451      0.001661     -0.000356
     12.56094     -2.90050     17.55843         0.002285      0.001427      0.000515
     13.81707     -0.72488     17.55850        -0.003274      0.002131      0.000696
      1.25612      0.72557     17.55760        -0.000117      0.002100      0.000273
      2.51219      2.90115     17.55618         0.004176      0.002014     -0.000113
      3.76833      5.07677     17.55576         0.003823     -0.003963     -0.000843
      5.02448      7.25238     17.55728        -0.000488      0.000555     -0.000448
      6.28050      9.42799     17.55895         0.000573      0.002624      0.000430
      7.53650     11.60362     17.55894         0.004838      0.001343      0.000484
      2.51209     -1.45014     17.55782         0.005366      0.000562      0.001162
      3.76815      0.72541     17.55684         0.016009      0.003450      0.000251
      5.02432      2.90101     17.55560         0.008367      0.000249     -0.000265
      6.28055      5.07671     17.55535        -0.002286     -0.002455     -0.000555
      7.53660      7.25238     17.55779        -0.000192     -0.000571      0.000007
      8.79263      9.42794     17.55935         0.003042      0.002378      0.000993
      3.76816     -3.62596     17.55970         0.014545      0.016296      0.000959
      5.02435     -1.45035     17.55927         0.005496      0.028461      0.002069
      6.28025      0.72548     17.55945         0.011195     -0.005662      0.002261
      7.53663      2.90102     17.55621        -0.005200      0.001748      0.000266
      8.79273      5.07673     17.55626        -0.003722      0.000382     -0.001055
     10.04876      7.25236     17.55869         0.000184     -0.000473      0.000549
      5.02441     -5.80136     17.55915         0.001156     -0.003065      0.001190
      6.28054     -3.62593     17.55946        -0.002636      0.017600      0.001303
      7.53681     -1.45019     17.55712        -0.014141      0.004879      0.002190
      8.79272      0.72556     17.55611        -0.005640     -0.003368      0.001208
     10.04882      2.90121     17.55596        -0.002819     -0.000269     -0.000771
     11.30490      5.07679     17.55772        -0.001932      0.003327      0.000219
      6.28054     -7.97694     17.55866         0.002119      0.005798      0.000425
      7.53670     -5.80131     17.55872        -0.003302      0.002246      0.000735
      8.79282     -3.62566     17.55783        -0.004844     -0.001091      0.000893
     10.04891     -1.44996     17.55671        -0.006791     -0.003956     -0.000074
     11.30494      0.72564     17.55678        -0.003444      0.000849     -0.000722
     12.56098      2.90128     17.55775         0.000296      0.001465     -0.000174
      7.53660    -10.15245     17.55782         0.002361     -0.000837     -0.000085
      8.79276     -7.97686     17.55725         0.001840     -0.000297      0.000130
     10.04893     -5.80126     17.55784        -0.003489      0.000798     -0.000735
     11.30497     -3.62565     17.55813        -0.003381      0.000275      0.000141
     12.56098     -1.45003     17.55821        -0.000233      0.000275      0.000419
     13.81704      0.72562     17.55834         0.002113      0.001083      0.000084
      5.17980     -0.77793     23.62455        -0.002608      0.005205      0.020030
      5.02590     -0.56305     22.10454         0.003081     -0.007596     -0.048242
      5.76875      1.03654     21.67007        -0.197276      0.083190      0.018185
      6.46946     -0.85319     23.95945         0.001106      0.019155     -0.012526
      4.57673     -1.92745     23.96906         0.008534      0.013299     -0.004510
      4.60282      0.22539     24.29282         0.012024      0.005590     -0.021219
      5.66268     -1.50979     21.42393        -0.009900      0.015749      0.013417
      3.74293     -0.54210     21.76604         0.006321     -0.010712      0.000392
      6.95171      0.83483     21.53368         0.061870     -0.028760     -0.005157
      4.87038      1.84689     21.64399         0.126972     -0.132595      0.017614
 -----------------------------------------------------------------------------------
    total drift:                               -0.009718     -0.037286      0.031453


--------------------------------------------------------------------------------------------------------



  FREE ENERGIE OF THE ION-ELECTRON SYSTEM (eV)
  ---------------------------------------------------
  free  energy   TOTEN  =      -771.93816573 eV

  energy  without entropy=     -771.90938955  energy(sigma->0) =     -771.92377764
 
 d Force = 0.1784456E-03[-0.101E-02, 0.137E-02]  d Energy =-0.7665717E-03 0.945E-03
 d Force = 0.1045699E+01[ 0.104E+01, 0.105E+01]  d Ewald  = 0.1045686E+01 0.124E-04


--------------------------------------------------------------------------------------------------------


    POTLOK:  cpu time   58.5144: real time   58.2466


--------------------------------------------------------------------------------------------------------


 Dimer: Projection
 Dimer: N*F0  6.982317516208186E-003
 Dimer: F0sq  9.730657738688850E-002
 Dimer: Feffsq   9.730657738688850E-002
 
 stress matrix after NEB project (eV)
    -27.54041      0.64444      0.36716
      0.64440    -26.74904      0.28988
      0.36569      0.28999     -0.40620
  FORCES: max atom, RMS     0.214870    0.034448
  FORCE total and by dimension    0.311940    0.197276
  Stress total and by dimension   38.411166   27.540414
 
 OPT: Flag T
 OPT: CG Step
 OPT: CG step
 OPT: CG curvature     48.117691
 OPT: CG step_size     -0.002742


--------------------------------------------------------------------------------------------------------


    WAVPRE:  cpu time    1.2753: real time    1.1116
    FEWALD:  cpu time    0.0024: real time    0.0171
    ORTHCH:  cpu time    7.1071: real time    3.9685
     LOOP+:  cpu time 3234.3580: real time 2435.7274


--------------------------------------- Iteration     11(   1)  ---------------------------------------


    POTLOK:  cpu time   60.2588: real time   60.4008
    SETDIJ:  cpu time    1.1319: real time    0.7284
     EDDAV:  cpu time  139.2682: real time   84.7089
       DOS:  cpu time    0.0028: real time    0.0018
    CHARGE:  cpu time   15.9028: real time   14.9254
    MIXING:  cpu time    0.1829: real time    0.1239
    --------------------------------------------
      LOOP:  cpu time  216.7474: real time  160.8893

 eigenvalue-minimisations  :  5296
 total energy-change (2. order) :-0.5445606E-03  (-0.3392994E-02)
 number of electron     345.8999746 magnetization      -0.0879216
 augmentation part       16.0443054 magnetization      -0.1586250

 Broyden mixing:
  rms(total) = 0.33762E-01    rms(broyden)= 0.33724E-01
  rms(prec ) = 0.35475E-01
  weight for this iteration     100.00

 Free energy of the ion-electron system (eV)
  ---------------------------------------------------
  alpha Z        PSCENC =        92.14382556
  Ewald energy   TEWEN  =    110979.00058249
  -Hartree energ DENC   =   -124517.03013867
  -exchange      EXHF   =         0.00000000
  -V(xc)+E(xc)   XCENC  =      1587.36897300
  PAW double counting   =     40371.99791278   -40538.77038639
  entropy T*S    EENTRO =        -0.03059457
  eigenvalues    EBANDS =     -5085.32491737
  atomic energy  EATOM  =     16689.68470767
  Solvation  Ediel_sol  =      -350.97866619
  ---------------------------------------------------
  free energy    TOTEN  =      -771.93870169 eV

  energy without entropy =     -771.90810712  energy(sigma->0) =     -771.92340440


--------------------------------------------------------------------------------------------------------




--------------------------------------- Iteration     11(   2)  ---------------------------------------


    POTLOK:  cpu time   66.1807: real time   66.3277
    SETDIJ:  cpu time    1.2239: real time    0.8206
    EDDIAG:  cpu time   22.8709: real time   18.2750
  RMM-DIIS:  cpu time  173.0385: real time  104.9023
    ORTHCH:  cpu time    2.1226: real time    1.0664
       DOS:  cpu time    0.0054: real time    0.0027
    CHARGE:  cpu time   15.8479: real time   14.8613
    MIXING:  cpu time    0.1557: real time    0.1030
    --------------------------------------------
      LOOP:  cpu time  281.4456: real time  206.3591

 eigenvalue-minimisations  :  5120
 total energy-change (2. order) : 0.8406566E-02  (-0.1104740E-02)
 number of electron     345.8999746 magnetization      -0.0868100
 augmentation part       16.0412483 magnetization      -0.0886285

 Broyden mixing:
  rms(total) = 0.25451E-01    rms(broyden)= 0.25432E-01
  rms(prec ) = 0.25574E-01
  weight for this iteration     100.00

 eigenvalues of (default mixing * dielectric matrix)
  average eigenvalue GAMMA=   0.5218
  0.5218

 Free energy of the ion-electron system (eV)
  ---------------------------------------------------
  alpha Z        PSCENC =        92.14382556
  Ewald energy   TEWEN  =    110979.00058249
  -Hartree energ DENC   =   -124516.72632123
  -exchange      EXHF   =         0.00000000
  -V(xc)+E(xc)   XCENC  =      1587.38644714
  PAW double counting   =     40372.07363266   -40538.85158835
  entropy T*S    EENTRO =        -0.02868553
  eigenvalues    EBANDS =     -5084.96546480
  atomic energy  EATOM  =     16689.68470767
  Solvation  Ediel_sol  =      -351.64743074
  ---------------------------------------------------
  free energy    TOTEN  =      -771.93029512 eV

  energy without entropy =     -771.90160959  energy(sigma->0) =     -771.91595236


--------------------------------------------------------------------------------------------------------




--------------------------------------- Iteration     11(   3)  ---------------------------------------


    POTLOK:  cpu time   62.0844: real time   62.2230
    SETDIJ:  cpu time    1.1971: real time    0.7939
    EDDIAG:  cpu time   22.9382: real time   18.3222
  RMM-DIIS:  cpu time  172.4753: real time  104.4466
    ORTHCH:  cpu time    2.1169: real time    1.0634
       DOS:  cpu time    0.0123: real time    0.0062
    CHARGE:  cpu time   15.8178: real time   14.8420
    MIXING:  cpu time    0.1693: real time    0.1123
    --------------------------------------------
      LOOP:  cpu time  276.8112: real time  201.8096

 eigenvalue-minimisations  :  5078
 total energy-change (2. order) :-0.6409185E-02  (-0.2205780E-03)
 number of electron     345.8999746 magnetization      -0.0898570
 augmentation part       16.0363309 magnetization       0.0314418

 Broyden mixing:
  rms(total) = 0.50987E-01    rms(broyden)= 0.50936E-01
  rms(prec ) = 0.53021E-01
  weight for this iteration     100.00

 eigenvalues of (default mixing * dielectric matrix)
  average eigenvalue GAMMA=   0.4770
  0.4770  0.4770

 Free energy of the ion-electron system (eV)
  ---------------------------------------------------
  alpha Z        PSCENC =        92.14382556
  Ewald energy   TEWEN  =    110979.00058249
  -Hartree energ DENC   =   -124516.61556871
  -exchange      EXHF   =         0.00000000
  -V(xc)+E(xc)   XCENC  =      1587.38336309
  PAW double counting   =     40371.99254628   -40538.77052415
  entropy T*S    EENTRO =        -0.02566130
  eigenvalues    EBANDS =     -5085.04634988
  atomic energy  EATOM  =     16689.68470767
  Solvation  Ediel_sol  =      -351.68362538
  ---------------------------------------------------
  free energy    TOTEN  =      -771.93670431 eV

  energy without entropy =     -771.91104301  energy(sigma->0) =     -771.92387366


--------------------------------------------------------------------------------------------------------




--------------------------------------- Iteration     11(   4)  ---------------------------------------


    POTLOK:  cpu time   65.1133: real time   65.2566
    SETDIJ:  cpu time    1.1432: real time    0.7400
    EDDIAG:  cpu time   22.9421: real time   18.3225
  RMM-DIIS:  cpu time  172.8976: real time  104.8649
    ORTHCH:  cpu time    2.1441: real time    1.0800
       DOS:  cpu time    0.0044: real time    0.0022
    CHARGE:  cpu time   15.8624: real time   14.8640
    MIXING:  cpu time    0.1632: real time    0.1110
    --------------------------------------------
      LOOP:  cpu time  280.2703: real time  205.2412

 eigenvalue-minimisations  :  5120
 total energy-change (2. order) : 0.1207893E-02  (-0.3976890E-03)
 number of electron     345.8999746 magnetization      -0.0891450
 augmentation part       16.0411211 magnetization      -0.0856654

 Broyden mixing:
  rms(total) = 0.35845E-02    rms(broyden)= 0.32378E-02
  rms(prec ) = 0.34120E-02
  weight for this iteration     100.00

 eigenvalues of (default mixing * dielectric matrix)
  average eigenvalue GAMMA=   0.5036
  0.5137  0.4986  0.4986

 Free energy of the ion-electron system (eV)
  ---------------------------------------------------
  alpha Z        PSCENC =        92.14382556
  Ewald energy   TEWEN  =    110979.00058249
  -Hartree energ DENC   =   -124516.78372932
  -exchange      EXHF   =         0.00000000
  -V(xc)+E(xc)   XCENC  =      1587.36471748
  PAW double counting   =     40372.21643880   -40538.99103851
  entropy T*S    EENTRO =        -0.02895018
  eigenvalues    EBANDS =     -5085.21792649
  atomic energy  EATOM  =     16689.68470767
  Solvation  Ediel_sol  =      -351.32412392
  ---------------------------------------------------
  free energy    TOTEN  =      -771.93549642 eV

  energy without entropy =     -771.90654623  energy(sigma->0) =     -771.92102132


--------------------------------------------------------------------------------------------------------




--------------------------------------- Iteration     11(   5)  ---------------------------------------


