 vasp.5.4.4.18Apr17-6-g9f103f2a35 (build Jun 11 2020 13:42:08) complex          
  
 executed on             LinuxIFC date 2020.12.14  11:09:26
 running on   48 total cores
 distrk:  each k-point on   48 cores,    1 groups
 distr:  one band on NCORES_PER_BAND=   1 cores,   48 groups


--------------------------------------------------------------------------------------------------------


 INCAR:
 POTCAR:    PAW_PBE B 06Sep2000                   
 POTCAR:    PAW_PBE N 08Apr2002                   
 POTCAR:    PAW_PBE C 08Apr2002                   
 POTCAR:    PAW_PBE F 08Apr2002                   
 POTCAR:    PAW_PBE O 08Apr2002                   

 ----------------------------------------------------------------------------- 
|                                                                             |
|           W    W    AA    RRRRR   N    N  II  N    N   GGGG   !!!           |
|           W    W   A  A   R    R  NN   N  II  NN   N  G    G  !!!           |
|           W    W  A    A  R    R  N N  N  II  N N  N  G       !!!           |
|           W WW W  AAAAAA  RRRRR   N  N N  II  N  N N  G  GGG   !            |
|           WW  WW  A    A  R   R   N   NN  II  N   NN  G    G                |
|           W    W  A    A  R    R  N    N  II  N    N   GGGG   !!!           |
|                                                                             |
|      For optimal performance we recommend to set                            |
|        NCORE= 4 - approx SQRT( number of cores)                             |
|      NCORE specifies how many cores store one orbital (NPAR=cpu/NCORE).     |
|      This setting can  greatly improve the performance of VASP for DFT.     |
|      The default,   NCORE=1            might be grossly inefficient         |
|      on modern multi-core architectures or massively parallel machines.     |
|      Do your own testing !!!!                                               |
|      Unfortunately you need to use the default for GW and RPA calculations. |
|      (for HF NCORE is supported but not extensively tested yet)             |
|                                                                             |
 ----------------------------------------------------------------------------- 

 POTCAR:    PAW_PBE B 06Sep2000                   
   VRHFIN =B: s2p1                                                              
   LEXCH  = PE                                                                  
   EATOM  =    71.1703 eV,    5.2309 Ry                                         
                                                                                
   TITEL  = PAW_PBE B 06Sep2000                                                 
   LULTRA =        F    use ultrasoft PP ?                                      
   IUNSCR =        1    unscreen: 0-lin 1-nonlin 2-no                           
   RPACOR =    1.200    partial core radius                                     
   POMASS =   10.811; ZVAL   =    3.000    mass and valenz                      
   RCORE  =    1.700    outmost cutoff radius                                   
   RWIGS  =    1.710; RWIGS  =    0.905    wigner-seitz radius (au A)           
   ENMAX  =  318.614; ENMIN  =  238.960 eV                                      
   ICORE  =        2    local potential                                         
   LCOR   =        T    correct aug charges                                     
   LPAW   =        T    paw PP                                                  
   EAUG   =  535.514                                                            
   DEXC   =    0.000                                                            
   RMAX   =    1.732    core radius for proj-oper                               
   RAUG   =    1.300    factor for augmentation sphere                          
   RDEP   =    1.757    radius for radial grids                                 
   RDEPT  =    1.436    core radius for aug-charge                              
                                                                                
   Atomic configuration                                                         
    4 entries                                                                   
     n  l   j            E        occ.                                          
     1  0  0.50      -180.5896   2.0000                                         
     2  0  0.50        -9.4431   2.0000                                         
     2  1  0.50        -3.6068   1.0000                                         
     3  2  1.50        -4.0817   0.0000                                         
   Description                                                                  
     l       E           TYP  RCUT    TYP  RCUT                                 
     0     -9.4430752     23  1.500                                             
     0      0.8675899     23  1.500                                             
     1     -3.6067955     23  1.700                                             
     1      6.1086146     23  1.700                                             
     2     -4.0817478      7  1.700                                             
  local pseudopotential read in
  partial core-charges read in
  partial kinetic energy density read in
  atomic valenz-charges read in
  non local Contribution for L=           0  read in
    real space projection operators read in
  non local Contribution for L=           0  read in
    real space projection operators read in
  non local Contribution for L=           1  read in
    real space projection operators read in
  non local Contribution for L=           1  read in
    real space projection operators read in
    PAW grid and wavefunctions read in
 
   number of l-projection  operators is LMAX  =           4
   number of lm-projection operators is LMMAX =           8
 
 POTCAR:    PAW_PBE N 08Apr2002                   
   VRHFIN =N: s2p3                                                              
   LEXCH  = PE                                                                  
   EATOM  =   264.5486 eV,   19.4438 Ry                                         
                                                                                
   TITEL  = PAW_PBE N 08Apr2002                                                 
   LULTRA =        F    use ultrasoft PP ?                                      
   IUNSCR =        1    unscreen: 0-lin 1-nonlin 2-no                           
   RPACOR =    1.200    partial core radius                                     
   POMASS =   14.001; ZVAL   =    5.000    mass and valenz                      
   RCORE  =    1.500    outmost cutoff radius                                   
   RWIGS  =    1.400; RWIGS  =    0.741    wigner-seitz radius (au A)           
   ENMAX  =  400.000; ENMIN  =  300.000 eV                                      
   ICORE  =        2    local potential                                         
   LCOR   =        T    correct aug charges                                     
   LPAW   =        T    paw PP                                                  
   EAUG   =  627.112                                                            
   DEXC   =    0.000                                                            
   RMAX   =    1.529    core radius for proj-oper                               
   RAUG   =    1.300    factor for augmentation sphere                          
   RDEP   =    1.514    radius for radial grids                                 
   RDEPT  =    1.338    core radius for aug-charge                              
                                                                                
   Atomic configuration                                                         
    4 entries                                                                   
     n  l   j            E        occ.                                          
     1  0  0.50      -384.7179   2.0000                                         
     2  0  0.50       -18.5828   2.0000                                         
     2  1  0.50        -7.0898   3.0000                                         
     3  2  1.50        -6.8029   0.0000                                         
   Description                                                                  
     l       E           TYP  RCUT    TYP  RCUT                                 
     0    -18.5828119     23  1.200                                             
     0    -13.5018863     23  1.200                                             
     1     -7.0897853     23  1.500                                             
     1      9.5240782     23  1.500                                             
     2     -6.8029130      7  1.500                                             
  local pseudopotential read in
  partial core-charges read in
  partial kinetic energy density read in
  atomic valenz-charges read in
  non local Contribution for L=           0  read in
    real space projection operators read in
  non local Contribution for L=           0  read in
    real space projection operators read in
  non local Contribution for L=           1  read in
    real space projection operators read in
  non local Contribution for L=           1  read in
    real space projection operators read in
    PAW grid and wavefunctions read in
 
   number of l-projection  operators is LMAX  =           4
   number of lm-projection operators is LMMAX =           8
 
 POTCAR:    PAW_PBE C 08Apr2002                   
   VRHFIN =C: s2p2                                                              
   LEXCH  = PE                                                                  
   EATOM  =   147.1560 eV,   10.8157 Ry                                         
                                                                                
   TITEL  = PAW_PBE C 08Apr2002                                                 
   LULTRA =        F    use ultrasoft PP ?                                      
   IUNSCR =        1    unscreen: 0-lin 1-nonlin 2-no                           
   RPACOR =    1.200    partial core radius                                     
   POMASS =   12.011; ZVAL   =    4.000    mass and valenz                      
   RCORE  =    1.500    outmost cutoff radius                                   
   RWIGS  =    1.630; RWIGS  =    0.863    wigner-seitz radius (au A)           
   ENMAX  =  400.000; ENMIN  =  300.000 eV                                      
   ICORE  =        2    local potential                                         
   LCOR   =        T    correct aug charges                                     
   LPAW   =        T    paw PP                                                  
   EAUG   =  644.873                                                            
   DEXC   =    0.000                                                            
   RMAX   =    1.529    core radius for proj-oper                               
   RAUG   =    1.300    factor for augmentation sphere                          
   RDEP   =    1.501    radius for radial grids                                 
   RDEPT  =    1.300    core radius for aug-charge                              
                                                                                
   Atomic configuration                                                         
    4 entries                                                                   
     n  l   j            E        occ.                                          
     1  0  0.50      -273.3789   2.0000                                         
     2  0  0.50       -13.7508   2.0000                                         
     2  1  0.50        -5.2854   2.0000                                         
     3  2  1.50        -5.4423   0.0000                                         
   Description                                                                  
     l       E           TYP  RCUT    TYP  RCUT                                 
     0    -13.7508458     23  1.200                                             
     0     -8.2022199     23  1.200                                             
     1     -5.2854383     23  1.500                                             
     1     34.0145650     23  1.500                                             
     2     -5.4423304      7  1.500                                             
  local pseudopotential read in
  partial core-charges read in
  partial kinetic energy density read in
  atomic valenz-charges read in
  non local Contribution for L=           0  read in
    real space projection operators read in
  non local Contribution for L=           0  read in
    real space projection operators read in
  non local Contribution for L=           1  read in
    real space projection operators read in
  non local Contribution for L=           1  read in
    real space projection operators read in
    PAW grid and wavefunctions read in
 
   number of l-projection  operators is LMAX  =           4
   number of lm-projection operators is LMMAX =           8
 
 POTCAR:    PAW_PBE F 08Apr2002                   
   VRHFIN =F: s2p5                                                              
   LEXCH  = PE                                                                  
   EATOM  =   659.6475 eV,   48.4827 Ry                                         
                                                                                
   TITEL  = PAW_PBE F 08Apr2002                                                 
   LULTRA =        F    use ultrasoft PP ?                                      
   IUNSCR =        1    unscreen: 0-lin 1-nonlin 2-no                           
   RPACOR =    1.200    partial core radius                                     
   POMASS =   18.998; ZVAL   =    7.000    mass and valenz                      
   RCORE  =    1.520    outmost cutoff radius                                   
   RWIGS  =    1.500; RWIGS  =    0.794    wigner-seitz radius (au A)           
   ENMAX  =  400.000; ENMIN  =  300.000 eV                                      
   ICORE  =        2    local potential                                         
   LCOR   =        T    correct aug charges                                     
   LPAW   =        T    paw PP                                                  
   EAUG   =  613.614                                                            
   RMAX   =    1.555    core radius for proj-oper                               
   RAUG   =    1.300    factor for augmentation sphere                          
   RDEP   =    1.539    radius for radial grids                                 
   RDEPT  =    1.299    core radius for aug-charge                              
                                                                                
   Atomic configuration                                                         
    4 entries                                                                   
     n  l   j            E        occ.                                          
     1  0  0.50      -663.3661   2.0000                                         
     2  0  0.50       -29.8995   2.0000                                         
     2  1  0.50       -11.1114   5.0000                                         
     3  2  1.50       -10.8847   0.0000                                         
   Description                                                                  
     l       E           TYP  RCUT    TYP  RCUT                                 
     0    -29.8995018     23  1.200                                             
     0     -9.5240782     23  1.200                                             
     1    -11.1113914     23  1.520                                             
     1      1.3605826     23  1.520                                             
     2    -10.8846608      7  1.500                                             
  local pseudopotential read in
  partial core-charges read in
  partial kinetic energy density read in
  atomic valenz-charges read in
  non local Contribution for L=           0  read in
    real space projection operators read in
  non local Contribution for L=           0  read in
    real space projection operators read in
  non local Contribution for L=           1  read in
    real space projection operators read in
  non local Contribution for L=           1  read in
    real space projection operators read in
    PAW grid and wavefunctions read in
 
   number of l-projection  operators is LMAX  =           4
   number of lm-projection operators is LMMAX =           8
 
 POTCAR:    PAW_PBE O 08Apr2002                   
   VRHFIN =O: s2p4                                                              
   LEXCH  = PE                                                                  
   EATOM  =   432.3788 eV,   31.7789 Ry                                         
                                                                                
   TITEL  = PAW_PBE O 08Apr2002                                                 
   LULTRA =        F    use ultrasoft PP ?                                      
   IUNSCR =        1    unscreen: 0-lin 1-nonlin 2-no                           
   RPACOR =    1.200    partial core radius                                     
   POMASS =   16.000; ZVAL   =    6.000    mass and valenz                      
   RCORE  =    1.520    outmost cutoff radius                                   
   RWIGS  =    1.550; RWIGS  =    0.820    wigner-seitz radius (au A)           
   ENMAX  =  400.000; ENMIN  =  300.000 eV                                      
   ICORE  =        2    local potential                                         
   LCOR   =        T    correct aug charges                                     
   LPAW   =        T    paw PP                                                  
   EAUG   =  605.392                                                            
   DEXC   =    0.000                                                            
   RMAX   =    1.553    core radius for proj-oper                               
   RAUG   =    1.300    factor for augmentation sphere                          
   RDEP   =    1.550    radius for radial grids                                 
   RDEPT  =    1.329    core radius for aug-charge                              
                                                                                
   Atomic configuration                                                         
    4 entries                                                                   
     n  l   j            E        occ.                                          
     1  0  0.50      -514.6923   2.0000                                         
     2  0  0.50       -23.9615   2.0000                                         
     2  1  0.50        -9.0305   4.0000                                         
     3  2  1.50        -9.5241   0.0000                                         
   Description                                                                  
     l       E           TYP  RCUT    TYP  RCUT                                 
     0    -23.9615318     23  1.200                                             
     0     -9.5240782     23  1.200                                             
     1     -9.0304911     23  1.520                                             
     1      8.1634956     23  1.520                                             
     2     -9.5240782      7  1.500                                             
  local pseudopotential read in
  partial core-charges read in
  partial kinetic energy density read in
  kinetic energy density of atom read in
  atomic valenz-charges read in
  non local Contribution for L=           0  read in
    real space projection operators read in
  non local Contribution for L=           0  read in
    real space projection operators read in
  non local Contribution for L=           1  read in
    real space projection operators read in
  non local Contribution for L=           1  read in
    real space projection operators read in
    PAW grid and wavefunctions read in
 
   number of l-projection  operators is LMAX  =           4
   number of lm-projection operators is LMMAX =           8
 
 Optimization of the real space projectors (new method)

 maximal supplied QI-value         = 22.11
 optimisation between [QCUT,QGAM] = [ 11.94, 23.88] = [ 39.92,159.67] Ry 
 Optimized for a Real-space Cutoff    1.18 Angstroem

   l    n(q)    QCUT    max X(q) W(low)/X(q) W(high)/X(q)  e(spline) 
   0      8    11.939    53.033    0.11E-03    0.34E-03    0.60E-07
   0      8    11.939    34.740    0.11E-03    0.34E-03    0.59E-07
   1      8    11.939    30.949    0.22E-03    0.20E-03    0.17E-06
   1      8    11.939    19.518    0.20E-03    0.18E-03    0.16E-06
 Optimization of the real space projectors (new method)

 maximal supplied QI-value         = 25.13
 optimisation between [QCUT,QGAM] = [ 11.81, 23.88] = [ 39.08,159.64] Ry 
 Optimized for a Real-space Cutoff    1.41 Angstroem

   l    n(q)    QCUT    max X(q) W(low)/X(q) W(high)/X(q)  e(spline) 
   0     10    11.813    79.467    0.48E-04    0.30E-04    0.67E-06
   0     10    11.813    66.151    0.47E-04    0.30E-04    0.67E-06
   1     10    11.813    20.169    0.11E-03    0.17E-03    0.11E-05
   1     10    11.813    14.454    0.11E-03    0.17E-03    0.11E-05
 Optimization of the real space projectors (new method)

 maximal supplied QI-value         = 25.13
 optimisation between [QCUT,QGAM] = [ 11.81, 23.88] = [ 39.08,159.64] Ry 
 Optimized for a Real-space Cutoff    1.18 Angstroem

   l    n(q)    QCUT    max X(q) W(low)/X(q) W(high)/X(q)  e(spline) 
   0      8    11.813   115.676    0.10E-03    0.16E-03    0.35E-06
   0      8    11.813    87.132    0.10E-03    0.16E-03    0.35E-06
   1      8    11.813     4.429    0.16E-03    0.13E-04    0.22E-06
   1      8    11.813     2.733    0.13E-03    0.10E-04    0.18E-06
 Optimization of the real space projectors (new method)

 maximal supplied QI-value         = 24.76
 optimisation between [QCUT,QGAM] = [ 11.88, 24.01] = [ 39.54,161.47] Ry 
 Optimized for a Real-space Cutoff    1.18 Angstroem

   l    n(q)    QCUT    max X(q) W(low)/X(q) W(high)/X(q)  e(spline) 
   0      8    11.883    14.049    0.56E-04    0.86E-04    0.22E-06
   0      8    11.883     8.945    0.81E-04    0.11E-03    0.30E-06
   1      8    11.883     7.086    0.16E-03    0.15E-04    0.31E-06
   1      8    11.883     6.747    0.15E-03    0.14E-04    0.28E-06
 Optimization of the real space projectors (new method)

 maximal supplied QI-value         = 24.76
 optimisation between [QCUT,QGAM] = [ 11.88, 24.01] = [ 39.54,161.47] Ry 
 Optimized for a Real-space Cutoff    1.18 Angstroem

   l    n(q)    QCUT    max X(q) W(low)/X(q) W(high)/X(q)  e(spline) 
   0      8    11.883    20.381    0.86E-04    0.11E-03    0.31E-06
   0      8    11.883    15.268    0.94E-04    0.12E-03    0.33E-06
   1      8    11.883     5.964    0.19E-03    0.18E-04    0.33E-06
   1      8    11.883     5.382    0.17E-03    0.20E-04    0.29E-06
  PAW_PBE B 06Sep2000                   :
 energy of atom  1       EATOM=  -71.1703
 kinetic energy error for atom=    0.0009 (will be added to EATOM!!)
  PAW_PBE N 08Apr2002                   :
 energy of atom  2       EATOM= -264.5486
 kinetic energy error for atom=    0.0116 (will be added to EATOM!!)
  PAW_PBE C 08Apr2002                   :
 energy of atom  3       EATOM= -147.1560
 kinetic energy error for atom=    0.0066 (will be added to EATOM!!)
  PAW_PBE F 08Apr2002                   :
 energy of atom  4       EATOM= -659.6475
 kinetic energy error for atom=    0.0296 (will be added to EATOM!!)
  PAW_PBE O 08Apr2002                   :
 energy of atom  5       EATOM= -432.3788
 kinetic energy error for atom=    0.0194 (will be added to EATOM!!)
 
 
 POSCAR: B N C F O                               
  positions in direct lattice
  velocities in cartesian coordinates

 METAGGA = SCAN     LMAXTAU =  6    LMIXTAU =  F

 exchange correlation table for  LEXCH =        8
   RHO(1)=    0.500       N(1)  =     2000
   RHO(2)=  100.500       N(2)  =     4000

 VTST: version 3.1, (03/28/14)

 CHAIN: initializing optimizer
 
 OPT: Using VASP Conjugate-Gradient optimizer
 CHAIN: Read ICHAIN            0
 
 POSCAR: B N C F O                               
  positions in direct lattice
  velocities in cartesian coordinates
 


--------------------------------------------------------------------------------------------------------


 ion  position               nearest neighbor table
   1  0.111  0.056  0.500-  42 1.45  37 1.45  43 1.45
   2  0.111  0.222  0.500-  37 1.45  38 1.45  44 1.45
   3  0.111  0.389  0.500-  38 1.45  39 1.45  45 1.45
   4  0.111  0.556  0.500-  39 1.45  46 1.45  40 1.45
   5  0.111  0.722  0.500-  40 1.45  47 1.45  41 1.45
   6  0.111  0.889  0.500-  41 1.45  48 1.45  42 1.45
   7  0.278  0.056  0.500-  48 1.45  49 1.45  43 1.45
   8  0.278  0.222  0.500-  43 1.45  44 1.45  50 1.45
   9  0.278  0.389  0.500-  44 1.45  45 1.45  51 1.45
  10  0.278  0.556  0.500-  46 1.45  52 1.45  45 1.45
  11  0.278  0.722  0.500-  53 1.45  47 1.45  46 1.45
  12  0.278  0.889  0.500-  47 1.45  54 1.45  48 1.45
  13  0.444  0.056  0.500-  54 1.45  55 1.45  49 1.45
  14  0.444  0.222  0.500-  49 1.45  56 1.45  50 1.45
  15  0.444  0.389  0.500-  57 1.45  50 1.45  51 1.45
  16  0.444  0.556  0.500-  58 1.45  52 1.45  51 1.45
  17  0.444  0.722  0.500-  59 1.45  53 1.45  52 1.45
  18  0.444  0.889  0.500-  60 1.45  54 1.45  53 1.45
  19  0.611  0.056  0.500-  61 1.45  60 1.45  55 1.45
  20  0.611  0.222  0.500-  55 1.45  62 1.45  56 1.45
  21  0.611  0.389  0.500-  63 1.45  56 1.45  57 1.45
  22  0.611  0.556  0.500-  64 1.45  58 1.45  57 1.45
  23  0.611  0.722  0.500-  65 1.45  59 1.45  58 1.45
  24  0.611  0.889  0.500-  66 1.45  60 1.45  59 1.45
  25  0.778  0.056  0.500-  66 1.45  67 1.45  61 1.45
  26  0.778  0.222  0.500-  61 1.45  68 1.45  62 1.45
  27  0.778  0.389  0.500-  69 1.45  63 1.45  62 1.45
  28  0.778  0.556  0.500-  70 1.45  64 1.45  63 1.45
  29  0.778  0.722  0.500-  71 1.45  65 1.45  64 1.45
  30  0.778  0.889  0.500-  66 1.45  72 1.45  65 1.45
  31  0.944  0.056  0.500-  72 1.45  67 1.45  37 1.45
  32  0.944  0.222  0.500-  68 1.45  67 1.45  38 1.45
  33  0.944  0.389  0.500-  68 1.45  69 1.45  39 1.45
  34  0.944  0.556  0.500-  40 1.45  70 1.45  69 1.45
  35  0.944  0.722  0.500-  70 1.45  41 1.45  71 1.45
  36  0.944  0.889  0.500-  71 1.45  42 1.45  72 1.45
  37  0.056  0.111  0.500-   2 1.45   1 1.45  31 1.45
  38  0.056  0.278  0.500-   3 1.45   2 1.45  32 1.45
  39  0.056  0.444  0.500-   3 1.45   4 1.45  33 1.45
  40  0.056  0.611  0.500-   5 1.45  34 1.45   4 1.45
  41  0.056  0.778  0.500-   6 1.45  35 1.45   5 1.45
  42  0.056  0.944  0.500-   1 1.45  36 1.45   6 1.45
  43  0.222  0.111  0.500-   8 1.45   1 1.45   7 1.45
  44  0.222  0.278  0.500-   9 1.45   8 1.45   2 1.45
  45  0.222  0.444  0.500-   9 1.45  10 1.45   3 1.45
  46  0.222  0.611  0.500-  10 1.45   4 1.45  11 1.45
  47  0.222  0.778  0.500-  12 1.45   5 1.45  11 1.45
  48  0.222  0.944  0.500-   7 1.45   6 1.45  12 1.45
  49  0.389  0.111  0.500-  14 1.45   7 1.45  13 1.45
  50  0.389  0.278  0.500-  15 1.45   8 1.45  14 1.45
  51  0.389  0.444  0.500-  15 1.45   9 1.45  16 1.45
  52  0.389  0.611  0.500-  16 1.45  10 1.45  17 1.45
  53  0.389  0.778  0.500-  11 1.45  17 1.45  18 1.45
  54  0.389  0.944  0.500-  13 1.45  12 1.45  18 1.45
  55  0.556  0.111  0.500-  20 1.45  13 1.45  19 1.45
  56  0.556  0.278  0.500-  14 1.45  21 1.45  20 1.45
  57  0.556  0.444  0.500-  15 1.45  21 1.45  22 1.45
  58  0.556  0.611  0.500-  16 1.45  22 1.45  23 1.45
  59  0.556  0.778  0.500-  17 1.45  23 1.45  24 1.45
  60  0.556  0.944  0.500-  18 1.45  19 1.45  24 1.45
  61  0.722  0.111  0.500-  26 1.45  19 1.45  25 1.45
  62  0.722  0.278  0.500-  20 1.45  26 1.45  27 1.45
  63  0.722  0.444  0.500-  21 1.45  27 1.45  28 1.45
  64  0.722  0.611  0.500-  22 1.45  28 1.45  29 1.45
  65  0.722  0.778  0.500-  23 1.45  29 1.45  30 1.45
  66  0.722  0.944  0.500-  24 1.45  25 1.45  30 1.45
  67  0.889  0.111  0.500-  32 1.45  25 1.45  31 1.45
  68  0.889  0.278  0.500-  32 1.45  33 1.45  26 1.45
  69  0.889  0.444  0.500-  27 1.45  33 1.45  34 1.45
  70  0.889  0.611  0.500-  35 1.45  28 1.45  34 1.45
  71  0.889  0.778  0.500-  36 1.45  29 1.45  35 1.45
  72  0.889  0.944  0.500-  31 1.45  30 1.45  36 1.45
  73  0.373  0.314  0.673-  76 1.33  78 1.34  77 1.34  74 1.54
  74  0.355  0.312  0.629-  80 1.33  79 1.33  73 1.54  75 1.81
  75  0.343  0.422  0.617-  82 1.21  81 1.21  74 1.81
  76  0.462  0.396  0.682-  73 1.33
  77  0.377  0.230  0.683-  73 1.34
  78  0.297  0.314  0.692-  73 1.34
  79  0.433  0.318  0.610-  74 1.33
  80  0.269  0.228  0.620-  74 1.33
  81  0.429  0.493  0.613-  75 1.21
  82  0.252  0.394  0.616-  75 1.21
 

IMPORTANT INFORMATION: All symmetrisations will be switched off!
NOSYMM: (Re-)initialisation of all symmetry stuff for point group C_1.

 
 
 KPOINTS: K-Point Grid                            

Automatic generation of k-mesh.
Space group operators:
 irot       det(A)        alpha          n_x          n_y          n_z        tau_x        tau_y        tau_z
    1     1.000000     0.000000     1.000000     0.000000     0.000000     0.000000     0.000000     0.000000
 
 Subroutine IBZKPT returns following result:
 ===========================================
 
 Found      5 irreducible k-points:
 
 Following reciprocal coordinates:
            Coordinates               Weight
  0.000000  0.000000  0.000000      1.000000
  0.333333  0.000000  0.000000      2.000000
  0.000000  0.333333  0.000000      2.000000
  0.333333  0.333333  0.000000      2.000000
 -0.333333  0.333333  0.000000      2.000000
 
 Following cartesian coordinates:
            Coordinates               Weight
  0.000000  0.000000  0.000000      1.000000
  0.022114 -0.012768  0.000000      2.000000
  0.022114  0.012768  0.000000      2.000000
  0.044229  0.000000  0.000000      2.000000
  0.000000  0.025535  0.000000      2.000000
 


--------------------------------------------------------------------------------------------------------




 Dimension of arrays:
   k-points           NKPTS =      5   k-points in BZ     NKDIM =      5   number of bands    NBANDS=    288
   number of dos      NEDOS =   1200   number of ions     NIONS =     82
   non local maximal  LDIM  =      4   non local SUM 2l+1 LMDIM =      8
   total plane-waves  NPLWV = ******
   max r-space proj   IRMAX =   6598   max aug-charges    IRDMAX=   8974
   dimension x,y,z NGX =   120 NGY =  120 NGZ =  270
   dimension x,y,z NGXF=   240 NGYF=  240 NGZF=  540
   support grid    NGXF=   240 NGYF=  240 NGZF=  540
   ions per type =              36  36   3   5   2
   NGX,Y,Z   is equivalent  to a cutoff of  13.24, 13.24, 12.78 a.u.
   NGXF,Y,Z  is equivalent  to a cutoff of  26.47, 26.47, 25.57 a.u.

 SYSTEM =  hBN                                     
 POSCAR =  B N C F O                               

 Startparameter for this run:
   NWRITE =      2    write-flag & timer
   PREC   = accura    normal or accurate (medium, high low for compatibility)
   ISTART =      1    job   : 0-new  1-cont  2-samecut
   ICHARG =      0    charge: 1-file 2-atom 10-const
   ISPIN  =      2    spin polarized calculation?
   LNONCOLLINEAR =      F non collinear calculations
   LSORBIT =      F    spin-orbit coupling
   INIWAV =      1    electr: 0-lowe 1-rand  2-diag
   LASPH  =      T    aspherical Exc in radial PAW
   METAGGA=      F    non-selfconsistent MetaGGA calc.

 Electronic Relaxation 1
   ENCUT  =  550.0 eV  40.42 Ry    6.36 a.u.  28.82 28.82 67.15*2*pi/ulx,y,z
   ENINI  =  550.0     initial cutoff
   ENAUG  =  644.9 eV  augmentation charge cutoff
   NELM   =    100;   NELMIN=  2; NELMDL=  0     # of ELM steps 
   EDIFF  = 0.1E-04   stopping-criterion for ELM
   LREAL  =      T    real-space projection
   NLSPLINE    = F    spline interpolate recip. space projectors
   LCOMPAT=      F    compatible to vasp.4.4
   GGA_COMPAT  = T    GGA compatible to vasp.4.4-vasp.4.6
   LMAXPAW     = -100 max onsite density
   LMAXMIX     =    2 max onsite mixed and CHGCAR
   VOSKOWN=      0    Vosko Wilk Nusair interpolation
   ROPT   =   -0.00025  -0.00025  -0.00025  -0.00025
   ROPT   =   -0.00025
 Ionic relaxation
   EDIFFG = -.5E-01   stopping-criterion for IOM
   NSW    =      0    number of steps for IOM
   NBLOCK =      1;   KBLOCK =      1    inner block; outer block 
   IBRION =     -1    ionic relax: 0-MD 1-quasi-New 2-CG
   NFREE  =      1    steps in history (QN), initial steepest desc. (CG)
   ISIF   =      2    stress and relaxation
   IWAVPR =     10    prediction:  0-non 1-charg 2-wave 3-comb
   ISYM   =      0    0-nonsym 1-usesym 2-fastsym
   LCORR  =      T    Harris-Foulkes like correction to forces

   POTIM  = 0.5000    time-step for ionic-motion
   TEIN   =    0.0    initial temperature
   TEBEG  =    0.0;   TEEND  =   0.0 temperature during run
   SMASS  =  -3.00    Nose mass-parameter (am)
   estimated Nose-frequenzy (Omega)   =  0.10E-29 period in steps =****** mass=  -0.519E-26a.u.
   SCALEE = 1.0000    scale energy and forces
   NPACO  =    256;   APACO  = 16.0  distance and # of slots for P.C.
   PSTRESS=    0.0 pullay stress

  Mass of Ions in am
   POMASS =  10.81 14.00 12.01 19.00 16.00
  Ionic Valenz
   ZVAL   =   3.00  5.00  4.00  7.00  6.00
  Atomic Wigner-Seitz radii
   RWIGS  =  -1.00 -1.00 -1.00 -1.00 -1.00
  virtual crystal weights 
   VCA    =   1.00  1.00  1.00  1.00  1.00
   NELECT =     345.9000    total number of electrons
   NUPDOWN=      -1.0000    fix difference up-down

 DOS related values:
   EMIN   = -10.00;   EMAX   =  5.00  energy-range for DOS
   EFERMI =   0.00
   ISMEAR =     0;   SIGMA  =   0.05  broadening in eV -4-tet -1-fermi 0-gaus

 Electronic relaxation 2 (details)
   IALGO  =     68    algorithm
   LDIAG  =      T    sub-space diagonalisation (order eigenvalues)
   LSUBROT=      F    optimize rotation matrix (better conditioning)
   TURBO    =      0    0=normal 1=particle mesh
   IRESTART =      0    0=no restart 2=restart with 2 vectors
   NREBOOT  =      0    no. of reboots
   NMIN     =      0    reboot dimension
   EREF     =   0.00    reference energy to select bands
   IMIX   =      4    mixing-type and parameters
     AMIX     =   0.40;   BMIX     =  1.00
     AMIX_MAG =   1.60;   BMIX_MAG =  1.00
     AMIN     =   0.10
     WC   =   100.;   INIMIX=   1;  MIXPRE=   1;  MAXMIX= -45

 Intra band minimization:
   WEIMIN = 0.0000     energy-eigenvalue tresh-hold
   EBREAK =  0.87E-08  absolut break condition
   DEPER  =   0.30     relativ break condition  

   TIME   =   0.40     timestep for ELM

  volume/ion in A,a.u.               =      84.26       568.60
  Fermi-wavevector in a.u.,A,eV,Ry     =   0.603369  1.140202  4.953256  0.364054
  Thomas-Fermi vector in A             =   1.656324
 
 Write flags
   LWAVE        =      F    write WAVECAR
   LDOWNSAMPLE  =      F    k-point downsampling of WAVECAR
   LCHARG       =      T    write CHGCAR
   LVTOT        =      F    write LOCPOT, total local potential
   LVHAR        =      T    write LOCPOT, Hartree potential only
   LELF         =      F    write electronic localiz. function (ELF)
   LORBIT       =     11    0 simple, 1 ext, 2 COOP (PROOUT), +10 PAW based schemes


 Dipole corrections
   LMONO  =      F    monopole corrections only (constant potential shift)
   LDIPOL =      F    correct potential (dipole corrections)
   IDIPOL =      0    1-x, 2-y, 3-z, 4-all directions 
   EPSILON=  1.0000000 bulk dielectric constant

 Exchange correlation treatment:
   GGA     =    --    GGA type
   LEXCH   =     8    internal setting for exchange type
   VOSKOWN=      0    Vosko Wilk Nusair interpolation
   LHFCALC =     F    Hartree Fock is set to
   LHFONE  =     F    Hartree Fock one center treatment
   AEXX    =    0.0000 exact exchange contribution

 Linear response parameters
   LEPSILON=     F    determine dielectric tensor
   LRPA    =     F    only Hartree local field effects (RPA)
   LNABLA  =     F    use nabla operator in PAW spheres
   LVEL    =     F    velocity operator in full k-point grid
   LINTERFAST=   F  fast interpolation
   KINTER  =     0    interpolate to denser k-point grid
   CSHIFT  =0.1000    complex shift for real part using Kramers Kronig
   OMEGAMAX=  -1.0    maximum frequency
   DEG_THRESHOLD= 0.2000000E-02 threshold for treating states as degnerate
   RTIME   =   -0.100 relaxation time in fs
  (WPLASMAI=    0.000 imaginary part of plasma frequency in eV, 0.658/RTIME)
   DFIELD  = 0.0000000 0.0000000 0.0000000 field for delta impulse in time
 
 Orbital magnetization related:
   ORBITALMAG=     F  switch on orbital magnetization
   LCHIMAG   =     F  perturbation theory with respect to B field
   DQ        =  0.001000  dq finite difference perturbation B field
   LLRAUG    =     F  two centre corrections for induced B field

 Solvation model:
   LSOL    =     T         switch on solvation model
   EB_K    = 78.400000     relative permittivity of the bulk solvent
   SIGMA_K =  0.600000     width of the dielectric cavity
   NC_K    =  0.002500     cutoff charge density
   TAU     =  0.000000     cavity surface tension
   LAMBDA_D_K    =  3.040000     Debye length in Angstroms
   LRHOB     =     F     write boundcharge  density
   LRHOION     =     F     write ioniccharge density



--------------------------------------------------------------------------------------------------------


 Static calculation
 charge density and potential will be updated during run
 spin polarized calculation
 RMM-DIIS sequential band-by-band and
  variant of blocked Davidson during initial phase
 perform sub-space diagonalisation
    before iterative eigenvector-optimisation
 modified Broyden-mixing scheme, WC =      100.0
 initial mixing is a Kerker type mixing with AMIX =  0.4000 and BMIX =      1.0000
 Hartree-type preconditioning will be used
 using additional bands          115
 real space projection scheme for non local part
 use partial core corrections
 calculate Harris-corrections to forces 
   (improved forces if not selfconsistent)
 use gradient corrections 
 use of overlap-Matrix (Vanderbilt PP)
 Gauss-broadening in eV      SIGMA  =   0.05


--------------------------------------------------------------------------------------------------------


  energy-cutoff  :      550.00
  volume of cell :     6909.18
      direct lattice vectors                 reciprocal lattice vectors
     7.536550057-13.053746059  0.000000000     0.066343353 -0.038303181  0.000000000
     7.536550057 13.053746059  0.000000000     0.066343353  0.038303181  0.000000000
     0.000000000  0.000000000 35.114664386     0.000000000  0.000000000  0.028478131

  length of vectors
    15.073150730 15.073150730 35.114664386     0.076606620  0.076606620  0.028478131


 
 old parameters found on file WAVECAR:
  energy-cutoff  :      550.00
  volume of cell :     6909.18
      direct lattice vectors                 reciprocal lattice vectors
     7.536550057-13.053746059  0.000000000     0.066343353 -0.038303181  0.000000000
     7.536550057 13.053746059  0.000000000     0.066343353  0.038303181  0.000000000
     0.000000000  0.000000000 35.114664386     0.000000000  0.000000000  0.028478131

  length of vectors

 
 k-points in units of 2pi/SCALE and weight: K-Point Grid                            
   0.00000000  0.00000000  0.00000000       0.111
   0.02211445 -0.01276773  0.00000000       0.222
   0.02211445  0.01276773  0.00000000       0.222
   0.04422890  0.00000000  0.00000000       0.222
   0.00000000  0.02553545  0.00000000       0.222
 
 k-points in reciprocal lattice and weights: K-Point Grid                            
   0.00000000  0.00000000  0.00000000       0.111
   0.33333333  0.00000000  0.00000000       0.222
   0.00000000  0.33333333  0.00000000       0.222
   0.33333333  0.33333333  0.00000000       0.222
  -0.33333333  0.33333333  0.00000000       0.222
 
 position of ions in fractional coordinates (direct lattice) 
   0.11108803  0.05555974  0.50001994
   0.11108767  0.22222837  0.49998351
   0.11109520  0.38889547  0.49995893
   0.11110861  0.55557032  0.49996537
   0.11110612  0.72223813  0.50002082
   0.11110383  0.88889580  0.50004666
   0.27777072  0.05555793  0.50004415
   0.27775272  0.22220982  0.49998054
   0.27775351  0.38889139  0.49995282
   0.27777361  0.55557091  0.49995579
   0.27777352  0.72223595  0.49997453
   0.27777123  0.88889812  0.50003784
   0.44444049  0.05556045  0.50004971
   0.44445118  0.22221477  0.50005331
   0.44446728  0.38891115  0.49999346
   0.44445255  0.55558863  0.49999023
   0.44444216  0.72224092  0.49996455
   0.44443754  0.88890187  0.50000594
   0.61110622  0.05557036  0.50003445
   0.61110862  0.22222906  0.50004834
   0.61111828  0.38890390  0.50001964
   0.61111415  0.55558474  0.49997942
   0.61110579  0.72224433  0.49996891
   0.61110008  0.88890590  0.49999351
   0.77776752  0.05557441  0.50002333
   0.77777267  0.22224054  0.50002621
   0.77777710  0.38891412  0.50002439
   0.77777319  0.55558105  0.50000498
   0.77776847  0.72224423  0.49999700
   0.77776495  0.88890981  0.50000980
   0.94442694  0.05557027  0.50001807
   0.94442948  0.22224201  0.49999263
   0.94444060  0.38891326  0.49999041
   0.94444327  0.55558139  0.50001457
   0.94443801  0.72223969  0.50003070
   0.94443173  0.88890129  0.50003369
   0.05554421  0.11112791  0.50000648
   0.05554905  0.27779305  0.49996734
   0.05555507  0.44446150  0.49995683
   0.05555314  0.61112974  0.49999916
   0.05554807  0.77779259  0.50004671
   0.05554541  0.94445692  0.50004612
   0.22220940  0.11111878  0.50001218
   0.22222451  0.27779872  0.49998554
   0.22222185  0.44445623  0.49995029
   0.22221918  0.61112252  0.49994425
   0.22221677  0.77779058  0.50001291
   0.22221627  0.94445662  0.50005521
   0.38888383  0.11112911  0.50006627
   0.38887295  0.27779879  0.50005203
   0.38888441  0.44445155  0.50005707
   0.38888134  0.61111865  0.49996686
   0.38888142  0.77778940  0.49997086
   0.38888028  0.94445597  0.50003793
   0.55554779  0.11112313  0.50005064
   0.55554579  0.27779359  0.50005843
   0.55554946  0.44445924  0.49999167
   0.55554549  0.61112525  0.49996391
   0.55554605  0.77779280  0.49996083
   0.55554485  0.94446156  0.50001059
   0.72221442  0.11113410  0.50003804
   0.72221522  0.27779806  0.50003864
   0.72221873  0.44446602  0.50001312
   0.72221389  0.61113049  0.49998248
   0.72220966  0.77779705  0.49998495
   0.72220936  0.94446510  0.50001157
   0.88887849  0.11113318  0.50001437
   0.88888317  0.27780337  0.49999774
   0.88888568  0.44446913  0.50001491
   0.88888217  0.61113201  0.50002156
   0.88887843  0.77779428  0.50002448
   0.88887682  0.94446282  0.50002940
   0.37343770  0.31380869  0.67279896
   0.35500358  0.31199827  0.62947530
   0.34290054  0.42226882  0.61713674
   0.46190409  0.39647791  0.68232932
   0.37747678  0.22978222  0.68260302
   0.29675099  0.31394969  0.69182832
   0.43343840  0.31780509  0.61013328
   0.26909671  0.22756950  0.61987251
   0.42917036  0.49328637  0.61321960
   0.25248088  0.39399135  0.61635262
 
 position of ions in cartesian coordinates  (Angst):
   1.25594926 -0.72485211 17.55803230
   2.51205301  1.45080251 17.55675308
   3.76820475  3.62633420 17.55589003
   5.02445912  5.80189023 17.55611620
   6.28054062  7.97756203 17.55806324
   7.53654725 10.15309879 17.55897047
   2.51214802 -2.90070927 17.55888237
   3.76799272 -0.72504288 17.55664870
   5.02420268  1.45076569 17.55567535
   6.28054273  3.62629536 17.55577967
   7.53662144  5.80189964 17.55643788
   8.79266195  7.97749513 17.55866076
   3.76828206 -5.07634126 17.55907784
   5.02436135 -2.90101768 17.55920432
   6.28079824 -0.72521558 17.55710243
   7.53686046  1.45074216 17.55698923
   8.79276542  3.62631437 17.55608751
  10.04877916  5.80192449 17.55754062
   5.02444140 -7.25182406 17.55854196
   6.28049115 -5.07633510 17.55902951
   7.53671722 -2.90073016 17.55802175
   8.79288453 -0.72486679 17.55660950
  10.04885985  1.45077428 17.55624032
  11.30487016  3.62640673 17.55710436
   6.28052318 -9.42732538 17.55815154
   7.53664966 -7.25177534 17.55825242
   8.79282676 -5.07611854 17.55818854
  10.04889092 -2.90043978 17.55750707
  11.30492083 -0.72479929 17.55722673
  12.56097779  1.45085684 17.55767633
   7.53652900-11.60290927 17.55796684
   8.79267810 -9.42725189 17.55707346
  10.04888808 -7.25171288 17.55699533
  11.30501095 -5.07610422 17.55784381
  12.56099991 -2.90052035 17.55841031
  13.81700605 -0.72488026 17.55851535
   1.25613284  0.72557550 17.55755960
   2.51224939  2.90111668 17.55618542
   3.76839988  5.07668573 17.55581644
   5.02448885  7.25235581 17.55730277
   6.28051360  9.42799655 17.55897231
   7.53656764 11.60362509 17.55895163
   2.51214454 -1.45014870 17.55775987
   3.76845005  0.72545165 17.55682455
   5.02445268  2.90099117 17.55558679
   6.28052148  5.07664546 17.55537464
   7.53660541  7.25231939 17.55778566
   8.79268864  9.42794208 17.55927097
   3.76837254 -3.62573969 17.55965917
   5.02440492 -1.44993382 17.55915915
   6.28047816  0.72535930 17.55933633
   7.53655003  2.90102944 17.55616836
   8.79267307  5.07670595 17.55630883
  10.04875537  7.25234393 17.55866396
   5.02439877 -5.80140676 17.55911024
   6.28050396 -3.62570677 17.55938385
   7.53661564 -1.45014350 17.55703970
   8.79267248  0.72552408 17.55606481
  10.04877501  2.90115256 17.55595676
  11.30487337  5.07681991 17.55770389
   6.28057282 -7.97688741 17.55866803
   7.53665017 -5.80130876 17.55868889
   8.79277803 -3.62571329 17.55779295
  10.04881663 -1.45005454 17.55671711
  11.30487563  0.72562376 17.55680387
  12.56097550  2.90127002 17.55773863
   7.53663802-10.15248977 17.55783682
   8.79279158 -7.97688053 17.55725275
  10.04889529 -5.80130074 17.55785577
  11.30493195 -3.62568010 17.55808914
  12.56096230 -1.45006420 17.55819166
  13.81705601  0.72560550 17.55836441
   5.17946677 -0.77838193 23.62510985
   5.02689283 -0.56138040 22.10381393
   5.76673723  1.03605333 21.67054956
   6.46923893 -0.85405678 23.95976523
   4.57663787 -1.92796736 23.96937613
   4.60257628  0.22450751 24.29331943
   5.66178419 -1.50944789 21.42462528
   3.74314978 -0.54208573 21.76661519
   6.95214133  0.83695401 21.53300030
   4.87217034  1.84724171 21.64301548
 


--------------------------------------------------------------------------------------------------------


 k-point  1 :   0.0000 0.0000 0.0000  plane waves:  202395
 k-point  2 :   0.3333 0.0000 0.0000  plane waves:  202358
 k-point  3 :   0.0000 0.3333 0.0000  plane waves:  202358
 k-point  4 :   0.3333 0.3333 0.0000  plane waves:  202335
 k-point  5 :  -0.3333 0.3333 0.0000  plane waves:  202358

 maximum and minimum number of plane-waves per node :    202395   202335

 maximum number of plane-waves:    202395
 maximum index in each direction: 
   IXMAX=   29   IYMAX=   28   IZMAX=   67
   IXMIN=  -29   IYMIN=  -29   IZMIN=  -67


 serial   3D FFT for wavefunctions
 parallel 3D FFT for charge:
    minimum data exchange during FFTs selected (reduces bandwidth)


 total amount of memory used by VASP MPI-rank0   938853. kBytes
=======================================================================

   base      :      30000. kBytes
   nonlr-proj:      37384. kBytes
   fftplans  :      37660. kBytes
   grid      :     638342. kBytes
   one-center:        503. kBytes
   wavefun   :     194964. kBytes
 
     INWAV:  cpu time   22.3023: real time   23.5523
 Broyden mixing: mesh for mixing (old mesh)
   NGX = 57   NGY = 57   NGZ =135
  (NGX  =240   NGY  =240   NGZ  =540)
  gives a total of 438615 points

 charge density for first step will be calculated from the start-wavefunctions


--------------------------------------------------------------------------------------------------------


 Maximum index for non-local projection operator         6363
 Maximum index for augmentation-charges          434 (set IRDMAX)


--------------------------------------------------------------------------------------------------------


 initial charge from wavefunction
 First call to EWALD:  gamma=   0.093
 Maximum number of real-space cells 4x 4x 2
 Maximum number of reciprocal cells 2x 2x 5

    FEWALD:  cpu time    0.0301: real time    0.0266


--------------------------------------- Iteration      1(   1)  ---------------------------------------


    POTLOK:  cpu time   27.7035: real time   28.1565
    SETDIJ:  cpu time    0.9482: real time    0.8787
     EDDAV:  cpu time  249.4133: real time  168.8435
       DOS:  cpu time    0.0979: real time    0.0964
    CHARGE:  cpu time   31.3203: real time   30.3730
    MIXING:  cpu time    0.0764: real time    0.0527
    --------------------------------------------
      LOOP:  cpu time  309.5598: real time  228.4009

 eigenvalue-minimisations  :  5760
 total energy-change (2. order) :-0.7719593E+03  (-0.4344049E-02)
 number of electron     345.8999969 magnetization       0.8519970
 augmentation part       16.0463279 magnetization       0.2304199

 Broyden mixing:
  rms(total) = 0.47401E-01    rms(broyden)= 0.47341E-01
  rms(prec ) = 0.49685E-01
  weight for this iteration     100.00

 Free energy of the ion-electron system (eV)
  ---------------------------------------------------
  alpha Z        PSCENC =        92.14382556
  Ewald energy   TEWEN  =    110978.71748852
  -Hartree energ DENC   =   -124516.46335074
  -exchange      EXHF   =         0.00000000
  -V(xc)+E(xc)   XCENC  =      1585.82320279
  PAW double counting   =     40365.90490392   -40532.68239453
  entropy T*S    EENTRO =        -0.04483885
  eigenvalues    EBANDS =     -5095.06513007
  atomic energy  EATOM  =     16689.68470767
  Solvation  Ediel_sol  =      -339.97774023
  ---------------------------------------------------
  free energy    TOTEN  =      -771.95932595 eV

  energy without entropy =     -771.91448710  energy(sigma->0) =     -771.93690653


--------------------------------------------------------------------------------------------------------




--------------------------------------- Iteration      1(   2)  ---------------------------------------


    POTLOK:  cpu time   23.1288: real time   23.1734
    SETDIJ:  cpu time    0.8876: real time    0.6919
    EDDIAG:  cpu time   52.4647: real time   38.7502
  RMM-DIIS:  cpu time  328.9488: real time  252.6712
    ORTHCH:  cpu time    2.5935: real time    1.3050
       DOS:  cpu time    0.0019: real time    0.0009
    CHARGE:  cpu time   31.3455: real time   30.3200
    MIXING:  cpu time    0.0469: real time    0.0241
    --------------------------------------------
      LOOP:  cpu time  439.4176: real time  346.9367

 eigenvalue-minimisations  :  6655
 total energy-change (2. order) : 0.1159165E-01  (-0.1729177E-02)
 number of electron     345.8999969 magnetization       0.8529206
 augmentation part       16.0388969 magnetization       0.1280100

 Broyden mixing:
  rms(total) = 0.56644E-01    rms(broyden)= 0.56590E-01
  rms(prec ) = 0.57505E-01
  weight for this iteration     100.00

 eigenvalues of (default mixing * dielectric matrix)
  average eigenvalue GAMMA=   0.4092
  0.4092

 Free energy of the ion-electron system (eV)
  ---------------------------------------------------
  alpha Z        PSCENC =        92.14382556
  Ewald energy   TEWEN  =    110978.71748852
  -Hartree energ DENC   =   -124515.92201179
  -exchange      EXHF   =         0.00000000
  -V(xc)+E(xc)   XCENC  =      1585.85823747
  PAW double counting   =     40394.62718776   -40561.39956652
  entropy T*S    EENTRO =        -0.03881272
  eigenvalues    EBANDS =     -5094.81098765
  atomic energy  EATOM  =     16689.68470767
  Solvation  Ediel_sol  =      -340.80780261
  ---------------------------------------------------
  free energy    TOTEN  =      -771.94773431 eV

  energy without entropy =     -771.90892159  energy(sigma->0) =     -771.92832795


--------------------------------------------------------------------------------------------------------




--------------------------------------- Iteration      1(   3)  ---------------------------------------


    POTLOK:  cpu time   22.3938: real time   22.3803
    SETDIJ:  cpu time    0.8907: real time    0.6952
    EDDIAG:  cpu time   52.5758: real time   38.8463
  RMM-DIIS:  cpu time  337.2635: real time  258.2976
    ORTHCH:  cpu time    2.6056: real time    1.3086
       DOS:  cpu time    0.0020: real time    0.0010
    CHARGE:  cpu time   31.2736: real time   30.2596
    MIXING:  cpu time    0.0449: real time    0.0225
    --------------------------------------------
      LOOP:  cpu time  447.0500: real time  351.8111

 eigenvalue-minimisations  :  6931
 total energy-change (2. order) :-0.9517886E-02  (-0.6147695E-03)
 number of electron     345.8999969 magnetization       0.8547043
 augmentation part       16.0351496 magnetization       0.0841470

 Broyden mixing:
  rms(total) = 0.62109E-01    rms(broyden)= 0.62074E-01
  rms(prec ) = 0.64795E-01
  weight for this iteration     100.00

 eigenvalues of (default mixing * dielectric matrix)
  average eigenvalue GAMMA=   0.4566
  0.4566  0.4566

 Free energy of the ion-electron system (eV)
  ---------------------------------------------------
  alpha Z        PSCENC =        92.14382556
  Ewald energy   TEWEN  =    110978.71748852
  -Hartree energ DENC   =   -124515.86214301
  -exchange      EXHF   =         0.00000000
  -V(xc)+E(xc)   XCENC  =      1585.84845765
  PAW double counting   =     40403.10666864   -40569.87275388
  entropy T*S    EENTRO =        -0.03479481
  eigenvalues    EBANDS =     -5095.09711048
  atomic energy  EATOM  =     16689.68470767
  Solvation  Ediel_sol  =      -340.59159806
  ---------------------------------------------------
  free energy    TOTEN  =      -771.95725219 eV

  energy without entropy =     -771.92245739  energy(sigma->0) =     -771.93985479


--------------------------------------------------------------------------------------------------------




--------------------------------------- Iteration      1(   4)  ---------------------------------------


    POTLOK:  cpu time   22.4158: real time   22.4195
    SETDIJ:  cpu time    0.8923: real time    0.6966
    EDDIAG:  cpu time   52.4141: real time   38.6658
  RMM-DIIS:  cpu time  330.8564: real time  253.1384
    ORTHCH:  cpu time    2.6073: real time    1.3095
       DOS:  cpu time    0.0022: real time    0.0011
    CHARGE:  cpu time   31.3215: real time   30.2810
    MIXING:  cpu time    0.0476: real time    0.0239
    --------------------------------------------
      LOOP:  cpu time  440.5572: real time  346.5358

 eigenvalue-minimisations  :  6688
 total energy-change (2. order) : 0.9260180E-03  (-0.3287149E-03)
 number of electron     345.8999969 magnetization       0.8553670
 augmentation part       16.0402016 magnetization       0.1580770

 Broyden mixing:
  rms(total) = 0.10058E-01    rms(broyden)= 0.98995E-02
  rms(prec ) = 0.10059E-01
  weight for this iteration     100.00

 eigenvalues of (default mixing * dielectric matrix)
  average eigenvalue GAMMA=   0.9352
  1.8074  0.4992  0.4992

 Free energy of the ion-electron system (eV)
  ---------------------------------------------------
  alpha Z        PSCENC =        92.14382556
  Ewald energy   TEWEN  =    110978.71748852
  -Hartree energ DENC   =   -124516.01658311
  -exchange      EXHF   =         0.00000000
  -V(xc)+E(xc)   XCENC  =      1585.83560366
  PAW double counting   =     40405.15933446   -40571.92082829
  entropy T*S    EENTRO =        -0.04053825
  eigenvalues    EBANDS =     -5095.30853857
  atomic energy  EATOM  =     16689.68470767
  Solvation  Ediel_sol  =      -340.21079782
  ---------------------------------------------------
  free energy    TOTEN  =      -771.95632618 eV

  energy without entropy =     -771.91578792  energy(sigma->0) =     -771.93605705


--------------------------------------------------------------------------------------------------------




--------------------------------------- Iteration      1(   5)  ---------------------------------------


    POTLOK:  cpu time   21.8422: real time   21.8643
    SETDIJ:  cpu time    0.8954: real time    0.6997
    EDDIAG:  cpu time   52.4300: real time   38.6718
  RMM-DIIS:  cpu time  330.0742: real time  252.3599
    ORTHCH:  cpu time    2.6104: real time    1.3110
       DOS:  cpu time    0.0020: real time    0.0010
    CHARGE:  cpu time   31.2618: real time   30.2317
    MIXING:  cpu time    0.0472: real time    0.0236
    --------------------------------------------
      LOOP:  cpu time  439.1632: real time  345.1630

 eigenvalue-minimisations  :  6733
 total energy-change (2. order) :-0.2434594E-02  (-0.4087821E-03)
 number of electron     345.8999969 magnetization       0.8547187
 augmentation part       16.0442425 magnetization       0.2160786

 Broyden mixing:
  rms(total) = 0.39638E-01    rms(broyden)= 0.39572E-01
  rms(prec ) = 0.41460E-01
  weight for this iteration     100.00

 eigenvalues of (default mixing * dielectric matrix)
  average eigenvalue GAMMA=   0.9536
  2.3953  0.4765  0.4765  0.4662

 Free energy of the ion-electron system (eV)
  ---------------------------------------------------
  alpha Z        PSCENC =        92.14382556
  Ewald energy   TEWEN  =    110978.71748852
  -Hartree energ DENC   =   -124515.70951531
  -exchange      EXHF   =         0.00000000
  -V(xc)+E(xc)   XCENC  =      1585.82686349
  PAW double counting   =     40435.29356879   -40602.04160463
  entropy T*S    EENTRO =        -0.04426921
  eigenvalues    EBANDS =     -5095.75599935
  atomic energy  EATOM  =     16689.68470767
  Solvation  Ediel_sol  =      -340.07382630
  ---------------------------------------------------
  free energy    TOTEN  =      -771.95876077 eV

  energy without entropy =     -771.91449156  energy(sigma->0) =     -771.93662616


--------------------------------------------------------------------------------------------------------




--------------------------------------- Iteration      1(   6)  ---------------------------------------


    POTLOK:  cpu time   22.0493: real time   22.0431
    SETDIJ:  cpu time    0.8914: real time    0.6954
    EDDIAG:  cpu time   52.4122: real time   38.6830
  RMM-DIIS:  cpu time  331.5953: real time  254.4230
    ORTHCH:  cpu time    2.5938: real time    1.3027
       DOS:  cpu time    0.0021: real time    0.0011
    CHARGE:  cpu time   31.3882: real time   30.3671
    MIXING:  cpu time    0.0509: real time    0.0255
    --------------------------------------------
      LOOP:  cpu time  440.9832: real time  347.5409

 eigenvalue-minimisations  :  6786
 total energy-change (2. order) : 0.7790670E-03  (-0.3490156E-03)
 number of electron     345.8999969 magnetization       0.8548943
 augmentation part       16.0404326 magnetization       0.1647966

 Broyden mixing:
  rms(total) = 0.67689E-02    rms(broyden)= 0.66885E-02
  rms(prec ) = 0.68837E-02
  weight for this iteration     100.00

 eigenvalues of (default mixing * dielectric matrix)
  average eigenvalue GAMMA=   0.8504
  2.3667  0.4604  0.4604  0.4824  0.4824

 Free energy of the ion-electron system (eV)
  ---------------------------------------------------
  alpha Z        PSCENC =        92.14382556
  Ewald energy   TEWEN  =    110978.71748852
  -Hartree energ DENC   =   -124515.51194997
  -exchange      EXHF   =         0.00000000
  -V(xc)+E(xc)   XCENC  =      1585.82283511
  PAW double counting   =     40440.41801257   -40607.16486464
  entropy T*S    EENTRO =        -0.04143270
  eigenvalues    EBANDS =     -5095.77653895
  atomic energy  EATOM  =     16689.68470767
  Solvation  Ediel_sol  =      -340.25006488
  ---------------------------------------------------
  free energy    TOTEN  =      -771.95798170 eV

  energy without entropy =     -771.91654900  energy(sigma->0) =     -771.93726535


--------------------------------------------------------------------------------------------------------




--------------------------------------- Iteration      1(   7)  ---------------------------------------


    POTLOK:  cpu time   20.9026: real time   20.9080
    SETDIJ:  cpu time    0.8907: real time    0.6949
    EDDIAG:  cpu time   52.5084: real time   38.7376
  RMM-DIIS:  cpu time  320.8687: real time  245.0501
    ORTHCH:  cpu time    2.6035: real time    1.3081
       DOS:  cpu time    0.0019: real time    0.0010
    CHARGE:  cpu time   31.3383: real time   30.3153
    MIXING:  cpu time    0.0513: real time    0.0257
    --------------------------------------------
      LOOP:  cpu time  429.1654: real time  337.0407

 eigenvalue-minimisations  :  6205
 total energy-change (2. order) :-0.4903003E-03  (-0.1219725E-03)
 number of electron     345.8999969 magnetization       0.8554128
 augmentation part       16.0394837 magnetization       0.1504895

 Broyden mixing:
  rms(total) = 0.45598E-02    rms(broyden)= 0.45159E-02
  rms(prec ) = 0.47513E-02
  weight for this iteration     100.00

 eigenvalues of (default mixing * dielectric matrix)
  average eigenvalue GAMMA=   0.8428
  2.4514  0.5900  0.5423  0.5423  0.4653  0.4653

 Free energy of the ion-electron system (eV)
  ---------------------------------------------------
  alpha Z        PSCENC =        92.14382556
  Ewald energy   TEWEN  =    110978.71748852
  -Hartree energ DENC   =   -124515.50686961
  -exchange      EXHF   =         0.00000000
  -V(xc)+E(xc)   XCENC  =      1585.81361218
  PAW double counting   =     40440.31876547   -40607.06553127
  entropy T*S    EENTRO =        -0.04049910
  eigenvalues    EBANDS =     -5095.79158660
  atomic energy  EATOM  =     16689.68470767
  Solvation  Ediel_sol  =      -340.23238484
  ---------------------------------------------------
  free energy    TOTEN  =      -771.95847200 eV

  energy without entropy =     -771.91797290  energy(sigma->0) =     -771.93822245


--------------------------------------------------------------------------------------------------------




--------------------------------------- Iteration      1(   8)  ---------------------------------------


    POTLOK:  cpu time   20.9230: real time   20.9252
    SETDIJ:  cpu time    0.8963: real time    0.7004
    EDDIAG:  cpu time   52.4432: real time   38.6902
  RMM-DIIS:  cpu time  298.9591: real time  231.7002
    ORTHCH:  cpu time    2.6104: real time    1.3110
       DOS:  cpu time    0.0020: real time    0.0010
    CHARGE:  cpu time   31.3718: real time   30.3507
    MIXING:  cpu time    0.0535: real time    0.0268
    --------------------------------------------
      LOOP:  cpu time  407.2593: real time  323.7055

 eigenvalue-minimisations  :  5592
 total energy-change (2. order) :-0.1348744E-03  (-0.4008631E-04)
 number of electron     345.8999969 magnetization       0.8563666
 augmentation part       16.0404102 magnetization       0.1590451

 Broyden mixing:
  rms(total) = 0.36357E-02    rms(broyden)= 0.36302E-02
  rms(prec ) = 0.37487E-02
  weight for this iteration     100.00

 eigenvalues of (default mixing * dielectric matrix)
  average eigenvalue GAMMA=   0.8740
  2.4530  0.4679  0.4679  0.7549  0.7549  0.6099  0.6099

 Free energy of the ion-electron system (eV)
  ---------------------------------------------------
  alpha Z        PSCENC =        92.14382556
  Ewald energy   TEWEN  =    110978.71748852
  -Hartree energ DENC   =   -124515.51462527
  -exchange      EXHF   =         0.00000000
  -V(xc)+E(xc)   XCENC  =      1585.81365608
  PAW double counting   =     40440.54674503   -40607.29324761
  entropy T*S    EENTRO =        -0.04120627
  eigenvalues    EBANDS =     -5095.82899129
  atomic energy  EATOM  =     16689.68470767
  Solvation  Ediel_sol  =      -340.18695930
  ---------------------------------------------------
  free energy    TOTEN  =      -771.95860688 eV

  energy without entropy =     -771.91740061  energy(sigma->0) =     -771.93800374


--------------------------------------------------------------------------------------------------------




--------------------------------------- Iteration      1(   9)  ---------------------------------------


    POTLOK:  cpu time   20.3598: real time   20.3509
    SETDIJ:  cpu time    0.8926: real time    0.6968
    EDDIAG:  cpu time   52.5075: real time   38.7193
  RMM-DIIS:  cpu time  301.8810: real time  233.8130
    ORTHCH:  cpu time    2.6321: real time    1.3217
       DOS:  cpu time    0.0021: real time    0.0010
    CHARGE:  cpu time   31.3580: real time   30.3303
    MIXING:  cpu time    0.0568: real time    0.0284
    --------------------------------------------
      LOOP:  cpu time  409.6900: real time  325.2616

 eigenvalue-minimisations  :  5618
 total energy-change (2. order) :-0.8161834E-04  (-0.9734706E-05)
 number of electron     345.8999969 magnetization       0.8569004
 augmentation part       16.0408132 magnetization       0.1557291

 Broyden mixing:
  rms(total) = 0.59375E-02    rms(broyden)= 0.59353E-02
  rms(prec ) = 0.61867E-02
  weight for this iteration     100.00

 eigenvalues of (default mixing * dielectric matrix)
  average eigenvalue GAMMA=   0.7976
  2.4551  0.7941  0.7941  0.4654  0.4654  0.5018  0.5018  0.4033

 Free energy of the ion-electron system (eV)
  ---------------------------------------------------
  alpha Z        PSCENC =        92.14382556
  Ewald energy   TEWEN  =    110978.71748852
  -Hartree energ DENC   =   -124515.51146082
  -exchange      EXHF   =         0.00000000
  -V(xc)+E(xc)   XCENC  =      1585.81283593
  PAW double counting   =     40440.75375329   -40607.50033070
  entropy T*S    EENTRO =        -0.04143790
  eigenvalues    EBANDS =     -5095.85741426
  atomic energy  EATOM  =     16689.68470767
  Solvation  Ediel_sol  =      -340.16065580
  ---------------------------------------------------
  free energy    TOTEN  =      -771.95868850 eV

  energy without entropy =     -771.91725059  energy(sigma->0) =     -771.93796954


--------------------------------------------------------------------------------------------------------




--------------------------------------- Iteration      1(  10)  ---------------------------------------


    POTLOK:  cpu time   19.5631: real time   19.5616
    SETDIJ:  cpu time    0.8914: real time    0.6954
    EDDIAG:  cpu time   52.4497: real time   38.6881
  RMM-DIIS:  cpu time  289.1252: real time  224.6588
    ORTHCH:  cpu time    2.5920: real time    1.3017
       DOS:  cpu time    0.0021: real time    0.0010
    CHARGE:  cpu time   31.5089: real time   30.4818
    MIXING:  cpu time    0.0570: real time    0.0286
    --------------------------------------------
      LOOP:  cpu time  396.1892: real time  315.4169

 eigenvalue-minimisations  :  5456
 total energy-change (2. order) : 0.4338643E-04  (-0.4672015E-05)
 number of electron     345.8999969 magnetization       0.8552566
 augmentation part       16.0407850 magnetization       0.1496228

 Broyden mixing:
  rms(total) = 0.58196E-02    rms(broyden)= 0.58194E-02
  rms(prec ) = 0.60584E-02
  weight for this iteration     100.00

 eigenvalues of (default mixing * dielectric matrix)
  average eigenvalue GAMMA=   0.9748
  2.4875  1.5730  1.2075  0.4601  0.4601  0.7844  0.7013  0.5498  0.5498

 Free energy of the ion-electron system (eV)
  ---------------------------------------------------
  alpha Z        PSCENC =        92.14382556
  Ewald energy   TEWEN  =    110978.71748852
  -Hartree energ DENC   =   -124515.51927729
  -exchange      EXHF   =         0.00000000
  -V(xc)+E(xc)   XCENC  =      1585.81326599
  PAW double counting   =     40440.90211687   -40607.64874757
  entropy T*S    EENTRO =        -0.04140873
  eigenvalues    EBANDS =     -5095.85578431
  atomic energy  EATOM  =     16689.68470767
  Solvation  Ediel_sol  =      -340.15483183
  ---------------------------------------------------
  free energy    TOTEN  =      -771.95864511 eV

  energy without entropy =     -771.91723638  energy(sigma->0) =     -771.93794075


--------------------------------------------------------------------------------------------------------




--------------------------------------- Iteration      1(  11)  ---------------------------------------


    POTLOK:  cpu time   19.3768: real time   19.3730
    SETDIJ:  cpu time    0.8905: real time    0.6946
    EDDIAG:  cpu time   52.4568: real time   38.7274
  RMM-DIIS:  cpu time  286.8042: real time  223.0471
    ORTHCH:  cpu time    2.6004: real time    1.3059
       DOS:  cpu time    0.0019: real time    0.0010
    --------------------------------------------
      LOOP:  cpu time  362.1304: real time  283.1490

 eigenvalue-minimisations  :  5408
 total energy-change (2. order) :-0.3964022E-05  (-0.4321065E-05)
 number of electron     345.8999969 magnetization       0.8552566
 augmentation part       16.0407850 magnetization       0.1496228

 Free energy of the ion-electron system (eV)
  ---------------------------------------------------
  alpha Z        PSCENC =        92.14382556
  Ewald energy   TEWEN  =    110978.71748852
  -Hartree energ DENC   =   -124515.48739158
  -exchange      EXHF   =         0.00000000
  -V(xc)+E(xc)   XCENC  =      1585.81289908
  PAW double counting   =     40440.89747731   -40607.64411454
  entropy T*S    EENTRO =        -0.04131284
  eigenvalues    EBANDS =     -5095.87415672
  atomic energy  EATOM  =     16689.68470767
  Solvation  Ediel_sol  =      -340.16807155
  ---------------------------------------------------
  free energy    TOTEN  =      -771.95864907 eV

  energy without entropy =     -771.91733624  energy(sigma->0) =     -771.93799266


--------------------------------------------------------------------------------------------------------




 average (electrostatic) potential at core
  the test charge radii are     0.7672  0.7089  0.6991  0.7167  0.7215
  (the norm of the test charge is              1.0000)
       1 -38.9881       2 -38.9911       3 -38.9884       4 -38.9854       5 -38.9850
       6 -38.9858       7 -38.9888       8 -38.9954       9 -38.9972      10 -38.9891
      11 -38.9854      12 -38.9856      13 -38.9869      14 -38.9916      15 -38.9964
      16 -38.9930      17 -38.9867      18 -38.9853      19 -38.9851      20 -38.9867
      21 -38.9890      22 -38.9889      23 -38.9863      24 -38.9850      25 -38.9848
      26 -38.9850      27 -38.9855      28 -38.9856      29 -38.9853      30 -38.9850
      31 -38.9859      32 -38.9859      33 -38.9852      34 -38.9849      35 -38.9850
      36 -38.9853      37 -76.5818      38 -76.5816      39 -76.5799      40 -76.5793
      41 -76.5796      42 -76.5800      43 -76.5847      44 -76.5921      45 -76.5871
      46 -76.5799      47 -76.5796      48 -76.5806      49 -76.5831      50 -76.5915
      51 -76.5961      52 -76.5836      53 -76.5799      54 -76.5802      55 -76.5802
      56 -76.5830      57 -76.5864      58 -76.5833      59 -76.5795      60 -76.5794
      61 -76.5793      62 -76.5798      63 -76.5804      64 -76.5798      65 -76.5797
      66 -76.5794      67 -76.5795      68 -76.5797      69 -76.5794      70 -76.5794
      71 -76.5795      72 -76.5796      73 -68.0211      74 -66.8208      75 -65.5071
      76 -92.3207      77 -92.2691      78 -92.3209      79 -92.5458      80 -92.5245
      81 -85.9259      82 -85.9138
 
 
 
 E-fermi :  -6.6533     XC(G=0):  -1.3788     alpha+bet : -1.1421


 spin component 1

 k-point     1 :       0.0000    0.0000    0.0000
  band No.  band energies     occupation 
      1     -36.1675      1.00000
      2     -35.4466      1.00000
      3     -34.0004      1.00000
      4     -33.6924      1.00000
      5     -33.6822      1.00000
      6     -30.2825      1.00000
      7     -28.7198      1.00000
      8     -25.2135      1.00000
      9     -24.6742      1.00000
     10     -24.6702      1.00000
     11     -24.6699      1.00000
     12     -24.6679      1.00000
     13     -24.6677      1.00000
     14     -24.6672      1.00000
     15     -23.6602      1.00000
     16     -23.6593      1.00000
     17     -23.6591      1.00000
     18     -23.6582      1.00000
     19     -23.6581      1.00000
     20     -23.6577      1.00000
     21     -23.2213      1.00000
     22     -23.2209      1.00000
     23     -23.2207      1.00000
     24     -23.2201      1.00000
     25     -23.2200      1.00000
     26     -23.2197      1.00000
     27     -22.1698      1.00000
     28     -22.1687      1.00000
     29     -22.1671      1.00000
     30     -22.1663      1.00000
     31     -22.1660      1.00000
     32     -22.1657      1.00000
     33     -22.1643      1.00000
     34     -22.1642      1.00000
     35     -22.1641      1.00000
     36     -22.1636      1.00000
     37     -22.1635      1.00000
     38     -22.1633      1.00000
     39     -22.0791      1.00000
     40     -22.0790      1.00000
     41     -22.0787      1.00000
     42     -21.5035      1.00000
     43     -21.5034      1.00000
     44     -21.4096      1.00000
     45     -18.5451      1.00000
     46     -16.8586      1.00000
     47     -16.6808      1.00000
     48     -16.5305      1.00000
     49     -15.7646      1.00000
     50     -15.7643      1.00000
     51     -15.7640      1.00000
     52     -15.7602      1.00000
     53     -15.6698      1.00000
     54     -14.9165      1.00000
     55     -14.9159      1.00000
     56     -14.9154      1.00000
     57     -14.9143      1.00000
     58     -14.9132      1.00000
     59     -14.9128      1.00000
     60     -14.9127      1.00000
     61     -14.9127      1.00000
     62     -14.9119      1.00000
     63     -14.9117      1.00000
     64     -14.9115      1.00000
     65     -14.9115      1.00000
     66     -14.6546      1.00000
     67     -14.6545      1.00000
     68     -14.1773      1.00000
     69     -14.0445      1.00000
     70     -14.0444      1.00000
     71     -13.7092      1.00000
     72     -13.7090      1.00000
     73     -13.7088      1.00000
     74     -13.7085      1.00000
     75     -13.7085      1.00000
     76     -13.7083      1.00000
     77     -13.1245      1.00000
     78     -12.9880      1.00000
     79     -12.7666      1.00000
     80     -12.7554      1.00000
     81     -12.5597      1.00000
     82     -12.4380      1.00000
     83     -12.3079      1.00000
     84     -12.3077      1.00000
     85     -12.3076      1.00000
     86     -12.3075      1.00000
     87     -12.3073      1.00000
     88     -12.3073      1.00000
     89     -12.1695      1.00000
     90     -12.0534      1.00000
     91     -12.0533      1.00000
     92     -12.0528      1.00000
     93     -12.0524      1.00000
     94     -12.0512      1.00000
     95     -12.0508      1.00000
     96     -12.0499      1.00000
     97     -12.0499      1.00000
     98     -12.0493      1.00000
     99     -12.0491      1.00000
    100     -12.0491      1.00000
    101     -12.0489      1.00000
    102     -12.0080      1.00000
    103     -11.8245      1.00000
    104     -11.6698      1.00000
    105     -11.5061      1.00000
    106     -11.1597      1.00000
    107     -11.1025      1.00000
    108     -11.0947      1.00000
    109     -11.0945      1.00000
    110     -11.0921      1.00000
    111     -11.0918      1.00000
    112     -11.0914      1.00000
    113     -10.8273      1.00000
    114     -10.8271      1.00000
    115     -10.8270      1.00000
    116     -10.7720      1.00000
    117     -10.6016      1.00000
    118     -10.6014      1.00000
    119     -10.6013      1.00000
    120     -10.6012      1.00000
    121     -10.6011      1.00000
    122     -10.6008      1.00000
    123     -10.2548      1.00000
    124     -10.2545      1.00000
    125     -10.2544      1.00000
    126     -10.2542      1.00000
    127     -10.2538      1.00000
    128     -10.2537      1.00000
    129     -10.0031      1.00000
    130     -10.0027      1.00000
    131     -10.0020      1.00000
    132     -10.0012      1.00000
    133     -10.0007      1.00000
    134     -10.0001      1.00000
    135      -9.7204      1.00000
    136      -9.7200      1.00000
    137      -9.7188      1.00000
    138      -9.7172      1.00000
    139      -9.7167      1.00000
    140      -9.7162      1.00000
    141      -9.1188      1.00000
    142      -9.1072      1.00000
    143      -9.1064      1.00000
    144      -9.1055      1.00000
    145      -9.1048      1.00000
    146      -9.1044      1.00000
    147      -9.0347      1.00000
    148      -8.9621      1.00000
    149      -8.8545      1.00000
    150      -8.8540      1.00000
    151      -8.8538      1.00000
    152      -8.8524      1.00000
    153      -8.8520      1.00000
    154      -8.8514      1.00000
    155      -7.9397      1.00000
    156      -7.9389      1.00000
    157      -7.7984      1.00000
    158      -7.5811      1.00000
    159      -7.5799      1.00000
    160      -7.5768      1.00000
    161      -7.5765      1.00000
    162      -7.5761      1.00000
    163      -7.5748      1.00000
    164      -7.5745      1.00000
    165      -7.5734      1.00000
    166      -7.5734      1.00000
    167      -7.5731      1.00000
    168      -7.5729      1.00000
    169      -7.5728      1.00000
    170      -7.4230      1.00000
    171      -7.4228      1.00000
    172      -7.4224      1.00000
    173      -6.5288      0.00021
    174      -6.5286      0.00021
    175      -1.2864      0.00000
    176      -1.1369      0.00000
    177      -1.1357      0.00000
    178      -1.0585      0.00000
    179      -1.0579      0.00000
    180      -1.0537      0.00000
    181      -0.9314      0.00000
    182      -0.3695      0.00000
    183      -0.3668      0.00000
    184      -0.3608      0.00000
    185      -0.3597      0.00000
    186      -0.3583      0.00000
    187      -0.3568      0.00000
    188      -0.3558      0.00000
    189      -0.3551      0.00000
    190      -0.3547      0.00000
    191      -0.3546      0.00000
    192      -0.3539      0.00000
    193      -0.3539      0.00000
    194      -0.2780      0.00000
    195      -0.1972      0.00000
    196      -0.1267      0.00000
    197      -0.1041      0.00000
    198      -0.0322      0.00000
    199      -0.0268      0.00000
    200      -0.0230      0.00000
    201      -0.0158      0.00000
    202       0.0721      0.00000
    203       0.1434      0.00000
    204       0.3061      0.00000
    205       0.5006      0.00000
    206       0.5340      0.00000
    207       0.5956      0.00000
    208       0.6262      0.00000
    209       0.6366      0.00000
    210       0.6392      0.00000
    211       0.6813      0.00000
    212       0.6825      0.00000
    213       0.6853      0.00000
    214       0.6858      0.00000
    215       0.6865      0.00000
    216       0.6897      0.00000
    217       0.7608      0.00000
    218       0.7870      0.00000
    219       0.8311      0.00000
    220       0.9202      0.00000
    221       0.9404      0.00000
    222       0.9448      0.00000
    223       0.9455      0.00000
    224       0.9537      0.00000
    225       0.9955      0.00000
    226       1.0203      0.00000
    227       1.0411      0.00000
    228       1.0462      0.00000
    229       1.0556      0.00000
    230       1.0589      0.00000
    231       1.0922      0.00000
    232       1.2646      0.00000
    233       1.2708      0.00000
    234       1.2737      0.00000
    235       1.2754      0.00000
    236       1.2771      0.00000
    237       1.2806      0.00000
    238       1.4969      0.00000
    239       1.5242      0.00000
[...]
   -.530E+01 0.282E+01 0.715E+02   0.524E+01 -.290E+01 -.713E+02   -.457E-03 -.246E-02 0.404E-04   0.157E-02 0.539E-03 -.835E-02
   0.255E+01 0.490E+01 0.701E+02   -.252E+01 -.494E+01 -.698E+02   -.147E-02 -.206E-02 -.132E-01   -.570E-03 -.894E-04 -.789E-02
   -.667E+01 0.187E+02 0.793E+02   0.672E+01 -.187E+02 -.791E+02   -.519E-02 -.588E-03 -.791E-02   0.373E-03 -.229E-02 -.882E-02
   -.246E+02 0.227E+02 0.915E+02   0.246E+02 -.226E+02 -.912E+02   -.102E-01 0.224E-02 0.290E-02   0.318E-02 -.387E-02 -.107E-01
   -.323E+02 0.997E+01 0.915E+02   0.322E+02 -.984E+01 -.912E+02   -.768E-02 0.268E-02 0.105E-01   0.536E-02 -.254E-02 -.116E-01
   -.202E+02 -.323E+01 0.795E+02   0.200E+02 0.324E+01 -.792E+02   -.341E-02 -.108E-02 0.548E-02   0.413E-02 0.544E-04 -.101E-01
   -.315E+01 -.435E+01 0.701E+02   0.310E+01 0.430E+01 -.699E+02   0.158E-03 -.291E-02 -.416E-02   0.106E-02 0.914E-03 -.834E-02
   0.188E+02 -.103E+02 0.776E+02   -.187E+02 0.103E+02 -.773E+02   -.507E-03 -.241E-02 -.491E-02   -.348E-02 0.158E-02 -.947E-02
   0.972E+01 -.915E+01 0.761E+02   -.961E+01 0.907E+01 -.759E+02   -.250E-02 -.574E-02 0.462E-02   -.249E-02 0.213E-02 -.937E-02
   -.478E+01 0.243E+00 0.731E+02   0.481E+01 -.299E+00 -.729E+02   -.256E-02 -.193E-02 -.742E-02   0.712E-04 0.728E-03 -.864E-02
   -.112E+02 0.616E+01 0.723E+02   0.112E+02 -.614E+01 -.720E+02   0.622E-03 0.191E-03 -.659E-02   0.171E-02 -.827E-03 -.830E-02
   -.319E+01 0.388E+01 0.727E+02   0.311E+01 -.384E+01 -.724E+02   0.183E-02 0.184E-02 -.576E-02   0.100E-02 -.928E-03 -.836E-02
   0.123E+02 -.325E+01 0.751E+02   -.123E+02 0.328E+01 -.749E+02   0.206E-02 0.121E-02 -.112E-01   -.163E-02 0.920E-04 -.881E-02
   0.353E+01 0.258E+02 -.414E+03   -.423E+01 -.244E+02 0.407E+03   0.875E+00 -.101E+01 0.826E+01   0.151E-02 -.178E-01 0.545E-01
   -.107E+02 -.425E+02 -.322E+03   0.163E+02 0.513E+02 0.330E+03   -.524E+01 -.808E+01 -.669E+01   -.233E-01 -.508E-01 0.518E-02
   -.432E+02 -.113E+03 -.309E+03   0.429E+02 0.113E+03 0.310E+03   0.593E+00 0.120E+01 -.126E+00   0.174E-01 0.358E-01 -.172E-01
   -.536E+03 0.881E+02 -.906E+03   0.595E+03 -.913E+02 0.923E+03   -.576E+02 0.360E+01 -.158E+02   0.412E-01 -.257E-01 0.543E-01
   0.246E+03 0.516E+03 -.882E+03   -.272E+03 -.566E+03 0.900E+03   0.260E+02 0.499E+02 -.158E+02   -.186E-01 -.489E-01 0.403E-01
   0.244E+03 -.365E+03 -.103E+04   -.270E+03 0.410E+03 0.107E+04   0.256E+02 -.442E+02 -.306E+02   -.225E-01 0.113E-01 0.676E-01
   -.214E+03 0.420E+03 -.306E+03   0.245E+03 -.461E+03 0.278E+03   -.289E+02 0.423E+02 0.315E+02   0.335E-01 -.128E+00 -.671E-01
   0.556E+03 0.310E+02 -.434E+03   -.614E+03 -.279E+02 0.420E+03   0.580E+02 -.153E+01 0.161E+02   -.133E+00 -.460E-01 -.367E-01
   -.452E+03 -.128E+03 -.438E+03   0.511E+03 0.119E+03 0.433E+03   -.569E+02 0.967E+01 0.665E+01   0.731E-01 0.203E-01 -.293E-01
   0.204E+03 -.437E+03 -.477E+03   -.249E+03 0.478E+03 0.478E+03   0.433E+02 -.390E+02 0.135E+01   -.283E-01 0.699E-01 -.238E-01
 -----------------------------------------------------------------------------------------------
   -.569E+01 -.127E+02 0.588E+01   0.114E-12 0.000E+00 0.165E-11   0.572E+01 0.128E+02 -.519E+01   -.588E-01 -.180E+00 -.665E+00
 
 
 POSITION                                       TOTAL-FORCE (eV/Angst)
 -----------------------------------------------------------------------------------
      1.25595     -0.72485     17.55803         0.001603     -0.000193      0.000287
      2.51205      1.45080     17.55675        -0.001252      0.003168      0.000219
      3.76820      3.62633     17.55589         0.001863      0.002481     -0.000275
      5.02446      5.80189     17.55612         0.000604      0.001492     -0.000139
      6.28054      7.97756     17.55806         0.000070      0.000149     -0.000035
      7.53655     10.15310     17.55897         0.001994      0.004948      0.001520
      2.51215     -2.90071     17.55888         0.001367      0.003395      0.000090
      3.76799     -0.72504     17.55665         0.003114     -0.001065      0.001515
      5.02420      1.45077     17.55568         0.006948      0.005586     -0.001550
      6.28054      3.62630     17.55578         0.001807      0.004034     -0.000986
      7.53662      5.80190     17.55644        -0.001119      0.000392     -0.000183
      8.79266      7.97750     17.55866         0.000472      0.001367     -0.000524
      3.76828     -5.07634     17.55908         0.001402      0.003585      0.001938
      5.02436     -2.90102     17.55920         0.003443      0.014364      0.002755
      6.28080     -0.72522     17.55710        -0.002269      0.000696      0.002350
      7.53686      1.45074     17.55699         0.002280      0.003864      0.001717
      8.79277      3.62631     17.55609        -0.000162      0.001367     -0.000285
     10.04878      5.80192     17.55754        -0.000134      0.000694     -0.000219
      5.02444     -7.25182     17.55854         0.000054      0.001440      0.000348
      6.28049     -5.07634     17.55903         0.002011      0.004587      0.001888
      7.53672     -2.90073     17.55802        -0.000863      0.003079      0.001095
      8.79288     -0.72487     17.55661        -0.001918     -0.000715      0.001139
     10.04886      1.45077     17.55624         0.000021      0.001894     -0.000240
     11.30487      3.62641     17.55710         0.000052      0.000311     -0.000313
      6.28052     -9.42733     17.55815         0.000903      0.001497      0.000239
      7.53665     -7.25178     17.55825         0.001208      0.003060      0.000725
      8.79283     -5.07612     17.55819        -0.001766     -0.000679      0.000255
     10.04889     -2.90044     17.55751        -0.001238     -0.000984      0.000146
     11.30492     -0.72480     17.55723        -0.000682     -0.000643     -0.000082
     12.56098      1.45086     17.55768         0.000040     -0.000547     -0.000478
      7.53653    -11.60291     17.55797         0.001481      0.000887      0.000124
      8.79268     -9.42725     17.55707         0.000996     -0.001755      0.000254
     10.04889     -7.25171     17.55700         0.000344     -0.000277     -0.000329
     11.30501     -5.07610     17.55784        -0.001650     -0.000300     -0.000590
     12.56100     -2.90052     17.55841        -0.000046      0.001871      0.000707
     13.81701     -0.72488     17.55852         0.001712      0.001616      0.000384
      1.25613      0.72558     17.55756         0.000461     -0.001512      0.000032
      2.51225      2.90112     17.55619        -0.000630     -0.000460      0.001873
      3.76840      5.07669     17.55582        -0.001499      0.000914      0.001718
      5.02449      7.25236     17.55730        -0.000303     -0.000568     -0.000356
      6.28051      9.42800     17.55897        -0.000016     -0.001137     -0.002580
      7.53657     11.60363     17.55895        -0.000715     -0.001060     -0.002424
      2.51214     -1.45015     17.55776         0.000357     -0.000380      0.001212
      3.76845      0.72545     17.55682        -0.006054     -0.001813      0.001157
      5.02445      2.90099     17.55559        -0.002736     -0.000366      0.003192
      6.28052      5.07665     17.55537         0.000704      0.000544      0.002933
      7.53661      7.25232     17.55779         0.000203      0.000319     -0.000727
      8.79269      9.42794     17.55927        -0.000576     -0.000711     -0.002077
      3.76837     -3.62574     17.55966        -0.004299     -0.005267     -0.002550
      5.02440     -1.44993     17.55916        -0.000477     -0.010411     -0.001391
      6.28048      0.72536     17.55934        -0.004626      0.002048     -0.001626
      7.53655      2.90103     17.55617         0.001836     -0.001150      0.002445
      8.79267      5.07671     17.55631         0.001477     -0.000461      0.000837
     10.04876      7.25234     17.55866         0.000562     -0.000364     -0.001741
      5.02440     -5.80141     17.55911         0.000410      0.000185     -0.001644
      6.28050     -3.62571     17.55938         0.000935     -0.005438     -0.001883
      7.53662     -1.45014     17.55704         0.003418     -0.001514      0.002749
      8.79267      0.72552     17.55606         0.001147     -0.000674      0.003762
     10.04878      2.90115     17.55596         0.001035     -0.000073      0.001942
     11.30487      5.07682     17.55770         0.000490     -0.002062     -0.000281
      6.28057     -7.97689     17.55867        -0.000892     -0.002836     -0.002228
      7.53665     -5.80131     17.55869         0.000849     -0.001249     -0.001676
      8.79278     -3.62571     17.55779         0.000558      0.000198      0.000041
     10.04882     -1.45005     17.55672         0.001737      0.000678      0.000870
     11.30488      0.72562     17.55680         0.001460     -0.001361      0.000154
     12.56098      2.90127     17.55774         0.000366     -0.001616     -0.000787
      7.53664    -10.15249     17.55784        -0.000688     -0.001085     -0.000996
      8.79279     -7.97688     17.55725        -0.000882     -0.001387      0.000133
     10.04890     -5.80130     17.55786         0.000507     -0.000642     -0.001495
     11.30493     -3.62568     17.55809         0.000667     -0.000665     -0.001091
     12.56096     -1.45006     17.55819         0.000530     -0.000491     -0.000902
     13.81706      0.72561     17.55836        -0.000043     -0.001246     -0.001675
      5.17947     -0.77838     23.62511         0.011809      0.008203     -0.031052
      5.02689     -0.56138     22.10381        -0.002759      0.024928      0.034666
      5.76674      1.03605     21.67055        -0.000645     -0.054129      0.010193
      6.46924     -0.85406     23.95977        -0.001167      0.020360     -0.020801
      4.57664     -1.92797     23.96938         0.007083      0.012975     -0.016370
      4.60258      0.22451     24.29332         0.003409      0.017539     -0.010990
      5.66178     -1.50945     21.42463         0.010502     -0.012102     -0.007506
      3.74315     -0.54209     21.76662        -0.004573      0.000861     -0.002086
      6.95214      0.83695     21.53300        -0.035025     -0.024763      0.014854
      4.87217      1.84724     21.64302        -0.006597     -0.015426      0.020703
 -----------------------------------------------------------------------------------
    total drift:                               -0.034013     -0.072800      0.024309


--------------------------------------------------------------------------------------------------------



  FREE ENERGIE OF THE ION-ELECTRON SYSTEM (eV)
  ---------------------------------------------------
  free  energy   TOTEN  =      -771.95864907 eV

  energy  without entropy=     -771.91733624  energy(sigma->0) =     -771.93799266
 


--------------------------------------------------------------------------------------------------------


    POTLOK:  cpu time   20.0967: real time   19.9544


--------------------------------------------------------------------------------------------------------


 stress matrix after NEB project (eV)
    -28.67103      0.49820      0.39891
      0.49817    -27.87594      0.37184
      0.39746      0.37198     -0.65893
  FORCES: max atom, RMS     0.055084    0.012062
  FORCE total and by dimension    0.109226    0.054129
  Stress total and by dimension   40.007755   28.671034
     LOOP+:  cpu time 5428.3261: real time 4281.6730
    4ORBIT:  cpu time    0.0000: real time    0.0000
 


 total charge     
 
# of ion       s       p       d       tot
------------------------------------------
    1        0.744   1.392   0.000   2.135
    2        0.744   1.392   0.000   2.135
    3        0.744   1.392   0.000   2.135
    4        0.744   1.392   0.000   2.135
    5        0.744   1.392   0.000   2.135
    6        0.744   1.392   0.000   2.135
    7        0.744   1.392   0.000   2.135
    8        0.744   1.392   0.000   2.136
    9        0.744   1.392   0.000   2.136
   10        0.744   1.392   0.000   2.135
   11        0.744   1.392   0.000   2.135
   12        0.744   1.392   0.000   2.135
   13        0.744   1.392   0.000   2.135
   14        0.744   1.392   0.000   2.135
   15        0.744   1.392   0.000   2.136
   16        0.744   1.392   0.000   2.135
   17        0.744   1.392   0.000   2.135
   18        0.744   1.392   0.000   2.135
   19        0.744   1.392   0.000   2.135
   20        0.744   1.392   0.000   2.135
   21        0.744   1.392   0.000   2.135
   22        0.744   1.392   0.000   2.135
   23        0.744   1.392   0.000   2.135
   24        0.744   1.392   0.000   2.135
   25        0.744   1.392   0.000   2.135
   26        0.744   1.392   0.000   2.135
   27        0.744   1.392   0.000   2.135
   28        0.744   1.392   0.000   2.135
   29        0.744   1.392   0.000   2.135
   30        0.744   1.392   0.000   2.135
   31        0.744   1.392   0.000   2.135
   32        0.744   1.392   0.000   2.135
   33        0.744   1.392   0.000   2.135
   34        0.744   1.392   0.000   2.135
   35        0.744   1.392   0.000   2.135
   36        0.744   1.392   0.000   2.135
   37        1.240   2.816   0.000   4.056
   38        1.240   2.816   0.000   4.056
   39        1.240   2.816   0.000   4.056
   40        1.240   2.816   0.000   4.056
   41        1.240   2.816   0.000   4.056
   42        1.240   2.816   0.000   4.056
   43        1.240   2.816   0.000   4.056
   44        1.240   2.816   0.000   4.056
   45        1.240   2.816   0.000   4.056
   46        1.240   2.816   0.000   4.056
   47        1.240   2.816   0.000   4.056
   48        1.240   2.816   0.000   4.056
   49        1.240   2.816   0.000   4.056
   50        1.239   2.816   0.000   4.055
   51        1.240   2.816   0.000   4.055
   52        1.240   2.816   0.000   4.056
   53        1.240   2.816   0.000   4.056
   54        1.240   2.816   0.000   4.056
   55        1.240   2.816   0.000   4.056
   56        1.240   2.816   0.000   4.056
   57        1.240   2.816   0.000   4.056
   58        1.240   2.816   0.000   4.056
   59        1.240   2.816   0.000   4.056
   60        1.240   2.816   0.000   4.056
   61        1.240   2.816   0.000   4.056
   62        1.240   2.816   0.000   4.056
   63        1.240   2.816   0.000   4.056
   64        1.240   2.816   0.000   4.056
   65        1.240   2.816   0.000   4.056
   66        1.240   2.816   0.000   4.056
   67        1.240   2.816   0.000   4.056
   68        1.240   2.816   0.000   4.056
   69        1.240   2.816   0.000   4.056
   70        1.240   2.816   0.000   4.056
   71        1.240   2.816   0.000   4.056
   72        1.240   2.816   0.000   4.056
   73        0.814   1.563   0.000   2.377
   74        0.837   1.551   0.000   2.388
   75        0.900   1.727   0.000   2.627
   76        1.759   4.414   0.000   6.172
   77        1.759   4.407   0.000   6.166
   78        1.759   4.413   0.000   6.172
   79        1.759   4.402   0.000   6.160
   80        1.759   4.403   0.000   6.161
   81        1.605   3.551   0.000   5.155
   82        1.605   3.554   0.000   5.158
--------------------------------------------------
tot         85.944 185.469   0.000 271.412
 


 magnetization (x)
 
# of ion       s       p       d       tot
------------------------------------------
    1       -0.000  -0.000   0.000  -0.000
    2       -0.000  -0.000   0.000  -0.000
    3       -0.000  -0.000   0.000  -0.000
    4       -0.000  -0.000   0.000  -0.000
    5       -0.000  -0.000   0.000  -0.000
    6       -0.000  -0.000   0.000  -0.000
    7       -0.000  -0.000   0.000  -0.000
    8       -0.000  -0.000   0.000  -0.000
    9       -0.000  -0.000   0.000  -0.000
   10       -0.000  -0.000   0.000  -0.000
   11       -0.000  -0.000   0.000  -0.000
   12       -0.000  -0.000   0.000  -0.000
   13       -0.000  -0.000   0.000  -0.000
   14       -0.000  -0.000   0.000  -0.000
   15       -0.000  -0.000   0.000  -0.000
   16       -0.000  -0.000   0.000  -0.000
   17       -0.000  -0.000   0.000  -0.000
   18       -0.000  -0.000   0.000  -0.000
   19       -0.000  -0.000   0.000  -0.000
   20       -0.000  -0.000   0.000  -0.000
   21       -0.000  -0.000   0.000  -0.000
   22       -0.000  -0.000   0.000  -0.000
   23       -0.000  -0.000   0.000  -0.000
   24       -0.000  -0.000   0.000  -0.000
   25       -0.000  -0.000   0.000  -0.000
   26       -0.000  -0.000   0.000  -0.000
   27       -0.000  -0.000   0.000  -0.000
   28       -0.000  -0.000   0.000  -0.000
   29       -0.000  -0.000   0.000  -0.000
   30       -0.000  -0.000   0.000  -0.000
   31       -0.000  -0.000   0.000  -0.000
   32       -0.000  -0.000   0.000  -0.000
   33       -0.000  -0.000   0.000  -0.000
   34       -0.000  -0.000   0.000  -0.000
   35       -0.000  -0.000   0.000  -0.000
   36       -0.000  -0.000   0.000  -0.000
   37        0.000   0.000   0.000   0.000
   38        0.000   0.000   0.000   0.000
   39        0.000   0.000   0.000   0.000
   40        0.000   0.000   0.000   0.000
   41        0.000   0.000   0.000   0.000
   42        0.000   0.000   0.000   0.000
   43        0.000   0.000   0.000   0.000
   44        0.000   0.000   0.000   0.000
   45        0.000   0.001   0.000   0.001
   46        0.000   0.000   0.000   0.000
   47        0.000   0.000   0.000   0.000
   48        0.000   0.000   0.000   0.000
   49        0.000   0.000   0.000   0.000
   50        0.000   0.000   0.000   0.000
   51        0.000   0.000   0.000   0.000
   52        0.000   0.000   0.000   0.000
   53        0.000   0.000   0.000   0.000
   54        0.000   0.000   0.000   0.000
   55        0.000   0.000   0.000   0.000
   56        0.000   0.000   0.000   0.000
   57        0.000   0.000   0.000   0.000
   58        0.000   0.000   0.000   0.000
   59        0.000   0.000   0.000   0.000
   60        0.000   0.000   0.000   0.000
   61        0.000   0.000   0.000   0.000
   62        0.000   0.000   0.000   0.000
   63        0.000   0.000   0.000   0.000
   64        0.000   0.000   0.000   0.000
   65        0.000   0.000   0.000   0.000
   66        0.000   0.000   0.000   0.000
   67        0.000   0.000   0.000   0.000
   68        0.000   0.000   0.000   0.000
   69        0.000   0.000   0.000   0.000
   70        0.000   0.000   0.000   0.000
   71        0.000   0.000   0.000   0.000
   72        0.000   0.000   0.000   0.000
   73        0.005   0.013   0.000   0.018
   74        0.032   0.173   0.000   0.205
   75       -0.014  -0.024   0.000  -0.038
   76       -0.000   0.000   0.000   0.000
   77        0.000   0.017   0.000   0.018
   78       -0.000  -0.001   0.000  -0.001
   79        0.001   0.045   0.000   0.046
   80        0.001   0.043   0.000   0.044
   81        0.003   0.179   0.000   0.182
   82        0.002   0.171   0.000   0.174
--------------------------------------------------
tot          0.030   0.628   0.000   0.659
 

 total amount of memory used by VASP MPI-rank0   938853. kBytes
=======================================================================

   base      :      30000. kBytes
   nonlr-proj:      37384. kBytes
   fftplans  :      37660. kBytes
   grid      :     638342. kBytes
   one-center:        503. kBytes
   wavefun   :     194964. kBytes
 
  
  
 General timing and accounting informations for this job:
 ========================================================
  
                  Total CPU time used (sec):     6859.716
                            User time (sec):     6188.553
                          System time (sec):      671.163
                         Elapsed time (sec):     5102.175
  
                   Maximum memory used (kb):     2189104.
                   Average memory used (kb):           0.
  
                          Minor page faults:      8920826
                          Major page faults:           15
                 Voluntary context switches:        57686
