 vasp.5.4.4.18Apr17-6-g9f103f2a35 (build May 01 2020 14:57:12) complex          
  
 executed on             LinuxIFC date 2021.01.26  21:37:50
 running on   24 total cores
 distrk:  each k-point on   24 cores,    1 groups
 distr:  one band on NCORES_PER_BAND=   6 cores,    4 groups


--------------------------------------------------------------------------------------------------------


 INCAR:
 POTCAR:    PAW_PBE B 06Sep2000                   
 POTCAR:    PAW_PBE N 08Apr2002                   
 POTCAR:    PAW_PBE O 08Apr2002                   
 POTCAR:    PAW_PBE B 06Sep2000                   
   VRHFIN =B: s2p1                                                              
   LEXCH  = PE                                                                  
   EATOM  =    71.1703 eV,    5.2309 Ry                                         
                                                                                
   TITEL  = PAW_PBE B 06Sep2000                                                 
   LULTRA =        F    use ultrasoft PP ?                                      
   IUNSCR =        1    unscreen: 0-lin 1-nonlin 2-no                           
   RPACOR =    1.200    partial core radius                                     
   POMASS =   10.811; ZVAL   =    3.000    mass and valenz                      
   RCORE  =    1.700    outmost cutoff radius                                   
   RWIGS  =    1.710; RWIGS  =    0.905    wigner-seitz radius (au A)           
   ENMAX  =  318.614; ENMIN  =  238.960 eV                                      
   ICORE  =        2    local potential                                         
   LCOR   =        T    correct aug charges                                     
   LPAW   =        T    paw PP                                                  
   EAUG   =  535.514                                                            
   DEXC   =    0.000                                                            
   RMAX   =    1.732    core radius for proj-oper                               
   RAUG   =    1.300    factor for augmentation sphere                          
   RDEP   =    1.757    radius for radial grids                                 
   RDEPT  =    1.436    core radius for aug-charge                              
                                                                                
   Atomic configuration                                                         
    4 entries                                                                   
     n  l   j            E        occ.                                          
     1  0  0.50      -180.5896   2.0000                                         
     2  0  0.50        -9.4431   2.0000                                         
     2  1  0.50        -3.6068   1.0000                                         
     3  2  1.50        -4.0817   0.0000                                         
   Description                                                                  
     l       E           TYP  RCUT    TYP  RCUT                                 
     0     -9.4430752     23  1.500                                             
     0      0.8675899     23  1.500                                             
     1     -3.6067955     23  1.700                                             
     1      6.1086146     23  1.700                                             
     2     -4.0817478      7  1.700                                             
  local pseudopotential read in
  partial core-charges read in
  partial kinetic energy density read in
  atomic valenz-charges read in
  non local Contribution for L=           0  read in
    real space projection operators read in
  non local Contribution for L=           0  read in
    real space projection operators read in
  non local Contribution for L=           1  read in
    real space projection operators read in
  non local Contribution for L=           1  read in
    real space projection operators read in
    PAW grid and wavefunctions read in
 
   number of l-projection  operators is LMAX  =           4
   number of lm-projection operators is LMMAX =           8
 
 POTCAR:    PAW_PBE N 08Apr2002                   
   VRHFIN =N: s2p3                                                              
   LEXCH  = PE                                                                  
   EATOM  =   264.5486 eV,   19.4438 Ry                                         
                                                                                
   TITEL  = PAW_PBE N 08Apr2002                                                 
   LULTRA =        F    use ultrasoft PP ?                                      
   IUNSCR =        1    unscreen: 0-lin 1-nonlin 2-no                           
   RPACOR =    1.200    partial core radius                                     
   POMASS =   14.001; ZVAL   =    5.000    mass and valenz                      
   RCORE  =    1.500    outmost cutoff radius                                   
   RWIGS  =    1.400; RWIGS  =    0.741    wigner-seitz radius (au A)           
   ENMAX  =  400.000; ENMIN  =  300.000 eV                                      
   ICORE  =        2    local potential                                         
   LCOR   =        T    correct aug charges                                     
   LPAW   =        T    paw PP                                                  
   EAUG   =  627.112                                                            
   DEXC   =    0.000                                                            
   RMAX   =    1.529    core radius for proj-oper                               
   RAUG   =    1.300    factor for augmentation sphere                          
   RDEP   =    1.514    radius for radial grids                                 
   RDEPT  =    1.338    core radius for aug-charge                              
                                                                                
   Atomic configuration                                                         
    4 entries                                                                   
     n  l   j            E        occ.                                          
     1  0  0.50      -384.7179   2.0000                                         
     2  0  0.50       -18.5828   2.0000                                         
     2  1  0.50        -7.0898   3.0000                                         
     3  2  1.50        -6.8029   0.0000                                         
   Description                                                                  
     l       E           TYP  RCUT    TYP  RCUT                                 
     0    -18.5828119     23  1.200                                             
     0    -13.5018863     23  1.200                                             
     1     -7.0897853     23  1.500                                             
     1      9.5240782     23  1.500                                             
     2     -6.8029130      7  1.500                                             
  local pseudopotential read in
  partial core-charges read in
  partial kinetic energy density read in
  atomic valenz-charges read in
  non local Contribution for L=           0  read in
    real space projection operators read in
  non local Contribution for L=           0  read in
    real space projection operators read in
  non local Contribution for L=           1  read in
    real space projection operators read in
  non local Contribution for L=           1  read in
    real space projection operators read in
    PAW grid and wavefunctions read in
 
   number of l-projection  operators is LMAX  =           4
   number of lm-projection operators is LMMAX =           8
 
 POTCAR:    PAW_PBE O 08Apr2002                   
   VRHFIN =O: s2p4                                                              
   LEXCH  = PE                                                                  
   EATOM  =   432.3788 eV,   31.7789 Ry                                         
                                                                                
   TITEL  = PAW_PBE O 08Apr2002                                                 
   LULTRA =        F    use ultrasoft PP ?                                      
   IUNSCR =        1    unscreen: 0-lin 1-nonlin 2-no                           
   RPACOR =    1.200    partial core radius                                     
   POMASS =   16.000; ZVAL   =    6.000    mass and valenz                      
   RCORE  =    1.520    outmost cutoff radius                                   
   RWIGS  =    1.550; RWIGS  =    0.820    wigner-seitz radius (au A)           
   ENMAX  =  400.000; ENMIN  =  300.000 eV                                      
   ICORE  =        2    local potential                                         
   LCOR   =        T    correct aug charges                                     
   LPAW   =        T    paw PP                                                  
   EAUG   =  605.392                                                            
   DEXC   =    0.000                                                            
   RMAX   =    1.553    core radius for proj-oper                               
   RAUG   =    1.300    factor for augmentation sphere                          
   RDEP   =    1.550    radius for radial grids                                 
   RDEPT  =    1.329    core radius for aug-charge                              
                                                                                
   Atomic configuration                                                         
    4 entries                                                                   
     n  l   j            E        occ.                                          
     1  0  0.50      -514.6923   2.0000                                         
     2  0  0.50       -23.9615   2.0000                                         
     2  1  0.50        -9.0305   4.0000                                         
     3  2  1.50        -9.5241   0.0000                                         
   Description                                                                  
     l       E           TYP  RCUT    TYP  RCUT                                 
     0    -23.9615318     23  1.200                                             
     0     -9.5240782     23  1.200                                             
     1     -9.0304911     23  1.520                                             
     1      8.1634956     23  1.520                                             
     2     -9.5240782      7  1.500                                             
  local pseudopotential read in
  partial core-charges read in
  partial kinetic energy density read in
  kinetic energy density of atom read in
  atomic valenz-charges read in
  non local Contribution for L=           0  read in
    real space projection operators read in
  non local Contribution for L=           0  read in
    real space projection operators read in
  non local Contribution for L=           1  read in
    real space projection operators read in
  non local Contribution for L=           1  read in
    real space projection operators read in
    PAW grid and wavefunctions read in
 
   number of l-projection  operators is LMAX  =           4
   number of lm-projection operators is LMMAX =           8
 
 Optimization of the real space projectors (new method)

 maximal supplied QI-value         = 22.11
 optimisation between [QCUT,QGAM] = [ 11.94, 23.88] = [ 39.92,159.67] Ry 
 Optimized for a Real-space Cutoff    1.18 Angstroem

   l    n(q)    QCUT    max X(q) W(low)/X(q) W(high)/X(q)  e(spline) 
   0      8    11.939    53.033    0.11E-03    0.34E-03    0.60E-07
   0      8    11.939    34.740    0.11E-03    0.34E-03    0.59E-07
   1      8    11.939    30.949    0.22E-03    0.20E-03    0.17E-06
   1      8    11.939    19.518    0.20E-03    0.18E-03    0.16E-06
 Optimization of the real space projectors (new method)

 maximal supplied QI-value         = 25.13
 optimisation between [QCUT,QGAM] = [ 11.81, 23.88] = [ 39.08,159.64] Ry 
 Optimized for a Real-space Cutoff    1.41 Angstroem

   l    n(q)    QCUT    max X(q) W(low)/X(q) W(high)/X(q)  e(spline) 
   0     10    11.813    79.467    0.48E-04    0.30E-04    0.67E-06
   0     10    11.813    66.151    0.47E-04    0.30E-04    0.67E-06
   1     10    11.813    20.169    0.11E-03    0.17E-03    0.11E-05
   1     10    11.813    14.454    0.11E-03    0.17E-03    0.11E-05
 Optimization of the real space projectors (new method)

 maximal supplied QI-value         = 24.76
 optimisation between [QCUT,QGAM] = [ 11.88, 24.01] = [ 39.54,161.47] Ry 
 Optimized for a Real-space Cutoff    1.18 Angstroem

   l    n(q)    QCUT    max X(q) W(low)/X(q) W(high)/X(q)  e(spline) 
   0      8    11.883    20.381    0.86E-04    0.11E-03    0.31E-06
   0      8    11.883    15.268    0.94E-04    0.12E-03    0.33E-06
   1      8    11.883     5.964    0.19E-03    0.18E-04    0.33E-06
   1      8    11.883     5.382    0.17E-03    0.20E-04    0.29E-06
  PAW_PBE B 06Sep2000                   :
 energy of atom  1       EATOM=  -71.1703
 kinetic energy error for atom=    0.0009 (will be added to EATOM!!)
  PAW_PBE N 08Apr2002                   :
 energy of atom  2       EATOM= -264.5486
 kinetic energy error for atom=    0.0116 (will be added to EATOM!!)
  PAW_PBE O 08Apr2002                   :
 energy of atom  3       EATOM= -432.3788
 kinetic energy error for atom=    0.0194 (will be added to EATOM!!)
 
 
 POSCAR: B N O                                   
  positions in direct lattice
  velocities in cartesian coordinates
 exchange correlation table for  LEXCH =        8
   RHO(1)=    0.500       N(1)  =     2000
   RHO(2)=  100.500       N(2)  =     4000
 


--------------------------------------------------------------------------------------------------------


 ion  position               nearest neighbor table
   1  0.167  0.083  0.500-  21 1.45  17 1.45  20 1.45
   2  0.167  0.335  0.500-  18 1.44  17 1.45  22 1.47
   3  0.167  0.582  0.500-  18 1.44  19 1.45  23 1.47
   4  0.167  0.833  0.500-  24 1.45  19 1.45  20 1.45
   5  0.417  0.083  0.500-  25 1.45  21 1.46  24 1.46
   6  0.418  0.335  0.500-  32 1.44  21 1.45  22 1.47
   7  0.418  0.833  0.500-  27 1.44  24 1.45  23 1.47
   8  0.667  0.084  0.500-  27 1.45  28 1.45  25 1.45
   9  0.667  0.333  0.500-  32 1.45  29 1.45  25 1.45
  10  0.665  0.582  0.500-  32 1.44  30 1.45  26 1.47
  11  0.665  0.833  0.500-  27 1.44  31 1.45  26 1.47
  12  0.917  0.083  0.500-  28 1.45  31 1.46  17 1.46
  13  0.916  0.333  0.500-  18 1.45  28 1.45  29 1.45
  14  0.917  0.583  0.500-  29 1.45  30 1.46  19 1.46
  15  0.917  0.833  0.500-  30 1.45  31 1.45  20 1.45
  16  0.417  0.583  0.500-  22 1.41  26 1.41  23 1.41
  17  0.085  0.168  0.500-   1 1.45   2 1.45  12 1.46
  18  0.083  0.417  0.500-   3 1.44   2 1.44  13 1.45
  19  0.085  0.667  0.500-   4 1.45   3 1.45  14 1.46
  20  0.083  0.917  0.500-   4 1.45  15 1.45   1 1.45
  21  0.333  0.168  0.500-   1 1.45   6 1.45   5 1.46
  22  0.336  0.421  0.500-  16 1.41   2 1.47   6 1.47
  23  0.336  0.664  0.500-  16 1.41   3 1.47   7 1.47
  24  0.333  0.915  0.500-   4 1.45   7 1.45   5 1.46
  25  0.583  0.167  0.500-   5 1.45   8 1.45   9 1.45
  26  0.579  0.664  0.500-  16 1.41  11 1.47  10 1.47
  27  0.583  0.917  0.500-   7 1.44  11 1.44   8 1.45
  28  0.833  0.167  0.500-  12 1.45   8 1.45  13 1.45
  29  0.833  0.417  0.500-  14 1.45  13 1.45   9 1.45
  30  0.832  0.667  0.500-  15 1.45  10 1.45  14 1.46
  31  0.832  0.915  0.500-  15 1.45  11 1.45  12 1.46
  32  0.583  0.417  0.500-   6 1.44  10 1.44   9 1.45
  33  0.401  0.469  0.626-  34 1.28
  34  0.528  0.596  0.626-  33 1.28
 
  LATTYP: Found a hexagonal cell.
 ALAT       =    10.0487671536
 C/A-ratio  =     3.4944251219
  
  Lattice vectors:
  
 A1 = (   5.0243667045,  -8.7024973730,   0.0000000000)
 A2 = (   5.0243667045,   8.7024973730,   0.0000000000)
 A3 = (   0.0000000000,   0.0000000000,  35.1146643856)


Analysis of symmetry for initial positions (statically):
=====================================================================
 Subroutine PRICEL returns:
 Original cell was already a primitive cell.
 

 Routine SETGRP: Setting up the symmetry group for a 
 hexagonal supercell.


 Subroutine GETGRP returns: Found  1 space group operations
 (whereof  1 operations were pure point group operations)
 out of a pool of 24 trial point group operations.


The static configuration has the point symmetry C_1 .


Analysis of symmetry for dynamics (positions and initial velocities):
=====================================================================
 Subroutine PRICEL returns:
 Original cell was already a primitive cell.
 

 Routine SETGRP: Setting up the symmetry group for a 
 hexagonal supercell.


 Subroutine GETGRP returns: Found  1 space group operations
 (whereof  1 operations were pure point group operations)
 out of a pool of 24 trial point group operations.


The dynamic configuration has the point symmetry C_1 .


Analysis of constrained symmetry for selective dynamics:
=====================================================================
 Subroutine PRICEL returns:
 Original cell was already a primitive cell.
 

 Routine SETGRP: Setting up the symmetry group for a 
 hexagonal supercell.


 Subroutine GETGRP returns: Found  1 space group operations
 (whereof  1 operations were pure point group operations)
 out of a pool of 24 trial point group operations.


The constrained configuration has the point symmetry C_1 .


Analysis of structural, dynamic, and magnetic symmetry:
=====================================================================
 Subroutine PRICEL returns:
 Original cell was already a primitive cell.
 

 Routine SETGRP: Setting up the symmetry group for a 
 hexagonal supercell.


 Subroutine GETGRP returns: Found  1 space group operations
 (whereof  1 operations were pure point group operations)
 out of a pool of 24 trial point group operations.


The magnetic configuration has the point symmetry C_1 .


 Subroutine INISYM returns: Found  1 space group operations
 (whereof  1 operations are pure point group operations),
 and found     1 'primitive' translations

 
 
 KPOINTS: K-Point Grid                            

Automatic generation of k-mesh.
Space group operators:
 irot       det(A)        alpha          n_x          n_y          n_z        tau_x        tau_y        tau_z
    1     1.000000     0.000000     1.000000     0.000000     0.000000     0.000000     0.000000     0.000000
 
 Subroutine IBZKPT returns following result:
 ===========================================
 
 Found     24 irreducible k-points:
 
 Following reciprocal coordinates:
            Coordinates               Weight
  0.125000  0.125000  0.000000     16.000000
  0.250000 -0.125000  0.000000     16.000000
  0.125000 -0.250000  0.000000     16.000000
  0.375000  0.125000  0.000000     16.000000
  0.500000 -0.375000  0.000000     16.000000
  0.125000  0.500000  0.000000     16.000000
 -0.125000 -0.375000  0.000000     16.000000
  0.375000  0.500000  0.000000     16.000000
  0.500000 -0.125000  0.000000     16.000000
 -0.375000  0.125000  0.000000     16.000000
 -0.250000  0.375000  0.000000     16.000000
  0.125000  0.250000  0.000000     16.000000
 -0.125000  0.375000  0.000000     16.000000
 -0.375000  0.250000  0.000000     16.000000
 -0.250000 -0.125000  0.000000     16.000000
 -0.125000  0.125000  0.000000     16.000000
  0.000000  0.125000  0.000000     16.000000
  0.125000  0.000000  0.000000     16.000000
  0.375000  0.375000  0.000000     16.000000
 -0.250000 -0.375000  0.000000     16.000000
  0.375000  0.250000  0.000000     16.000000
 -0.375000  0.375000  0.000000     16.000000
  0.000000  0.375000  0.000000     16.000000
  0.375000  0.000000  0.000000     16.000000
 
 Following cartesian coordinates:
            Coordinates               Weight
  0.024879  0.000000  0.000000     16.000000
  0.012439 -0.021546  0.000000     16.000000
 -0.012439 -0.021546  0.000000     16.000000
  0.049758 -0.014364  0.000000     16.000000
  0.012439 -0.050273  0.000000     16.000000
  0.062197  0.021546  0.000000     16.000000
 -0.049758 -0.014364  0.000000     16.000000
  0.087076  0.007182  0.000000     16.000000
  0.037318 -0.035909  0.000000     16.000000
 -0.024879  0.028727  0.000000     16.000000
  0.012439  0.035909  0.000000     16.000000
  0.037318  0.007182  0.000000     16.000000
  0.024879  0.028727  0.000000     16.000000
 -0.012439  0.035909  0.000000     16.000000
 -0.037318  0.007182  0.000000     16.000000
  0.000000  0.014364  0.000000     16.000000
  0.012439  0.007182  0.000000     16.000000
  0.012439 -0.007182  0.000000     16.000000
  0.074636  0.000000  0.000000     16.000000
 -0.062197 -0.007182  0.000000     16.000000
  0.062197 -0.007182  0.000000     16.000000
  0.000000  0.043091  0.000000     16.000000
  0.037318  0.021546  0.000000     16.000000
  0.037318 -0.021546  0.000000     16.000000
 


--------------------------------------------------------------------------------------------------------




 Dimension of arrays:
   k-points           NKPTS =     24   k-points in BZ     NKDIM =     24   number of bands    NBANDS=    108
   number of dos      NEDOS =   1200   number of ions     NIONS =     34
   non local maximal  LDIM  =      4   non local SUM 2l+1 LMDIM =      8
   total plane-waves  NPLWV = ******
   max r-space proj   IRMAX =   6598   max aug-charges    IRDMAX=   8974
   dimension x,y,z NGX =    80 NGY =   80 NGZ =  270
   dimension x,y,z NGXF=   160 NGYF=  160 NGZF=  540
   support grid    NGXF=   160 NGYF=  160 NGZF=  540
   ions per type =              15  17   2
   NGX,Y,Z   is equivalent  to a cutoff of  13.24, 13.24, 12.78 a.u.
   NGXF,Y,Z  is equivalent  to a cutoff of  26.47, 26.47, 25.57 a.u.

 SYSTEM =  SiC                                     
 POSCAR =  B N O                                   

 Startparameter for this run:
   NWRITE =      2    write-flag & timer
   PREC   = accura    normal or accurate (medium, high low for compatibility)
   ISTART =      1    job   : 0-new  1-cont  2-samecut
   ICHARG =      0    charge: 1-file 2-atom 10-const
   ISPIN  =      2    spin polarized calculation?
   LNONCOLLINEAR =      F non collinear calculations
   LSORBIT =      F    spin-orbit coupling
   INIWAV =      1    electr: 0-lowe 1-rand  2-diag
   LASPH  =      F    aspherical Exc in radial PAW
   METAGGA=      F    non-selfconsistent MetaGGA calc.

 Electronic Relaxation 1
   ENCUT  =  550.0 eV  40.42 Ry    6.36 a.u.  19.22 19.22 67.15*2*pi/ulx,y,z
   ENINI  =  550.0     initial cutoff
   ENAUG  =  627.1 eV  augmentation charge cutoff
   NELM   =    100;   NELMIN=  2; NELMDL=  0     # of ELM steps 
   EDIFF  = 0.1E-04   stopping-criterion for ELM
   LREAL  =      T    real-space projection
   NLSPLINE    = F    spline interpolate recip. space projectors
   LCOMPAT=      F    compatible to vasp.4.4
   GGA_COMPAT  = T    GGA compatible to vasp.4.4-vasp.4.6
   LMAXPAW     = -100 max onsite density
   LMAXMIX     =    2 max onsite mixed and CHGCAR
   VOSKOWN=      0    Vosko Wilk Nusair interpolation
   ROPT   =   -0.00025  -0.00025  -0.00025
 Ionic relaxation
   EDIFFG = -.2E-01   stopping-criterion for IOM
   NSW    =    500    number of steps for IOM
   NBLOCK =      1;   KBLOCK =    500    inner block; outer block 
   IBRION =      2    ionic relax: 0-MD 1-quasi-New 2-CG
   NFREE  =      1    steps in history (QN), initial steepest desc. (CG)
   ISIF   =      2    stress and relaxation
   IWAVPR =     11    prediction:  0-non 1-charg 2-wave 3-comb
   ISYM   =      2    0-nonsym 1-usesym 2-fastsym
   LCORR  =      T    Harris-Foulkes like correction to forces

   POTIM  = 0.5000    time-step for ionic-motion
   TEIN   =    0.0    initial temperature
   TEBEG  =    0.0;   TEEND  =   0.0 temperature during run
   SMASS  =  -3.00    Nose mass-parameter (am)
   estimated Nose-frequenzy (Omega)   =  0.10E-29 period in steps =****** mass=  -0.231E-26a.u.
   SCALEE = 1.0000    scale energy and forces
   NPACO  =    256;   APACO  = 16.0  distance and # of slots for P.C.
   PSTRESS=    0.0 pullay stress

  Mass of Ions in am
   POMASS =  10.81 14.00 16.00
  Ionic Valenz
   ZVAL   =   3.00  5.00  6.00
  Atomic Wigner-Seitz radii
   RWIGS  =  -1.00 -1.00 -1.00
  virtual crystal weights 
   VCA    =   1.00  1.00  1.00
   NELECT =     142.0000    total number of electrons
   NUPDOWN=      -1.0000    fix difference up-down

 DOS related values:
   EMIN   =  10.00;   EMAX   =-10.00  energy-range for DOS
   EFERMI =   0.00
   ISMEAR =     0;   SIGMA  =   0.05  broadening in eV -4-tet -1-fermi 0-gaus

 Electronic relaxation 2 (details)
   IALGO  =     68    algorithm
   LDIAG  =      T    sub-space diagonalisation (order eigenvalues)
   LSUBROT=      F    optimize rotation matrix (better conditioning)
   TURBO    =      0    0=normal 1=particle mesh
   IRESTART =      0    0=no restart 2=restart with 2 vectors
   NREBOOT  =      0    no. of reboots
   NMIN     =      0    reboot dimension
   EREF     =   0.00    reference energy to select bands
   IMIX   =      4    mixing-type and parameters
     AMIX     =   0.40;   BMIX     =  1.00
     AMIX_MAG =   1.60;   BMIX_MAG =  1.00
     AMIN     =   0.10
     WC   =   100.;   INIMIX=   1;  MIXPRE=   1;  MAXMIX= -45

 Intra band minimization:
   WEIMIN = 0.0010     energy-eigenvalue tresh-hold
   EBREAK =  0.23E-07  absolut break condition
   DEPER  =   0.30     relativ break condition  

   TIME   =   0.40     timestep for ELM

  volume/ion in A,a.u.               =      90.32       609.48
  Fermi-wavevector in a.u.,A,eV,Ry     =   0.587611  1.110423  4.697906  0.345286
  Thomas-Fermi vector in A             =   1.634552
 
 Write flags
   LWAVE        =      F    write WAVECAR
   LDOWNSAMPLE  =      F    k-point downsampling of WAVECAR
   LCHARG       =      T    write CHGCAR
   LVTOT        =      F    write LOCPOT, total local potential
   LVHAR        =      T    write LOCPOT, Hartree potential only
   LELF         =      F    write electronic localiz. function (ELF)
   LORBIT       =     11    0 simple, 1 ext, 2 COOP (PROOUT), +10 PAW based schemes


 Dipole corrections
   LMONO  =      F    monopole corrections only (constant potential shift)
   LDIPOL =      F    correct potential (dipole corrections)
   IDIPOL =      0    1-x, 2-y, 3-z, 4-all directions 
   EPSILON=  1.0000000 bulk dielectric constant

 Exchange correlation treatment:
   GGA     =    --    GGA type
   LEXCH   =     8    internal setting for exchange type
   VOSKOWN=      0    Vosko Wilk Nusair interpolation
   LHFCALC =     F    Hartree Fock is set to
   LHFONE  =     F    Hartree Fock one center treatment
   AEXX    =    0.0000 exact exchange contribution

 Linear response parameters
   LEPSILON=     F    determine dielectric tensor
   LRPA    =     F    only Hartree local field effects (RPA)
   LNABLA  =     F    use nabla operator in PAW spheres
   LVEL    =     F    velocity operator in full k-point grid
   LINTERFAST=   F  fast interpolation
   KINTER  =     0    interpolate to denser k-point grid
   CSHIFT  =0.1000    complex shift for real part using Kramers Kronig
   OMEGAMAX=  -1.0    maximum frequency
   DEG_THRESHOLD= 0.2000000E-02 threshold for treating states as degnerate
   RTIME   =   -0.100 relaxation time in fs
  (WPLASMAI=    0.000 imaginary part of plasma frequency in eV, 0.658/RTIME)
   DFIELD  = 0.0000000 0.0000000 0.0000000 field for delta impulse in time
 
 Orbital magnetization related:
   ORBITALMAG=     F  switch on orbital magnetization
   LCHIMAG   =     F  perturbation theory with respect to B field
   DQ        =  0.001000  dq finite difference perturbation B field
   LLRAUG    =     F  two centre corrections for induced B field

 Solvation model:
   LSOL    =     T         switch on solvation model
   EB_K    = 78.400000     relative permittivity of the bulk solvent
   SIGMA_K =  0.600000     width of the dielectric cavity
   NC_K    =  0.002500     cutoff charge density
   TAU     =  0.000000     cavity surface tension
   LAMBDA_D_K    =  3.040000     Debye length in Angstroms
   LRHOB     =     F     write boundcharge  density
   LRHOION     =     F     write ioniccharge density



--------------------------------------------------------------------------------------------------------


 conjugate gradient relaxation of ions
   using selective dynamics as specified on POSCAR
 charge density and potential will be updated during run
 spin polarized calculation
 RMM-DIIS sequential band-by-band and
  variant of blocked Davidson during initial phase
 perform sub-space diagonalisation
    before iterative eigenvector-optimisation
 modified Broyden-mixing scheme, WC =      100.0
 initial mixing is a Kerker type mixing with AMIX =  0.4000 and BMIX =      1.0000
 Hartree-type preconditioning will be used
 using additional bands           37
 real space projection scheme for non local part
 use partial core corrections
 calculate Harris-corrections to forces 
   (improved forces if not selfconsistent)
 use gradient corrections 
 use of overlap-Matrix (Vanderbilt PP)
 Gauss-broadening in eV      SIGMA  =   0.05


--------------------------------------------------------------------------------------------------------


  energy-cutoff  :      550.00
  volume of cell :     3070.74
      direct lattice vectors                 reciprocal lattice vectors
     5.024366704 -8.702497373  0.000000000     0.099515029 -0.057454772  0.000000000
     5.024366704  8.702497373  0.000000000     0.099515029  0.057454772  0.000000000
     0.000000000  0.000000000 35.114664386     0.000000000  0.000000000  0.028478131

  length of vectors
    10.048767154 10.048767154 35.114664386     0.114909929  0.114909929  0.028478131


 
 old parameters found on file WAVECAR:
  energy-cutoff  :      550.00
  volume of cell :     3070.74
      direct lattice vectors                 reciprocal lattice vectors
     5.024366704 -8.702497373  0.000000000     0.099515029 -0.057454772  0.000000000
     5.024366704  8.702497373  0.000000000     0.099515029  0.057454772  0.000000000
     0.000000000  0.000000000 35.114664386     0.000000000  0.000000000  0.028478131

  length of vectors

 
 k-points in units of 2pi/SCALE and weight: K-Point Grid                            
   0.02487876  0.00000000  0.00000000       0.042
   0.01243938 -0.02154554  0.00000000       0.042
  -0.01243938 -0.02154554  0.00000000       0.042
   0.04975751 -0.01436369  0.00000000       0.042
   0.01243938 -0.05027293  0.00000000       0.042
   0.06219689  0.02154554  0.00000000       0.042
  -0.04975751 -0.01436369  0.00000000       0.042
   0.08707565  0.00718185  0.00000000       0.042
   0.03731814 -0.03590923  0.00000000       0.042
  -0.02487876  0.02872739  0.00000000       0.042
   0.01243938  0.03590923  0.00000000       0.042
   0.03731814  0.00718185  0.00000000       0.042
   0.02487876  0.02872739  0.00000000       0.042
  -0.01243938  0.03590923  0.00000000       0.042
  -0.03731814  0.00718185  0.00000000       0.042
   0.00000000  0.01436369  0.00000000       0.042
   0.01243938  0.00718185  0.00000000       0.042
   0.01243938 -0.00718185  0.00000000       0.042
   0.07463627  0.00000000  0.00000000       0.042
  -0.06219689 -0.00718185  0.00000000       0.042
   0.06219689 -0.00718185  0.00000000       0.042
   0.00000000  0.04309108  0.00000000       0.042
   0.03731814  0.02154554  0.00000000       0.042
   0.03731814 -0.02154554  0.00000000       0.042
 
 k-points in reciprocal lattice and weights: K-Point Grid                            
   0.12500000  0.12500000  0.00000000       0.042
   0.25000000 -0.12500000  0.00000000       0.042
   0.12500000 -0.25000000  0.00000000       0.042
   0.37500000  0.12500000  0.00000000       0.042
   0.50000000 -0.37500000  0.00000000       0.042
   0.12500000  0.50000000  0.00000000       0.042
  -0.12500000 -0.37500000  0.00000000       0.042
   0.37500000  0.50000000  0.00000000       0.042
   0.50000000 -0.12500000  0.00000000       0.042
  -0.37500000  0.12500000  0.00000000       0.042
  -0.25000000  0.37500000  0.00000000       0.042
   0.12500000  0.25000000  0.00000000       0.042
  -0.12500000  0.37500000  0.00000000       0.042
  -0.37500000  0.25000000  0.00000000       0.042
  -0.25000000 -0.12500000  0.00000000       0.042
  -0.12500000  0.12500000  0.00000000       0.042
   0.00000000  0.12500000  0.00000000       0.042
   0.12500000  0.00000000  0.00000000       0.042
   0.37500000  0.37500000  0.00000000       0.042
  -0.25000000 -0.37500000  0.00000000       0.042
   0.37500000  0.25000000  0.00000000       0.042
  -0.37500000  0.37500000  0.00000000       0.042
   0.00000000  0.37500000  0.00000000       0.042
   0.37500000  0.00000000  0.00000000       0.042
 
 position of ions in fractional coordinates (direct lattice) 
   0.16673972  0.08347833  0.50000576
   0.16714683  0.33515412  0.50001057
   0.16714569  0.58199017  0.50000810
   0.16673939  0.83326115  0.50000497
   0.41669006  0.08334663  0.50000484
   0.41800829  0.33515515  0.50001390
   0.41801032  0.83285479  0.50000807
   0.66680548  0.08361216  0.50000362
   0.66680420  0.33319635  0.50000493
   0.66484545  0.58199236  0.50001361
   0.66484649  0.83285364  0.50001021
   0.91665579  0.08334486  0.50000418
   0.91638838  0.33319506  0.50000358
   0.91665394  0.58331046  0.50000486
   0.91652226  0.83326087  0.50000578
   0.41666803  0.58333237  0.50002358
   0.08470695  0.16800985  0.50000070
   0.08300815  0.41650340  0.50000021
   0.08470692  0.66669579  0.50000116
   0.08333413  0.91666643  0.49999896
   0.33330370  0.16801050  0.50000106
   0.33554209  0.42108369  0.49998472
   0.33554249  0.66445796  0.49998767
   0.33330474  0.91529362  0.50000115
   0.58314715  0.16657478  0.49999847
   0.57891766  0.66445886  0.49998412
   0.58349709  0.91699230  0.50000029
   0.83342669  0.16657384  0.49999841
   0.83342576  0.41685339  0.49999846
   0.83199009  0.66669684  0.50000112
   0.83199079  0.91529370  0.50000073
   0.58349519  0.41650538  0.50000167
   0.40081379  0.46891583  0.62613222
   0.52816373  0.59627012  0.62613211
 
 position of ions in cartesian coordinates  (Angst):
   1.25718724 -0.72458202 17.55753428
   2.52374419  1.46208301 17.55770332
   3.76393328  3.61018295 17.55761648
   5.02436942  5.80040391 17.55750680
   2.51236770 -2.90092034 17.55750217
   3.78416933 -0.72102919 17.55782023
   6.28480505  3.61018291 17.55761574
   3.77037339 -5.07523828 17.55745929
   5.02436947 -2.90322143 17.55750532
   6.26457039 -0.72102880 17.55781016
   7.52499469  1.46208179 17.55769070
   5.02436995 -7.25188615 17.55747898
   6.27836545 -5.07523830 17.55745788
   7.53637122 -2.90092076 17.55750284
   8.79155207 -0.72458206 17.55753509
   5.02436870  1.45039594 17.55816018
   1.26974189  0.72494325 17.55735686
   2.50972921  2.90224153 17.55733952
   3.77532277  5.06475660 17.55737280
   5.02436951  7.25207215 17.55729567
   2.51878638 -1.43846366 17.55736948
   3.80156534  0.74442554 17.55679558
   5.02436897  2.86238600 17.55689939
   6.27341600  5.06475668 17.55737241
   3.76687788 -3.62521993 17.55727853
   6.24717961  0.74442202 17.55677473
   7.53900895  2.90224122 17.55734235
   5.02436939 -5.80328522 17.55727640
   6.28186090 -3.62521993 17.55727811
   7.52995274 -1.43846410 17.55737137
   8.77899801  0.72494328 17.55735778
   5.02436952 -1.45322839 17.55739096
   4.36984053  0.59265780 21.98642266
   5.64956801  0.59269566 21.98641884
 


--------------------------------------------------------------------------------------------------------


 k-point  1 :   0.1250 0.1250 0.0000  plane waves:   89921
 k-point  2 :   0.2500-0.1250 0.0000  plane waves:   89921
 k-point  3 :   0.1250-0.2500 0.0000  plane waves:   89921
 k-point  4 :   0.3750 0.1250 0.0000  plane waves:   89970
 k-point  5 :   0.5000-0.3750 0.0000  plane waves:   89970
 k-point  6 :   0.1250 0.5000 0.0000  plane waves:   89970
 k-point  7 :  -0.1250-0.3750 0.0000  plane waves:   89970
 k-point  8 :   0.3750 0.5000 0.0000  plane waves:   89970
 k-point  9 :   0.5000-0.1250 0.0000  plane waves:   89970
 k-point 10 :  -0.3750 0.1250 0.0000  plane waves:   89943
 k-point 11 :  -0.2500 0.3750 0.0000  plane waves:   89943
 k-point 12 :   0.1250 0.2500 0.0000  plane waves:   89943
 k-point 13 :  -0.1250 0.3750 0.0000  plane waves:   89943
 k-point 14 :  -0.3750 0.2500 0.0000  plane waves:   89943
 k-point 15 :  -0.2500-0.1250 0.0000  plane waves:   89943
 k-point 16 :  -0.1250 0.1250 0.0000  plane waves:   89893
 k-point 17 :   0.0000 0.1250 0.0000  plane waves:   89893
 k-point 18 :   0.1250 0.0000 0.0000  plane waves:   89893
 k-point 19 :   0.3750 0.3750 0.0000  plane waves:   89957
 k-point 20 :  -0.2500-0.3750 0.0000  plane waves:   89957
 k-point 21 :   0.3750 0.2500 0.0000  plane waves:   89957
 k-point 22 :  -0.3750 0.3750 0.0000  plane waves:   89980
 k-point 23 :   0.0000 0.3750 0.0000  plane waves:   89980
 k-point 24 :   0.3750 0.0000 0.0000  plane waves:   89980

 maximum and minimum number of plane-waves per node :     15033    14959

 maximum number of plane-waves:     89980
 maximum index in each direction: 
   IXMAX=   19   IYMAX=   19   IZMAX=   67
   IXMIN=  -19   IYMIN=  -19   IZMIN=  -67


 real space projection operators:
  total allocation   :      10721.50 KBytes
  max/ min on nodes  :       1867.06       1740.19


 parallel 3D FFT for wavefunctions:
    minimum data exchange during FFTs selected (reduces bandwidth)
 parallel 3D FFT for charge:
    minimum data exchange during FFTs selected (reduces bandwidth)


 total amount of memory used by VASP MPI-rank0   454801. kBytes
=======================================================================

   base      :      30000. kBytes
   nonlr-proj:       6102. kBytes
   fftplans  :      29100. kBytes
   grid      :      77611. kBytes
   one-center:         36. kBytes
   wavefun   :     311952. kBytes
 
     INWAV:  cpu time   14.7057: real time  220.9469
 Broyden mixing: mesh for mixing (old mesh)
   NGX = 39   NGY = 39   NGZ =135
  (NGX  =160   NGY  =160   NGZ  =540)
  gives a total of 205335 points

 charge density for first step will be calculated from the start-wavefunctions


--------------------------------------------------------------------------------------------------------


 Maximum index for non-local projection operator         1235
 Maximum index for augmentation-charges          480 (set IRDMAX)


--------------------------------------------------------------------------------------------------------


 initial charge from wavefunction
 First call to EWALD:  gamma=   0.122
 Maximum number of real-space cells 4x 4x 1
 Maximum number of reciprocal cells 2x 2x 6

    FEWALD:  cpu time    0.0062: real time   12.7553


--------------------------------------- Iteration      1(   1)  ---------------------------------------


    POTLOK:  cpu time   23.1578: real time  163.8501
    SETDIJ:  cpu time    0.2317: real time   66.6270
     EDDAV:  cpu time  186.0130: real time  387.1885
       DOS:  cpu time    0.4067: real time   18.8669
    CHARGE:  cpu time    5.4031: real time    5.3514
    MIXING:  cpu time    0.1749: real time   19.2080
    --------------------------------------------
      LOOP:  cpu time  215.3872: real time  661.0920

 eigenvalue-minimisations  :  9932
 total energy-change (2. order) :-0.2863801E+03  (-0.8878563E-05)
 number of electron     141.9999991 magnetization       1.5897652
 augmentation part        5.1701265 magnetization       0.4573304

 Broyden mixing:
  rms(total) = 0.78263E-01    rms(broyden)= 0.78209E-01
  rms(prec ) = 0.82258E-01
  weight for this iteration     100.00

 Free energy of the ion-electron system (eV)
  ---------------------------------------------------
  alpha Z        PSCENC =        34.98872654
  Ewald energy   TEWEN  =     45856.14030092
  -Hartree energ DENC   =    -51208.69006209
  -exchange      EXHF   =         0.00000000
  -V(xc)+E(xc)   XCENC  =       520.34849291
  PAW double counting   =     15552.61020671   -15570.13776090
  entropy T*S    EENTRO =        -0.03888979
  eigenvalues    EBANDS =     -1931.12903946
  atomic energy  EATOM  =      6429.38789286
  Solvation  Ediel_sol  =        30.14005133
  ---------------------------------------------------
  free energy    TOTEN  =      -286.38008095 eV

  energy without entropy =     -286.34119116  energy(sigma->0) =     -286.36063606


--------------------------------------------------------------------------------------------------------




--------------------------------------- Iteration      1(   2)  ---------------------------------------


    POTLOK:  cpu time   19.5391: real time   23.8365
    SETDIJ:  cpu time    0.0218: real time    0.0126
    EDDIAG:  cpu time   41.3110: real time   42.1127
  RMM-DIIS:  cpu time  141.6286: real time   89.0875
    ORTHCH:  cpu time    1.5049: real time    0.7544
       DOS:  cpu time    0.0107: real time    0.0054
    CHARGE:  cpu time    6.7797: real time    6.5343
    MIXING:  cpu time    0.1772: real time    8.2559
    --------------------------------------------
      LOOP:  cpu time  210.9731: real time  170.5993

 eigenvalue-minimisations  : 10374
 total energy-change (2. order) :-0.5686749E-01  (-0.5429536E-02)
 number of electron     141.9999989 magnetization       1.5932328
 augmentation part        5.1186531 magnetization       0.0609261

 Broyden mixing:
  rms(total) = 0.38405E+00    rms(broyden)= 0.38378E+00
  rms(prec ) = 0.40012E+00
  weight for this iteration     100.00

 eigenvalues of (default mixing * dielectric matrix)
  average eigenvalue GAMMA=   0.1642
  0.1642

 Free energy of the ion-electron system (eV)
  ---------------------------------------------------
  alpha Z        PSCENC =        34.98872654
  Ewald energy   TEWEN  =     45856.14030092
  -Hartree energ DENC   =    -51206.64326643
  -exchange      EXHF   =         0.00000000
  -V(xc)+E(xc)   XCENC  =       520.39029387
  PAW double counting   =     15552.51322391   -15570.06571636
  entropy T*S    EENTRO =        -0.00006698
  eigenvalues    EBANDS =     -1931.54221473
  atomic energy  EATOM  =      6429.38789286
  Solvation  Ediel_sol  =        28.39387796
  ---------------------------------------------------
  free energy    TOTEN  =      -286.43694844 eV

  energy without entropy =     -286.43688146  energy(sigma->0) =     -286.43691495


--------------------------------------------------------------------------------------------------------




--------------------------------------- Iteration      1(   3)  ---------------------------------------


    POTLOK:  cpu time   19.5115: real time   19.5508
    SETDIJ:  cpu time    0.0226: real time    0.0133
    EDDIAG:  cpu time   41.0089: real time   20.5717
  RMM-DIIS:  cpu time  138.9241: real time   69.6617
    ORTHCH:  cpu time    1.5045: real time    0.7570
       DOS:  cpu time    0.0106: real time    0.0053
    CHARGE:  cpu time    6.8071: real time    6.5601
    MIXING:  cpu time    0.0615: real time    0.0309
    --------------------------------------------
      LOOP:  cpu time  207.8509: real time  117.1507

 eigenvalue-minimisations  : 10374
 total energy-change (2. order) : 0.6132284E-01  (-0.2639789E-02)
 number of electron     141.9999990 magnetization       1.5943388
 augmentation part        5.1382485 magnetization       0.2061031

 Broyden mixing:
  rms(total) = 0.18454E+00    rms(broyden)= 0.18452E+00
  rms(prec ) = 0.19376E+00
  weight for this iteration     100.00

 eigenvalues of (default mixing * dielectric matrix)
  average eigenvalue GAMMA=   0.2183
  0.2183  0.2183

 Free energy of the ion-electron system (eV)
  ---------------------------------------------------
  alpha Z        PSCENC =        34.98872654
  Ewald energy   TEWEN  =     45856.14030092
  -Hartree energ DENC   =    -51208.03566584
  -exchange      EXHF   =         0.00000000
  -V(xc)+E(xc)   XCENC  =       520.36482667
  PAW double counting   =     15552.42373567   -15569.95528550
  entropy T*S    EENTRO =        -0.02023651
  eigenvalues    EBANDS =     -1931.30100900
  atomic energy  EATOM  =      6429.38789286
  Solvation  Ediel_sol  =        29.63108857
  ---------------------------------------------------
  free energy    TOTEN  =      -286.37562561 eV

  energy without entropy =     -286.35538910  energy(sigma->0) =     -286.36550735


--------------------------------------------------------------------------------------------------------




--------------------------------------- Iteration      1(   4)  ---------------------------------------


    POTLOK:  cpu time   18.4955: real time   19.1181
    SETDIJ:  cpu time    0.0224: real time    0.0132
    EDDIAG:  cpu time   41.1092: real time   20.6176
  RMM-DIIS:  cpu time  139.7519: real time   70.0816
    ORTHCH:  cpu time    1.5028: real time    0.7534
       DOS:  cpu time    0.0113: real time    0.0057
    CHARGE:  cpu time    6.7700: real time    6.5230
    MIXING:  cpu time    0.0426: real time    0.0213
    --------------------------------------------
      LOOP:  cpu time  207.7058: real time  117.1338

 eigenvalue-minimisations  : 10468
 total energy-change (2. order) : 0.1056579E-02  (-0.3231901E-03)
 number of electron     141.9999990 magnetization       1.5943939
 augmentation part        5.1629827 magnetization       0.3989488

 Broyden mixing:
  rms(total) = 0.22561E-01    rms(broyden)= 0.21123E-01
  rms(prec ) = 0.22182E-01
  weight for this iteration     100.00

 eigenvalues of (default mixing * dielectric matrix)
  average eigenvalue GAMMA=   0.2058
  0.2245  0.2245  0.1685

 Free energy of the ion-electron system (eV)
  ---------------------------------------------------
  alpha Z        PSCENC =        34.98872654
  Ewald energy   TEWEN  =     45856.14030092
  -Hartree energ DENC   =    -51208.49385170
  -exchange      EXHF   =         0.00000000
  -V(xc)+E(xc)   XCENC  =       520.35367979
  PAW double counting   =     15552.48615219   -15570.01448277
  entropy T*S    EENTRO =        -0.03575092
  eigenvalues    EBANDS =     -1931.19583484
  atomic energy  EATOM  =      6429.38789286
  Solvation  Ediel_sol  =        30.00859889
  ---------------------------------------------------
  free energy    TOTEN  =      -286.37456903 eV

  energy without entropy =     -286.33881811  energy(sigma->0) =     -286.35669357


--------------------------------------------------------------------------------------------------------




--------------------------------------- Iteration      1(   5)  ---------------------------------------


    POTLOK:  cpu time   18.3834: real time   18.3047
    SETDIJ:  cpu time    0.0221: real time    0.0130
    EDDIAG:  cpu time   41.0634: real time   20.5953
  RMM-DIIS:  cpu time  126.5466: real time   63.4832
    ORTHCH:  cpu time    1.5019: real time    0.7533
       DOS:  cpu time    0.0118: real time    0.0059
    CHARGE:  cpu time    6.7959: real time    6.5499
    MIXING:  cpu time    0.0429: real time    0.0215
    --------------------------------------------
      LOOP:  cpu time  194.3680: real time  109.7267

 eigenvalue-minimisations  :  9273
 total energy-change (2. order) :-0.4622968E-02  (-0.4830805E-04)
 number of electron     141.9999990 magnetization       1.5941646
 augmentation part        5.1613489 magnetization       0.3730770

 Broyden mixing:
  rms(total) = 0.17670E-01    rms(broyden)= 0.17599E-01
  rms(prec ) = 0.17833E-01
  weight for this iteration     100.00

 eigenvalues of (default mixing * dielectric matrix)
  average eigenvalue GAMMA=   0.1601
  0.2238  0.2238  0.1709  0.0217

 Free energy of the ion-electron system (eV)
  ---------------------------------------------------
  alpha Z        PSCENC =        34.98872654
  Ewald energy   TEWEN  =     45856.14030092
  -Hartree energ DENC   =    -51208.43373146
  -exchange      EXHF   =         0.00000000
  -V(xc)+E(xc)   XCENC  =       520.35029460
  PAW double counting   =     15552.45204321   -15569.98054586
  entropy T*S    EENTRO =        -0.03487036
  eigenvalues    EBANDS =     -1931.19987984
  atomic energy  EATOM  =      6429.38789286
  Solvation  Ediel_sol  =        29.95057738
  ---------------------------------------------------
  free energy    TOTEN  =      -286.37919199 eV

  energy without entropy =     -286.34432164  energy(sigma->0) =     -286.36175682


--------------------------------------------------------------------------------------------------------




--------------------------------------- Iteration      1(   6)  ---------------------------------------


    POTLOK:  cpu time   17.4666: real time   20.9157
    SETDIJ:  cpu time    0.0222: real time    0.0129
    EDDIAG:  cpu time   41.1167: real time   20.6187
  RMM-DIIS:  cpu time  106.3391: real time   53.6045
    ORTHCH:  cpu time    1.5048: real time    0.7574
       DOS:  cpu time    0.0117: real time    0.0059
    CHARGE:  cpu time    6.7967: real time    6.5505
    MIXING:  cpu time    0.0635: real time    0.0318
    --------------------------------------------
      LOOP:  cpu time  173.3213: real time  102.4974

 eigenvalue-minimisations  :  7566
 total energy-change (2. order) : 0.3516420E-03  (-0.6788347E-05)
 number of electron     141.9999990 magnetization       1.5941711
 augmentation part        5.1604037 magnetization       0.3737941

 Broyden mixing:
  rms(total) = 0.42865E-02    rms(broyden)= 0.40799E-02
  rms(prec ) = 0.40866E-02
  weight for this iteration     100.00

 eigenvalues of (default mixing * dielectric matrix)
  average eigenvalue GAMMA=   0.1484
  0.2235  0.2235  0.1701  0.0756  0.0492

 Free energy of the ion-electron system (eV)
  ---------------------------------------------------
  alpha Z        PSCENC =        34.98872654
  Ewald energy   TEWEN  =     45856.14030092
  -Hartree energ DENC   =    -51208.38275198
  -exchange      EXHF   =         0.00000000
  -V(xc)+E(xc)   XCENC  =       520.35032543
  PAW double counting   =     15552.38705239   -15569.91570877
  entropy T*S    EENTRO =        -0.03445663
  eigenvalues    EBANDS =     -1931.21423326
  atomic energy  EATOM  =      6429.38789286
  Solvation  Ediel_sol  =        29.91401214
  ---------------------------------------------------
  free energy    TOTEN  =      -286.37884035 eV

  energy without entropy =     -286.34438372  energy(sigma->0) =     -286.36161204


--------------------------------------------------------------------------------------------------------




--------------------------------------- Iteration      1(   7)  ---------------------------------------


    POTLOK:  cpu time   16.3332: real time   16.2560
    SETDIJ:  cpu time    0.0219: real time    0.0127
    EDDIAG:  cpu time   41.0231: real time   20.5765
  RMM-DIIS:  cpu time  102.2441: real time   51.9342
    ORTHCH:  cpu time    1.5003: real time    0.7523
       DOS:  cpu time    0.0117: real time    0.0059
    CHARGE:  cpu time    6.7452: real time    6.5000
    MIXING:  cpu time    0.0581: real time    0.0291
    --------------------------------------------
      LOOP:  cpu time  167.9375: real time   96.0668

 eigenvalue-minimisations  :  7169
 total energy-change (2. order) :-0.3897290E-03  (-0.3012971E-05)
 number of electron     141.9999990 magnetization       1.5941728
 augmentation part        5.1604150 magnetization       0.3736908

 Broyden mixing:
  rms(total) = 0.40622E-02    rms(broyden)= 0.40548E-02
  rms(prec ) = 0.40605E-02
  weight for this iteration     100.00

 eigenvalues of (default mixing * dielectric matrix)
  average eigenvalue GAMMA=   0.1443
  0.2237  0.2237  0.1741  0.1023  0.0711  0.0711

 Free energy of the ion-electron system (eV)
  ---------------------------------------------------
  alpha Z        PSCENC =        34.98872654
  Ewald energy   TEWEN  =     45856.14030092
  -Hartree energ DENC   =    -51208.38309080
  -exchange      EXHF   =         0.00000000
  -V(xc)+E(xc)   XCENC  =       520.35001654
  PAW double counting   =     15552.38799350   -15569.91664430
  entropy T*S    EENTRO =        -0.03446801
  eigenvalues    EBANDS =     -1931.21430194
  atomic energy  EATOM  =      6429.38789286
  Solvation  Ediel_sol  =        29.91434461
  ---------------------------------------------------
  free energy    TOTEN  =      -286.37923008 eV

  energy without entropy =     -286.34476207  energy(sigma->0) =     -286.36199608


--------------------------------------------------------------------------------------------------------




--------------------------------------- Iteration      1(   8)  ---------------------------------------


    POTLOK:  cpu time   15.2282: real time   16.0234
    SETDIJ:  cpu time    0.0215: real time    0.0124
    EDDIAG:  cpu time   40.8484: real time   20.4899
  RMM-DIIS:  cpu time   94.1431: real time   48.1251
    ORTHCH:  cpu time    1.5041: real time    0.7541
       DOS:  cpu time    0.0116: real time    0.0058
    CHARGE:  cpu time    6.7674: real time    6.5218
    MIXING:  cpu time    0.0562: real time    0.0282
    --------------------------------------------
      LOOP:  cpu time  158.5805: real time   91.9607

 eigenvalue-minimisations  :  6423
 total energy-change (2. order) :-0.3421719E-04  (-0.4344199E-06)
 number of electron     141.9999990 magnetization       1.5941726
 augmentation part        5.1604014 magnetization       0.3735549

 Broyden mixing:
  rms(total) = 0.41094E-02    rms(broyden)= 0.41091E-02
  rms(prec ) = 0.41154E-02
  weight for this iteration     100.00

 eigenvalues of (default mixing * dielectric matrix)
  average eigenvalue GAMMA=   0.2327
  0.2728  0.2297  0.2297  0.2749  0.2749  0.1734  0.1734

 Free energy of the ion-electron system (eV)
  ---------------------------------------------------
  alpha Z        PSCENC =        34.98872654
  Ewald energy   TEWEN  =     45856.14030092
  -Hartree energ DENC   =    -51208.38250256
  -exchange      EXHF   =         0.00000000
  -V(xc)+E(xc)   XCENC  =       520.34997823
  PAW double counting   =     15552.38764603   -15569.91629157
  entropy T*S    EENTRO =        -0.03446366
  eigenvalues    EBANDS =     -1931.21474270
  atomic energy  EATOM  =      6429.38789286
  Solvation  Ediel_sol  =        29.91419159
  ---------------------------------------------------
  free energy    TOTEN  =      -286.37926430 eV

  energy without entropy =     -286.34480064  energy(sigma->0) =     -286.36203247


--------------------------------------------------------------------------------------------------------




--------------------------------------- Iteration      1(   9)  ---------------------------------------


    POTLOK:  cpu time   14.1192: real time   14.0264
    SETDIJ:  cpu time    0.0214: real time    0.0123
    EDDIAG:  cpu time   41.2195: real time   20.6720
  RMM-DIIS:  cpu time   82.8931: real time   42.0845
    ORTHCH:  cpu time    1.5009: real time    0.7525
       DOS:  cpu time    0.0118: real time    0.0059
    --------------------------------------------
      LOOP:  cpu time  139.7658: real time   77.5535

 eigenvalue-minimisations  :  4821
 total energy-change (2. order) :-0.2272245E-06  (-0.4898152E-07)
 number of electron     141.9999990 magnetization       1.5941726
 augmentation part        5.1604014 magnetization       0.3735549

 Free energy of the ion-electron system (eV)
  ---------------------------------------------------
  alpha Z        PSCENC =        34.98872654
  Ewald energy   TEWEN  =     45856.14030092
  -Hartree energ DENC   =    -51208.38197189
  -exchange      EXHF   =         0.00000000
  -V(xc)+E(xc)   XCENC  =       520.34997083
  PAW double counting   =     15552.38764255   -15569.91628681
  entropy T*S    EENTRO =        -0.03445643
  eigenvalues    EBANDS =     -1931.21503803
  atomic energy  EATOM  =      6429.38789286
  Solvation  Ediel_sol  =        29.91395492
  ---------------------------------------------------
  free energy    TOTEN  =      -286.37926453 eV

  energy without entropy =     -286.34480810  energy(sigma->0) =     -286.36203631


--------------------------------------------------------------------------------------------------------




 average (electrostatic) potential at core
  the test charge radii are     0.7672  0.7089  0.7215
  (the norm of the test charge is              1.0000)
       1 -37.4350       2 -37.7861       3 -37.7863       4 -37.4351       5 -37.5420
       6 -37.7860       7 -37.7863       8 -37.4404       9 -37.4403      10 -37.7859
      11 -37.7861      12 -37.5420      13 -37.4404      14 -37.5420      15 -37.4350
      16 -76.8944      17 -73.4241      18 -73.4609      19 -73.4243      20 -73.3092
      21 -73.4240      22 -75.1182      23 -75.1182      24 -73.4243      25 -73.3015
      26 -75.1181      27 -73.4609      28 -73.3015      29 -73.3015      30 -73.4240
      31 -73.4241      32 -73.4606      33 -81.9665      34 -81.9665
 
 
 
 E-fermi :  -3.9681     XC(G=0):  -1.3502     alpha+bet : -1.0719


 spin component 1

 k-point     1 :       0.1250    0.1250    0.0000
  band No.  band energies     occupation 
      1     -29.9111      1.00000
      2     -27.3058      1.00000
      3     -23.5747      1.00000
      4     -23.3274      1.00000
      5     -23.1869      1.00000
      6     -22.8280      1.00000
      7     -22.5323      1.00000
      8     -22.2431      1.00000
      9     -21.9836      1.00000
     10     -21.7992      1.00000
     11     -21.2531      1.00000
     12     -21.1858      1.00000
     13     -20.9654      1.00000
     14     -20.8554      1.00000
     15     -20.6783      1.00000
     16     -20.6389      1.00000
     17     -20.5238      1.00000
     18     -19.3930      1.00000
     19     -18.0102      1.00000
     20     -15.5377      1.00000
     21     -15.5068      1.00000
     22     -14.7055      1.00000
     23     -14.6557      1.00000
     24     -14.3680      1.00000
     25     -14.0407      1.00000
     26     -13.9099      1.00000
     27     -13.6175      1.00000
     28     -13.1406      1.00000
     29     -12.9604      1.00000
     30     -12.7045      1.00000
     31     -12.5037      1.00000
     32     -12.3372      1.00000
     33     -12.1573      1.00000
     34     -12.1302      1.00000
     35     -11.8424      1.00000
     36     -11.7749      1.00000
     37     -11.5758      1.00000
     38     -11.4672      1.00000
     39     -11.4257      1.00000
     40     -11.3000      1.00000
     41     -11.2970      1.00000
     42     -10.9770      1.00000
     43     -10.8317      1.00000
     44     -10.7549      1.00000
     45     -10.5786      1.00000
     46     -10.5140      1.00000
     47     -10.3558      1.00000
     48     -10.2734      1.00000
     49     -10.0096      1.00000
     50      -9.8357      1.00000
     51      -9.8082      1.00000
     52      -9.8011      1.00000
     53      -9.5254      1.00000
     54      -9.4440      1.00000
     55      -9.4205      1.00000
     56      -9.1602      1.00000
     57      -9.0712      1.00000
     58      -8.9098      1.00000
     59      -8.3545      1.00000
     60      -7.9754      1.00000
     61      -7.9254      1.00000
     62      -7.8470      1.00000
     63      -7.7442      1.00000
     64      -7.4201      1.00000
     65      -7.3548      1.00000
     66      -7.1994      1.00000
     67      -6.9488      1.00000
     68      -6.9260      1.00000
     69      -6.6963      1.00000
     70      -5.6311      1.00000
     71      -5.6267      1.00000
     72      -3.9719      0.54259
     73      -1.3437      0.00000
     74      -1.2114      0.00000
     75      -1.1670      0.00000
     76      -1.0774      0.00000
     77      -0.9890      0.00000
     78      -0.8715      0.00000
     79      -0.5148      0.00000
     80      -0.3929      0.00000
     81      -0.3819      0.00000
     82      -0.1570      0.00000
     83      -0.1530      0.00000
     84      -0.0827      0.00000
     85       0.0220      0.00000
     86       0.0333      0.00000
     87       0.1664      0.00000
     88       0.2651      0.00000
     89       0.5193      0.00000
     90       0.6188      0.00000
     91       0.6368      0.00000
     92       0.7537      0.00000
     93       0.7733      0.00000
     94       0.8062      0.00000
     95       1.0536      0.00000
     96       1.0661      0.00000
     97       1.0875      0.00000
     98       1.2135      0.00000
     99       1.2420      0.00000
    100       1.2449      0.00000
    101       1.2903      0.00000
    102       1.3387      0.00000
    103       1.3806      0.00000
    104       1.4000      0.00000
    105       1.4186      0.00000
    106       1.4436      0.00000
    107       1.5099      0.00000
    108       1.7417      0.00000

 k-point     2 :       0.2500   -0.1250    0.0000
  band No.  band energies     occupation 
      1     -29.9111      1.00000
      2     -27.3058      1.00000
      3     -23.5747      1.00000
      4     -23.3275      1.00000
      5     -23.1869      1.00000
      6     -22.8280      1.00000
      7     -22.5323      1.00000
      8     -22.2431      1.00000
      9     -21.9836      1.00000
     10     -21.7992      1.00000
     11     -21.2532      1.00000
     12     -21.1857      1.00000
     13     -20.9653      1.00000
     14     -20.8554      1.00000
     15     -20.6783      1.00000
     16     -20.6389      1.00000
     17     -20.5238      1.00000
     18     -19.3930      1.00000
     19     -18.0102      1.00000
     20     -15.5377      1.00000
     21     -15.5068      1.00000
     22     -14.7055      1.00000
     23     -14.6557      1.00000
     24     -14.3680      1.00000
     25     -14.0407      1.00000
     26     -13.9099      1.00000
     27     -13.6175      1.00000
     28     -13.1406      1.00000
     29     -12.9604      1.00000
     30     -12.7046      1.00000
     31     -12.5038      1.00000
     32     -12.3372      1.00000
     33     -12.1574      1.00000
     34     -12.1302      1.00000
     35     -11.8425      1.00000
     36     -11.7749      1.00000
     37     -11.5758      1.00000
     38     -11.4672      1.00000
     39     -11.4257      1.00000
     40     -11.3001      1.00000
     41     -11.2970      1.00000
     42     -10.9771      1.00000
     43     -10.8316      1.00000
     44     -10.7549      1.00000
     45     -10.5786      1.00000
     46     -10.5139      1.00000
     47     -10.3559      1.00000
     48     -10.2735      1.00000
     49     -10.0094      1.00000
     50      -9.8357      1.00000
     51      -9.8082      1.00000
     52      -9.8013      1.00000
     53      -9.5254      1.00000
     54      -9.4441      1.00000
     55      -9.4205      1.00000
     56      -9.1602      1.00000
     57      -9.0711      1.00000
     58      -8.9098      1.00000
     59      -8.3544      1.00000
     60      -7.9755      1.00000
     61      -7.9255      1.00000
     62      -7.8470      1.00000
     63      -7.7442      1.00000
     64      -7.4200      1.00000
     65      -7.3548      1.00000
     66      -7.1994      1.00000
     67      -6.9488      1.00000
     68      -6.9260      1.00000
     69      -6.6963      1.00000
     70      -5.6311      1.00000
     71      -5.6267      1.00000
     72      -3.9719      0.54262
     73      -1.3436      0.00000
     74      -1.2081      0.00000
     75      -1.1671      0.00000
     76      -1.0775      0.00000
     77      -0.9889      0.00000
     78      -0.8715      0.00000
     79      -0.5095      0.00000
     80      -0.3929      0.00000
     81      -0.3821      0.00000
     82      -0.1576      0.00000
     83      -0.1525      0.00000
     84      -0.0473      0.00000
     85       0.0126      0.00000
     86       0.0268      0.00000
     87       0.1671      0.00000
     88       0.2651      0.00000
     89       0.4747      0.00000
     90       0.5946      0.00000
     91       0.6676      0.00000
     92       0.7298      0.00000
     93       0.7587      0.00000
     94       0.8120      0.00000
     95       1.0625      0.00000
     96       1.0730      0.00000
     97       1.0843      0.00000
     98       1.1601      0.00000
     99       1.2211      0.00000
    100       1.2388      0.00000
    101       1.3205      0.00000
    102       1.3710      0.00000
    103       1.3820      0.00000
    104       1.4016      0.00000
    105       1.4161      0.00000
    106       1.4450      0.00000
    107       1.5124      0.00000
    108       1.7369      0.00000

 k-point     3 :       0.1250   -0.2500    0.0000
  band No.  band energies     occupation 
      1     -29.9111      1.00000
      2     -27.3058      1.00000
      3     -23.5747      1.00000
      4     -23.3274      1.00000
      5     -23.1869      1.00000
      6     -22.8280      1.00000
      7     -22.5323      1.00000
      8     -22.2431      1.00000
      9     -21.9836      1.00000
     10     -21.7992      1.00000
     11     -21.2532      1.00000
     12     -21.1857      1.00000
     13     -20.9653      1.00000
     14     -20.8554      1.00000
     15     -20.6783      1.00000
     16     -20.6389      1.00000
     17     -20.5238      1.00000
     18     -19.3930      1.00000
     19     -18.0102      1.00000
     20     -15.5377      1.00000
     21     -15.5068      1.00000
     22     -14.7055      1.00000
     23     -14.6557      1.00000
     24     -14.3680      1.00000
     25     -14.0407      1.00000
     26     -13.9099      1.00000
     27     -13.6175      1.00000
     28     -13.1406      1.00000
     29     -12.9604      1.00000
     30     -12.7046      1.00000
     31     -12.5038      1.00000
     32     -12.3372      1.00000
     33     -12.1574      1.00000
     34     -12.1302      1.00000
     35     -11.8425      1.00000
     36     -11.7749      1.00000
     37     -11.5759      1.00000
     38     -11.4672      1.00000
     39     -11.4257      1.00000
     40     -11.3001      1.00000
     41     -11.2970      1.00000
     42     -10.9771      1.00000
     43     -10.8316      1.00000
     44     -10.7549      1.00000
     45     -10.5786      1.00000
     46     -10.5139      1.00000
     47     -10.3559      1.00000
     48     -10.2735      1.00000
     49     -10.0094      1.00000
     50      -9.8357      1.00000
     51      -9.8082      1.00000
     52      -9.8013      1.00000
     53      -9.5254      1.00000
     54      -9.4441      1.00000
     55      -9.4205      1.00000
     56      -9.1602      1.00000
     57      -9.0711      1.00000
     58      -8.9098      1.00000
     59      -8.3544      1.00000
     60      -7.9755      1.00000
     61      -7.9255      1.00000
     62      -7.8470      1.00000
     63      -7.7442      1.00000
     64      -7.4200      1.00000
     65      -7.3548      1.00000
     66      -7.1994      1.00000
     67      -6.9488      1.00000
     68      -6.9260      1.00000
     69      -6.6963      1.00000
     70      -5.6311      1.00000
     71      -5.6267      1.00000
     72      -3.9719      0.54262
     73      -1.3436      0.00000
     74      -1.2081      0.00000
     75      -1.1671      0.00000
     76      -1.0775      0.00000
     77      -0.9889      0.00000
     78      -0.8715      0.00000
     79      -0.5095      0.00000
     80      -0.3929      0.00000
     81      -0.3821      0.00000
     82      -0.1576      0.00000
     83      -0.1525      0.00000
     84      -0.0473      0.00000
     85       0.0126      0.00000
     86       0.0268      0.00000
     87       0.1671      0.00000
     88       0.2651      0.00000
     89       0.4747      0.00000
     90       0.5946      0.00000
     91       0.6676      0.00000
     92       0.7297      0.00000
     93       0.7588      0.00000
     94       0.8120      0.00000
     95       1.0625      0.00000
     96       1.0732      0.00000
     97       1.0842      0.00000
     98       1.1599      0.00000
     99       1.2211      0.00000
    100       1.2388      0.00000
    101       1.3203      0.00000
    102       1.3710      0.00000
    103       1.3820      0.00000
    104       1.4017      0.00000
    105       1.4161      0.00000
    106       1.4450      0.00000
    107       1.5124      0.00000
    108       1.7372      0.00000

 k-point     4 :       0.3750    0.1250    0.0000
  band No.  band energies     occupation 
      1     -29.9111      1.00000
      2     -27.3056      1.00000
      3     -23.6068      1.00000
      4     -23.4078      1.00000
      5     -23.0961      1.00000
      6     -22.7549      1.00000
      7     -22.5123      1.00000
      8     -22.2394      1.00000
      9     -21.9174      1.00000
     10     -21.6906      1.00000
     11     -21.4601      1.00000
     12     -21.3707      1.00000
     13     -21.1318      1.00000
     14     -20.8911      1.00000
     15     -20.6390      1.00000
     16     -20.5098      1.00000
     17     -20.3377      1.00000
     18     -19.3930      1.00000
     19     -17.9909      1.00000
     20     -15.5773      1.00000
     21     -15.4140      1.00000
     22     -14.6248      1.00000
     23     -14.5504      1.00000
     24     -14.3013      1.00000
     25     -14.1909      1.00000
     26     -13.9213      1.00000
     27     -13.7545      1.00000
     28     -13.2877      1.00000
     29     -13.1232      1.00000
     30     -12.9976      1.00000
     31     -12.6860      1.00000
     32     -12.3739      1.00000
     33     -12.1406      1.00000
     34     -12.1003      1.00000
     35     -11.8424      1.00000
     36     -11.8123      1.00000
     37     -11.3000      1.00000
     38     -11.2970      1.00000
     39     -11.2240      1.00000
     40     -11.1750      1.00000
     41     -11.0144      1.00000
     42     -10.8934      1.00000
     43     -10.7666      1.00000
     44     -10.7290      1.00000
     45     -10.5441      1.00000
     46     -10.5143      1.00000
     47     -10.4113      1.00000
     48     -10.2418      1.00000
     49     -10.0698      1.00000
     50     -10.0438      1.00000
     51      -9.9595      1.00000
     52      -9.7646      1.00000
     53      -9.4437      1.00000
     54      -9.2881      1.00000
     55      -9.0372      1.00000
     56      -8.9806      1.00000
     57      -8.8283      1.00000
     58      -8.6714      1.00000
     59      -8.5130      1.00000
     60      -8.5080      1.00000
     61      -8.4006      1.00000
     62      -8.1215      1.00000
     63      -7.9985      1.00000
     64      -7.7705      1.00000
     65      -7.4838      1.00000
     66      -7.1648      1.00000
     67      -6.9125      1.00000
     68      -6.6143      1.00000
     69      -6.3609      1.00000
     70      -5.6311      1.00000
     71      -5.6267      1.00000
     72      -4.0335      0.96774
     73      -1.4122      0.00000
     74      -1.2863      0.00000
     75      -1.1552      0.00000
     76      -0.9087      0.00000
     77      -0.8695      0.00000
     78      -0.6644      0.00000
     79      -0.5672      0.00000
     80      -0.3539      0.00000
     81      -0.2540      0.00000
     82      -0.2103      0.00000
     83      -0.1734      0.00000
     84       0.0104      0.00000
     85       0.1575      0.00000
     86       0.1834      0.00000
     87       0.3238      0.00000
     88       0.3983      0.00000
     89       0.4384      0.00000
     90       0.4564      0.00000
     91       0.4690      0.00000
     92       0.5687      0.00000
     93       0.5909      0.00000
     94       0.7240      0.00000
     95       0.8067      0.00000
     96       0.8879      0.00000
     97       0.9281      0.00000
     98       1.0367      0.00000
     99       1.0681      0.00000
    100       1.0967      0.00000
    101       1.1543      0.00000
    102       1.1633      0.00000
    103       1.2372      0.00000
    104       1.3265      0.00000
    105       1.3861      0.00000
    106       1.5059      0.00000
    107       1.6160      0.00000
    108       1.6408      0.00000

 k-point     5 :       0.5000   -0.3750    0.0000
  band No.  band energies     occupation 
      1     -29.9111      1.00000
      2     -27.3056      1.00000
      3     -23.6068      1.00000
      4     -23.4078      1.00000
      5     -23.0961      1.00000
      6     -22.7549      1.00000
      7     -22.5123      1.00000
      8     -22.2394      1.00000
      9     -21.9174      1.00000
     10     -21.6906      1.00000
     11     -21.4601      1.00000
     12     -21.3707      1.00000
     13     -21.1319      1.00000
     14     -20.8910      1.00000
     15     -20.6390      1.00000
     16     -20.5098      1.00000
     17     -20.3377      1.00000
     18     -19.3930      1.00000
     19     -17.9909      1.00000
     20     -15.5773      1.00000
     21     -15.4140      1.00000
     22     -14.6248      1.00000
     23     -14.5504      1.00000
     24     -14.3013      1.00000
     25     -14.1909      1.00000
     26     -13.9213      1.00000
     27     -13.7545      1.00000
     28     -13.2876      1.00000
     29     -13.1232      1.00000
     30     -12.9976      1.00000
     31     -12.6859      1.00000
     32     -12.3739      1.00000
     33     -12.1405      1.00000
     34     -12.1003      1.00000
     35     -11.8424      1.00000
     36     -11.8123      1.00000
     37     -11.3001      1.00000
     38     -11.2970      1.00000
     39     -11.2240      1.00000
     40     -11.1751      1.00000
     41     -11.0144      1.00000
     42     -10.8931      1.00000
     43     -10.7666      1.00000
     44     -10.7291      1.00000
     45     -10.5442      1.00000
     46     -10.5143      1.00000
     47     -10.4113      1.00000
     48     -10.2418      1.00000
     49     -10.0699      1.00000
     50     -10.0438      1.00000
     51      -9.9594      1.00000
     52      -9.7647      1.00000
     53      -9.4437      1.00000
     54      -9.2881      1.00000
     55      -9.0371      1.00000
     56      -8.9806      1.00000
     57      -8.8282      1.00000
     58      -8.6714      1.00000
     59      -8.5130      1.00000
     60      -8.5080      1.00000
     61      -8.4006      1.00000
     62      -8.1215      1.00000
     63      -7.9985      1.00000
     64      -7.7706      1.00000
     65      -7.4838      1.00000
     66      -7.1647      1.00000
     67      -6.9125      1.00000
     68      -6.6143      1.00000
     69      -6.3610      1.00000
     70      -5.6311      1.00000
     71      -5.6266      1.00000
     72      -4.0335      0.96775
     73      -1.4122      0.00000
     74      -1.2864      0.00000
     75      -1.1552      0.00000
     76      -0.8925      0.00000
     77      -0.8696      0.00000
     78      -0.6458      0.00000
     79      -0.5671      0.00000
     80      -0.3535      0.00000
     81      -0.2458      0.00000
     82      -0.2231      0.00000
     83      -0.1810      0.00000
     84       0.0386      0.00000
     85       0.1576      0.00000
     86       0.1832      0.00000
     87       0.3220      0.00000
     88       0.3616      0.00000
     89       0.4003      0.00000
     90       0.4402      0.00000
     91       0.4717      0.00000
     92       0.5631      0.00000
     93       0.5738      0.00000
     94       0.7243      0.00000
     95       0.8059      0.00000
     96       0.8907      0.00000
     97       0.9296      0.00000
     98       1.0335      0.00000
     99       1.0644      0.00000
    100       1.0786      0.00000
    101       1.1231      0.00000
    102       1.1697      0.00000
    103       1.2328      0.00000
    104       1.3512      0.00000
    105       1.3820      0.00000
    106       1.4961      0.00000
    107       1.6143      0.00000
    108       1.6447      0.00000

 k-point     6 :       0.1250    0.5000    0.0000
  band No.  band energies     occupation 
      1     -29.9111      1.00000
      2     -27.3056      1.00000
      3     -23.6069      1.00000
      4     -23.4078      1.00000
      5     -23.0961      1.00000
      6     -22.7549      1.00000
      7     -22.5123      1.00000
      8     -22.2394      1.00000
      9     -21.9174      1.00000
     10     -21.6906      1.00000
     11     -21.4601      1.00000
     12     -21.3707      1.00000
     13     -21.1318      1.00000
     14     -20.8911      1.00000
     15     -20.6390      1.00000
     16     -20.5098      1.00000
     17     -20.3377      1.00000
     18     -19.3930      1.00000
     19     -17.9909      1.00000
     20     -15.5773      1.00000
     21     -15.4140      1.00000
     22     -14.6248      1.00000
     23     -14.5504      1.00000
     24     -14.3013      1.00000
     25     -14.1909      1.00000
     26     -13.9213      1.00000
     27     -13.7545      1.00000
     28     -13.2876      1.00000
     29     -13.1232      1.00000
     30     -12.9977      1.00000
     31     -12.6860      1.00000
     32     -12.3740      1.00000
     33     -12.1405      1.00000
     34     -12.1003      1.00000
     35     -11.8424      1.00000
     36     -11.8123      1.00000
     37     -11.3000      1.00000
     38     -11.2970      1.00000
     39     -11.2240      1.00000
     40     -11.1751      1.00000
     41     -11.0144      1.00000
     42     -10.8933      1.00000
     43     -10.7666      1.00000
     44     -10.7290      1.00000
     45     -10.5441      1.00000
     46     -10.5143      1.00000
     47     -10.4113      1.00000
     48     -10.2418      1.00000
     49     -10.0697      1.00000
     50     -10.0438      1.00000
     51      -9.9595      1.00000
     52      -9.7647      1.00000
     53      -9.4438      1.00000
     54      -9.2881      1.00000
     55      -9.0372      1.00000
     56      -8.9805      1.00000
     57      -8.8281      1.00000
     58      -8.6714      1.00000
     59      -8.5131      1.00000
     60      -8.5080      1.00000
     61      -8.4006      1.00000
     62      -8.1215      1.00000
     63      -7.9985      1.00000
     64      -7.7706      1.00000
     65      -7.4838      1.00000
     66      -7.1648      1.00000
     67      -6.9125      1.00000
     68      -6.6143      1.00000
     69      -6.3609      1.00000
     70      -5.6311      1.00000
     71      -5.6267      1.00000
     72      -4.0335      0.96775
     73      -1.4122      0.00000
     74      -1.2863      0.00000
     75      -1.1552      0.00000
     76      -0.9011      0.00000
     77      -0.8695      0.00000
     78      -0.6736      0.00000
     79      -0.5673      0.00000
     80      -0.3540      0.00000
     81      -0.2471      0.00000
     82      -0.2201      0.00000
     83      -0.1433      0.00000
     84      -0.0135      0.00000
     85       0.1567      0.00000
     86       0.1835      0.00000
     87       0.3240      0.00000
     88       0.3976      0.00000
     89       0.4325      0.00000
     90       0.4470      0.00000
     91       0.4916      0.00000
     92       0.5697      0.00000
     93       0.5869      0.00000
     94       0.7193      0.00000
     95       0.8061      0.00000
     96       0.8857      0.00000
     97       0.9326      0.00000
     98       1.0389      0.00000
     99       1.0644      0.00000
    100       1.0989      0.00000
    101       1.1222      0.00000
    102       1.1762      0.00000
    103       1.2355      0.00000
    104       1.3171      0.00000
    105       1.3783      0.00000
    106       1.4811      0.00000
    107       1.6186      0.00000
    108       1.6403      0.00000

 k-point     7 :      -0.1250   -0.3750    0.0000
  band No.  band energies     occupation 
      1     -29.9111      1.00000
[...]
 -0.001   0.000   0.000   1.586   0.000  -0.000  -0.385  -0.000
  0.024  -0.011   0.015   0.000   4.911  -0.005  -0.000  -1.479
 -0.006   0.002  -1.473  -0.000  -0.005   0.459   0.000   0.002
  0.000  -0.000  -0.000  -0.385  -0.000   0.000   0.095   0.000
 -0.010   0.004  -0.005  -0.000  -1.479   0.002   0.000   0.461
 total augmentation occupancy for first ion, spin component:           2
 -0.000   0.000  -0.000   0.000  -0.000   0.000  -0.000   0.000
  0.000  -0.000   0.000  -0.000   0.000  -0.000   0.000  -0.000
 -0.000   0.000  -0.000   0.000  -0.000  -0.000   0.000   0.000
  0.000  -0.000   0.000   0.000   0.000  -0.000  -0.000  -0.000
 -0.000   0.000  -0.000   0.000  -0.000   0.000  -0.000   0.000
  0.000  -0.000  -0.000  -0.000   0.000   0.000  -0.000  -0.000
 -0.000   0.000   0.000  -0.000  -0.000  -0.000   0.000   0.000
  0.000  -0.000   0.000  -0.000   0.000  -0.000   0.000   0.000


------------------------ aborting loop because EDIFF is reached ----------------------------------------


 


 total charge     
 
# of ion       s       p       d       tot
------------------------------------------
    1        0.739   1.413   0.000   2.152
    2        0.731   1.409   0.000   2.141
    3        0.731   1.409   0.000   2.141
    4        0.739   1.413   0.000   2.152
    5        0.732   1.390   0.000   2.122
    6        0.731   1.409   0.000   2.141
    7        0.731   1.409   0.000   2.141
    8        0.739   1.413   0.000   2.151
    9        0.739   1.413   0.000   2.151
   10        0.731   1.409   0.000   2.141
   11        0.731   1.409   0.000   2.141
   12        0.732   1.390   0.000   2.122
   13        0.739   1.413   0.000   2.151
   14        0.732   1.390   0.000   2.122
   15        0.739   1.413   0.000   2.152
   16        1.140   2.641   0.000   3.781
   17        1.219   2.776   0.000   3.996
   18        1.222   2.799   0.000   4.021
   19        1.219   2.776   0.000   3.996
   20        1.221   2.784   0.000   4.005
   21        1.219   2.776   0.000   3.996
   22        1.205   2.696   0.000   3.901
   23        1.205   2.696   0.000   3.901
   24        1.219   2.776   0.000   3.996
   25        1.222   2.788   0.000   4.010
   26        1.205   2.696   0.000   3.901
   27        1.222   2.799   0.000   4.021
   28        1.222   2.788   0.000   4.010
   29        1.222   2.788   0.000   4.010
   30        1.219   2.776   0.000   3.996
   31        1.219   2.776   0.000   3.996
   32        1.222   2.799   0.000   4.021
   33        1.595   3.291   0.000   4.887
   34        1.595   3.291   0.000   4.887
--------------------------------------------------
tot         34.833  74.616   0.000 109.450
 


 magnetization (x)
 
# of ion       s       p       d       tot
------------------------------------------
    1        0.000   0.000   0.000   0.000
    2       -0.000   0.000   0.000   0.000
    3       -0.000   0.000   0.000   0.000
    4        0.000   0.000   0.000   0.000
    5       -0.000   0.000   0.000   0.000
    6       -0.000   0.000   0.000   0.000
    7       -0.000   0.000   0.000   0.000
    8       -0.000   0.000   0.000   0.000
    9       -0.000   0.000   0.000   0.000
   10       -0.000   0.000   0.000   0.000
   11       -0.000   0.000   0.000   0.000
   12       -0.000   0.000   0.000   0.000
   13       -0.000   0.000   0.000   0.000
   14       -0.000   0.000   0.000   0.000
   15        0.000   0.000   0.000   0.000
   16        0.000   0.004   0.000   0.004
   17        0.000   0.000   0.000   0.000
   18        0.000   0.000   0.000   0.000
   19        0.000   0.000   0.000   0.000
   20        0.000   0.000   0.000   0.000
   21        0.000   0.000   0.000   0.000
   22        0.000   0.001   0.000   0.001
   23        0.000   0.001   0.000   0.001
   24        0.000   0.000   0.000   0.000
   25        0.000   0.000   0.000   0.000
   26        0.000   0.001   0.000   0.001
   27        0.000   0.000   0.000   0.000
   28        0.000   0.000   0.000   0.000
   29        0.000   0.000   0.000   0.000
   30        0.000   0.000   0.000   0.000
   31        0.000   0.000   0.000   0.000
   32        0.000   0.000   0.000   0.000
   33        0.008   0.631   0.000   0.639
   34        0.008   0.631   0.000   0.639
--------------------------------------------------
tot          0.017   1.271   0.000   1.287
 
    CHARGE:  cpu time    6.5621: real time    8.7897
    FORLOC:  cpu time    0.2449: real time    4.5307
    FORNL :  cpu time   27.8516: real time   32.8847
    STRESS:  cpu time   83.6499: real time  101.0046
    FORCOR:  cpu time    1.0412: real time    7.0010
    FORHAR:  cpu time    0.1750: real time    7.2492
    MIXING:  cpu time    0.0206: real time    0.0207
    OFIELD:  cpu time    0.0023: real time    6.7861

  FORCE on cell =-STRESS in cart. coord.  units (eV):
  Direction    XX          YY          ZZ          XY          YZ          ZX
  --------------------------------------------------------------------------------------
  Alpha Z    34.98873    34.98873    34.98873
  Ewald   50514.26856 50112.17112-54770.30645     0.04974   -11.20198    -0.18210
  Hartree 50262.99284 50065.11146-49119.72066     0.04159   -10.75936    -0.17265
  E(xc)    -572.80150  -573.86963  -589.58193     0.00004    -0.00008    -0.00001
  Local  ************************102027.44715    -0.08990    21.96012     0.35454
  n-local  -293.59347  -293.07872  -305.60185    -0.00029    -0.00277    -0.00070
  augment    27.78364    30.98111    36.16681    -0.00011     0.00110    -0.00001
  Kinetic  2313.36830  2353.90280  2685.62249    -0.00144     0.00956     0.00019
  Fock        0.00000     0.00000     0.00000     0.00000     0.00000     0.00000
  -------------------------------------------------------------------------------------
  Total      -7.80834    -7.95637    -0.98572    -0.00039     0.00660    -0.00073
  in kB      -4.07404    -4.15128    -0.51430    -0.00020     0.00344    -0.00038
  external pressure =       -2.91 kB  Pullay stress =        0.00 kB


 VOLUME and BASIS-vectors are now :
 -----------------------------------------------------------------------------
  energy-cutoff  :      550.00
  volume of cell :     3070.74
      direct lattice vectors                 reciprocal lattice vectors
     5.024366704 -8.702497373  0.000000000     0.099515029 -0.057454772  0.000000000
     5.024366704  8.702497373  0.000000000     0.099515029  0.057454772  0.000000000
     0.000000000  0.000000000 35.114664386     0.000000000  0.000000000  0.028478131

  length of vectors
    10.048767154 10.048767154 35.114664386     0.114909929  0.114909929  0.028478131


 FORCES acting on ions
    electron-ion (+dipol)            ewald-force                    non-local-force                 convergence-correction
 -----------------------------------------------------------------------------------------------
   0.623E+01 0.332E+01 0.268E+02   -.626E+01 -.334E+01 -.260E+02   0.677E-01 0.392E-01 -.444E-03   -.102E-02 -.598E-03 0.237E-03
   0.173E+02 0.312E+01 0.309E+02   -.185E+02 -.246E+01 -.299E+02   0.114E+01 -.745E+00 -.222E-02   0.829E-03 0.172E-02 0.337E-03
   0.339E+01 -.175E+02 0.283E+02   -.461E+01 0.181E+02 -.274E+02   0.121E+01 -.611E+00 -.197E-02   -.805E-03 -.157E-02 0.290E-03
   0.104E-01 -.455E+01 0.249E+02   -.101E-01 0.466E+01 -.241E+02   0.495E-06 -.786E-01 -.379E-03   -.337E-06 0.102E-02 0.240E-03
   0.440E+01 -.853E-01 0.261E+02   -.415E+01 0.147E-01 -.253E+02   -.220E+00 0.127E+00 -.177E-03   0.474E-03 -.392E-03 0.224E-03
   0.140E+02 0.122E+02 0.341E+02   -.139E+02 -.136E+02 -.330E+02   -.774E-01 0.136E+01 -.219E-02   0.177E-02 -.127E-03 0.340E-03
   -.342E+01 -.175E+02 0.283E+02   0.463E+01 0.181E+02 -.274E+02   -.121E+01 -.611E+00 -.199E-02   0.806E-03 -.157E-02 0.290E-03
   -.367E+01 -.204E+01 0.254E+02   0.390E+01 0.217E+01 -.245E+02   -.196E+00 -.113E+00 -.524E-03   0.501E-03 0.287E-03 0.240E-03
   -.136E-01 0.695E+01 0.276E+02   0.132E-01 -.713E+01 -.267E+02   0.129E-05 0.226E+00 -.528E-03   0.286E-06 -.671E-03 0.216E-03
   -.141E+02 0.122E+02 0.340E+02   0.140E+02 -.135E+02 -.330E+02   0.774E-01 0.136E+01 -.226E-02   -.176E-02 -.121E-03 0.337E-03
   -.173E+02 0.314E+01 0.308E+02   0.185E+02 -.248E+01 -.298E+02   -.114E+01 -.745E+00 -.230E-02   -.834E-03 0.171E-02 0.334E-03
   0.394E-01 0.284E+01 0.258E+02   -.381E-01 -.261E+01 -.250E+02   0.254E-05 -.253E+00 -.183E-03   -.153E-05 0.676E-03 0.235E-03
   0.370E+01 -.207E+01 0.254E+02   -.392E+01 0.220E+01 -.246E+02   0.196E+00 -.113E+00 -.535E-03   -.502E-03 0.289E-03 0.240E-03
   -.440E+01 -.130E+00 0.261E+02   0.414E+01 0.585E-01 -.253E+02   0.220E+00 0.127E+00 -.172E-03   -.474E-03 -.391E-03 0.224E-03
   -.618E+01 0.330E+01 0.268E+02   0.620E+01 -.332E+01 -.259E+02   -.677E-01 0.392E-01 -.431E-03   0.102E-02 -.597E-03 0.237E-03
   -.878E-01 -.554E+01 0.620E+02   0.857E-01 0.537E+01 -.600E+02   -.293E-03 0.328E-03 -.133E+00   0.134E-04 0.736E-03 -.169E-04
   0.132E+02 0.786E+00 0.461E+02   -.137E+02 -.103E+01 -.446E+02   0.630E+00 0.188E+00 0.150E-02   -.213E-02 0.211E-03 0.331E-03
   0.206E+02 -.139E+02 0.470E+02   -.219E+02 0.146E+02 -.455E+02   0.127E+01 -.732E+00 0.571E-02   0.104E-02 -.411E-03 0.363E-03
   0.268E+01 -.946E+01 0.427E+02   -.285E+01 0.102E+02 -.414E+02   0.153E+00 -.640E+00 0.303E-03   -.104E-02 0.151E-02 0.378E-03
   0.478E-01 0.154E+01 0.421E+02   -.463E-01 -.148E+01 -.408E+02   -.615E-05 -.362E-03 0.209E-02   -.188E-05 -.856E-04 0.363E-03
   0.106E+02 0.110E+02 0.481E+02   -.110E+02 -.114E+02 -.465E+02   0.477E+00 0.452E+00 0.274E-02   -.106E-02 -.198E-02 0.282E-03
   0.704E+02 0.359E+02 0.615E+02   -.814E+02 -.423E+02 -.596E+02   0.110E+02 0.636E+01 0.411E-01   0.142E-01 0.857E-02 0.155E-03
   -.548E-01 -.829E+02 0.538E+02   0.533E-01 0.955E+02 -.522E+02   -.307E-05 -.127E+02 0.324E-01   0.314E-05 -.163E-01 0.323E-03
   -.268E+01 -.941E+01 0.427E+02   0.285E+01 0.101E+02 -.414E+02   -.153E+00 -.640E+00 0.290E-03   0.104E-02 0.151E-02 0.378E-03
   0.437E+00 0.331E+01 0.432E+02   -.368E+00 -.325E+01 -.419E+02   -.222E-01 0.123E-01 0.108E-02   0.267E-03 -.302E-03 0.332E-03
   -.705E+02 0.359E+02 0.614E+02   0.815E+02 -.423E+02 -.595E+02   -.110E+02 0.636E+01 0.414E-01   -.142E-01 0.858E-02 0.145E-03
   -.205E+02 -.138E+02 0.469E+02   0.218E+02 0.145E+02 -.454E+02   -.127E+01 -.732E+00 0.552E-02   -.105E-02 -.417E-03 0.363E-03
   0.428E-01 -.120E+01 0.419E+02   -.414E-01 0.122E+01 -.405E+02   -.232E-05 -.247E-01 0.698E-03   -.191E-05 0.386E-03 0.387E-03
   -.441E+00 0.326E+01 0.432E+02   0.373E+00 -.319E+01 -.419E+02   0.222E-01 0.123E-01 0.109E-02   -.267E-03 -.300E-03 0.332E-03
   -.106E+02 0.110E+02 0.479E+02   0.109E+02 -.113E+02 -.464E+02   -.477E+00 0.452E+00 0.258E-02   0.106E-02 -.197E-02 0.282E-03
   -.131E+02 0.790E+00 0.459E+02   0.136E+02 -.103E+01 -.445E+02   -.630E+00 0.188E+00 0.132E-02   0.212E-02 0.212E-03 0.331E-03
   -.604E-01 0.270E+02 0.551E+02   0.588E-01 -.284E+02 -.534E+02   -.191E-04 0.147E+01 0.814E-02   0.228E-05 0.826E-03 0.214E-03
   0.269E+03 0.125E+01 -.605E+03   -.314E+03 -.127E+01 0.607E+03   0.447E+02 0.159E-02 -.117E-01   0.615E-02 0.249E-03 -.391E-03
   -.269E+03 0.124E+01 -.605E+03   0.314E+03 -.126E+01 0.607E+03   -.447E+02 0.426E-03 -.117E-01   -.609E-02 0.238E-03 -.390E-03
 -----------------------------------------------------------------------------------------------
   -.124E-04 -.443E-02 0.165E-01   -.568E-13 -.121E-12 0.000E+00   -.265E-04 0.391E-02 -.246E-01   0.693E-04 0.934E-03 0.818E-02
 
 
 POSITION                                       TOTAL-FORCE (eV/Angst)
 -----------------------------------------------------------------------------------
      1.25719     -0.72458     17.55753         0.002850      0.001652      0.000051
      2.52374      1.46208     17.55770        -0.001655      0.003827     -0.003052
      3.76393      3.61018     17.55762        -0.003992     -0.000548     -0.002329
      5.02437      5.80040     17.55751         0.000001     -0.003427      0.000036
      2.51237     -2.90092     17.55750         0.000122     -0.000237      0.000348
      3.78417     -0.72103     17.55782         0.002530     -0.003511     -0.003314
      6.28481      3.61018     17.55762         0.003995     -0.000550     -0.002325
      3.77037     -5.07524     17.55746         0.008856      0.005021     -0.000051
      5.02437     -2.90322     17.55751        -0.000000     -0.010382      0.000169
      6.26457     -0.72103     17.55781        -0.002521     -0.003509     -0.003352
      7.52499      1.46208     17.55769         0.001656      0.003823     -0.003070
      5.02437     -7.25189     17.55748        -0.000001      0.000290      0.000414
      6.27837     -5.07524     17.55746        -0.008861      0.005024     -0.000059
      7.53637     -2.90092     17.55750        -0.000120     -0.000235      0.000348
      8.79155     -0.72458     17.55754        -0.002846      0.001652      0.000045
      5.02437      1.45040     17.55816         0.000003      0.000108      0.008969
      1.26974      0.72494     17.55736         0.007690      0.004075      0.000724
      2.50973      2.90224     17.55734         0.004807     -0.002746      0.002012
      3.77532      5.06476     17.55737         0.000387     -0.008555      0.000349
      5.02437      7.25207     17.55730         0.000003      0.000050      0.000263
      2.51879     -1.43846     17.55737         0.007281      0.004566      0.001051
      3.80157      0.74443     17.55680        -0.002842     -0.001522      0.001769
      5.02437      2.86239     17.55690         0.000003      0.003511      0.000270
      6.27342      5.06476     17.55737        -0.000386     -0.008557      0.000345
      3.76688     -3.62522     17.55728         0.002225     -0.001474      0.000149
      6.24718      0.74442     17.55677         0.002854     -0.001525      0.001645
      7.53901      2.90224     17.55734        -0.004807     -0.002749      0.002008
      5.02437     -5.80329     17.55728        -0.000001      0.002639      0.000099
      6.28186     -3.62522     17.55728        -0.002225     -0.001473      0.000144
      7.52995     -1.43846     17.55737        -0.007275      0.004563      0.001029
      8.77900      0.72494     17.55736        -0.007686      0.004072      0.000692
      5.02437     -1.45323     17.55739         0.000003      0.005561      0.003010
      4.36984      0.59266     21.98642        -0.011939     -0.000473     -0.003884
      5.64957      0.59270     21.98642         0.011891      0.001039     -0.004503
 -----------------------------------------------------------------------------------
    total drift:                                0.000030      0.000408      0.000061


--------------------------------------------------------------------------------------------------------



  FREE ENERGIE OF THE ION-ELECTRON SYSTEM (eV)
  ---------------------------------------------------
  free  energy   TOTEN  =      -286.37926453 eV

  energy  without entropy=     -286.34480810  energy(sigma->0) =     -286.36203631
 


--------------------------------------------------------------------------------------------------------


    POTLOK:  cpu time   15.6387: real time   27.8652


--------------------------------------------------------------------------------------------------------




--------------------------------------------------------------------------------------------------------


  
 reached required accuracy - stopping structural energy minimisation
     LOOP+:  cpu time 1931.5437: real time 2010.5445
    4ORBIT:  cpu time    0.0010: real time    2.8916
 


 total charge     
 
# of ion       s       p       d       tot
------------------------------------------
    1        0.739   1.413   0.000   2.152
    2        0.731   1.409   0.000   2.141
    3        0.731   1.409   0.000   2.141
    4        0.739   1.413   0.000   2.152
    5        0.732   1.390   0.000   2.122
    6        0.731   1.409   0.000   2.141
    7        0.731   1.409   0.000   2.141
    8        0.739   1.413   0.000   2.151
    9        0.739   1.413   0.000   2.151
   10        0.731   1.409   0.000   2.141
   11        0.731   1.409   0.000   2.141
   12        0.732   1.390   0.000   2.122
   13        0.739   1.413   0.000   2.151
   14        0.732   1.390   0.000   2.122
   15        0.739   1.413   0.000   2.152
   16        1.140   2.641   0.000   3.781
   17        1.219   2.776   0.000   3.996
   18        1.222   2.799   0.000   4.021
   19        1.219   2.776   0.000   3.996
   20        1.221   2.784   0.000   4.005
   21        1.219   2.776   0.000   3.996
   22        1.205   2.696   0.000   3.901
   23        1.205   2.696   0.000   3.901
   24        1.219   2.776   0.000   3.996
   25        1.222   2.788   0.000   4.010
   26        1.205   2.696   0.000   3.901
   27        1.222   2.799   0.000   4.021
   28        1.222   2.788   0.000   4.010
   29        1.222   2.788   0.000   4.010
   30        1.219   2.776   0.000   3.996
   31        1.219   2.776   0.000   3.996
   32        1.222   2.799   0.000   4.021
   33        1.595   3.291   0.000   4.887
   34        1.595   3.291   0.000   4.887
--------------------------------------------------
tot         34.833  74.616   0.000 109.450
 


 magnetization (x)
 
# of ion       s       p       d       tot
------------------------------------------
    1        0.000   0.000   0.000   0.000
    2       -0.000   0.000   0.000   0.000
    3       -0.000   0.000   0.000   0.000
    4        0.000   0.000   0.000   0.000
    5       -0.000   0.000   0.000   0.000
    6       -0.000   0.000   0.000   0.000
    7       -0.000   0.000   0.000   0.000
    8       -0.000   0.000   0.000   0.000
    9       -0.000   0.000   0.000   0.000
   10       -0.000   0.000   0.000   0.000
   11       -0.000   0.000   0.000   0.000
   12       -0.000   0.000   0.000   0.000
   13       -0.000   0.000   0.000   0.000
   14       -0.000   0.000   0.000   0.000
   15        0.000   0.000   0.000   0.000
   16        0.000   0.004   0.000   0.004
   17        0.000   0.000   0.000   0.000
   18        0.000   0.000   0.000   0.000
   19        0.000   0.000   0.000   0.000
   20        0.000   0.000   0.000   0.000
   21        0.000   0.000   0.000   0.000
   22        0.000   0.001   0.000   0.001
   23        0.000   0.001   0.000   0.001
   24        0.000   0.000   0.000   0.000
   25        0.000   0.000   0.000   0.000
   26        0.000   0.001   0.000   0.001
   27        0.000   0.000   0.000   0.000
   28        0.000   0.000   0.000   0.000
   29        0.000   0.000   0.000   0.000
   30        0.000   0.000   0.000   0.000
   31        0.000   0.000   0.000   0.000
   32        0.000   0.000   0.000   0.000
   33        0.008   0.631   0.000   0.639
   34        0.008   0.631   0.000   0.639
--------------------------------------------------
tot          0.017   1.271   0.000   1.287
 

 total amount of memory used by VASP MPI-rank0   454801. kBytes
=======================================================================

   base      :      30000. kBytes
   nonlr-proj:       6102. kBytes
   fftplans  :      29100. kBytes
   grid      :      77611. kBytes
   one-center:         36. kBytes
   wavefun   :     311952. kBytes
 
  
  
 General timing and accounting informations for this job:
 ========================================================
  
                  Total CPU time used (sec):     2599.110
                            User time (sec):     2290.271
                          System time (sec):      308.839
                         Elapsed time (sec):     4267.318
  
                   Maximum memory used (kb):      984036.
                   Average memory used (kb):           0.
  
                          Minor page faults:       628237
                          Major page faults:           25
                 Voluntary context switches:        50095
