 vasp.5.4.4.18Apr17-6-g9f103f2a35 (build May 01 2020 14:57:12) complex          
  
 executed on             LinuxIFC date 2021.06.03  21:29:46
 running on   24 total cores
 distrk:  each k-point on   24 cores,    1 groups
 distr:  one band on NCORES_PER_BAND=   6 cores,    4 groups


--------------------------------------------------------------------------------------------------------


 INCAR:
 POTCAR:    PAW_PBE B 06Sep2000                   
 POTCAR:    PAW_PBE N 08Apr2002                   
 POTCAR:    PAW_PBE O 08Apr2002                   
 POTCAR:    PAW_PBE B 06Sep2000                   
   VRHFIN =B: s2p1                                                              
   LEXCH  = PE                                                                  
   EATOM  =    71.1703 eV,    5.2309 Ry                                         
                                                                                
   TITEL  = PAW_PBE B 06Sep2000                                                 
   LULTRA =        F    use ultrasoft PP ?                                      
   IUNSCR =        1    unscreen: 0-lin 1-nonlin 2-no                           
   RPACOR =    1.200    partial core radius                                     
   POMASS =   10.811; ZVAL   =    3.000    mass and valenz                      
   RCORE  =    1.700    outmost cutoff radius                                   
   RWIGS  =    1.710; RWIGS  =    0.905    wigner-seitz radius (au A)           
   ENMAX  =  318.614; ENMIN  =  238.960 eV                                      
   ICORE  =        2    local potential                                         
   LCOR   =        T    correct aug charges                                     
   LPAW   =        T    paw PP                                                  
   EAUG   =  535.514                                                            
   DEXC   =    0.000                                                            
   RMAX   =    1.732    core radius for proj-oper                               
   RAUG   =    1.300    factor for augmentation sphere                          
   RDEP   =    1.757    radius for radial grids                                 
   RDEPT  =    1.436    core radius for aug-charge                              
                                                                                
   Atomic configuration                                                         
    4 entries                                                                   
     n  l   j            E        occ.                                          
     1  0  0.50      -180.5896   2.0000                                         
     2  0  0.50        -9.4431   2.0000                                         
     2  1  0.50        -3.6068   1.0000                                         
     3  2  1.50        -4.0817   0.0000                                         
   Description                                                                  
     l       E           TYP  RCUT    TYP  RCUT                                 
     0     -9.4430752     23  1.500                                             
     0      0.8675899     23  1.500                                             
     1     -3.6067955     23  1.700                                             
     1      6.1086146     23  1.700                                             
     2     -4.0817478      7  1.700                                             
  local pseudopotential read in
  partial core-charges read in
  partial kinetic energy density read in
  atomic valenz-charges read in
  non local Contribution for L=           0  read in
    real space projection operators read in
  non local Contribution for L=           0  read in
    real space projection operators read in
  non local Contribution for L=           1  read in
    real space projection operators read in
  non local Contribution for L=           1  read in
    real space projection operators read in
    PAW grid and wavefunctions read in
 
   number of l-projection  operators is LMAX  =           4
   number of lm-projection operators is LMMAX =           8
 
 POTCAR:    PAW_PBE N 08Apr2002                   
   VRHFIN =N: s2p3                                                              
   LEXCH  = PE                                                                  
   EATOM  =   264.5486 eV,   19.4438 Ry                                         
                                                                                
   TITEL  = PAW_PBE N 08Apr2002                                                 
   LULTRA =        F    use ultrasoft PP ?                                      
   IUNSCR =        1    unscreen: 0-lin 1-nonlin 2-no                           
   RPACOR =    1.200    partial core radius                                     
   POMASS =   14.001; ZVAL   =    5.000    mass and valenz                      
   RCORE  =    1.500    outmost cutoff radius                                   
   RWIGS  =    1.400; RWIGS  =    0.741    wigner-seitz radius (au A)           
   ENMAX  =  400.000; ENMIN  =  300.000 eV                                      
   ICORE  =        2    local potential                                         
   LCOR   =        T    correct aug charges                                     
   LPAW   =        T    paw PP                                                  
   EAUG   =  627.112                                                            
   DEXC   =    0.000                                                            
   RMAX   =    1.529    core radius for proj-oper                               
   RAUG   =    1.300    factor for augmentation sphere                          
   RDEP   =    1.514    radius for radial grids                                 
   RDEPT  =    1.338    core radius for aug-charge                              
                                                                                
   Atomic configuration                                                         
    4 entries                                                                   
     n  l   j            E        occ.                                          
     1  0  0.50      -384.7179   2.0000                                         
     2  0  0.50       -18.5828   2.0000                                         
     2  1  0.50        -7.0898   3.0000                                         
     3  2  1.50        -6.8029   0.0000                                         
   Description                                                                  
     l       E           TYP  RCUT    TYP  RCUT                                 
     0    -18.5828119     23  1.200                                             
     0    -13.5018863     23  1.200                                             
     1     -7.0897853     23  1.500                                             
     1      9.5240782     23  1.500                                             
     2     -6.8029130      7  1.500                                             
  local pseudopotential read in
  partial core-charges read in
  partial kinetic energy density read in
  atomic valenz-charges read in
  non local Contribution for L=           0  read in
    real space projection operators read in
  non local Contribution for L=           0  read in
    real space projection operators read in
  non local Contribution for L=           1  read in
    real space projection operators read in
  non local Contribution for L=           1  read in
    real space projection operators read in
    PAW grid and wavefunctions read in
 
   number of l-projection  operators is LMAX  =           4
   number of lm-projection operators is LMMAX =           8
 
 POTCAR:    PAW_PBE O 08Apr2002                   
   VRHFIN =O: s2p4                                                              
   LEXCH  = PE                                                                  
   EATOM  =   432.3788 eV,   31.7789 Ry                                         
                                                                                
   TITEL  = PAW_PBE O 08Apr2002                                                 
   LULTRA =        F    use ultrasoft PP ?                                      
   IUNSCR =        1    unscreen: 0-lin 1-nonlin 2-no                           
   RPACOR =    1.200    partial core radius                                     
   POMASS =   16.000; ZVAL   =    6.000    mass and valenz                      
   RCORE  =    1.520    outmost cutoff radius                                   
   RWIGS  =    1.550; RWIGS  =    0.820    wigner-seitz radius (au A)           
   ENMAX  =  400.000; ENMIN  =  300.000 eV                                      
   ICORE  =        2    local potential                                         
   LCOR   =        T    correct aug charges                                     
   LPAW   =        T    paw PP                                                  
   EAUG   =  605.392                                                            
   DEXC   =    0.000                                                            
   RMAX   =    1.553    core radius for proj-oper                               
   RAUG   =    1.300    factor for augmentation sphere                          
   RDEP   =    1.550    radius for radial grids                                 
   RDEPT  =    1.329    core radius for aug-charge                              
                                                                                
   Atomic configuration                                                         
    4 entries                                                                   
     n  l   j            E        occ.                                          
     1  0  0.50      -514.6923   2.0000                                         
     2  0  0.50       -23.9615   2.0000                                         
     2  1  0.50        -9.0305   4.0000                                         
     3  2  1.50        -9.5241   0.0000                                         
   Description                                                                  
     l       E           TYP  RCUT    TYP  RCUT                                 
     0    -23.9615318     23  1.200                                             
     0     -9.5240782     23  1.200                                             
     1     -9.0304911     23  1.520                                             
     1      8.1634956     23  1.520                                             
     2     -9.5240782      7  1.500                                             
  local pseudopotential read in
  partial core-charges read in
  partial kinetic energy density read in
  kinetic energy density of atom read in
  atomic valenz-charges read in
  non local Contribution for L=           0  read in
    real space projection operators read in
  non local Contribution for L=           0  read in
    real space projection operators read in
  non local Contribution for L=           1  read in
    real space projection operators read in
  non local Contribution for L=           1  read in
    real space projection operators read in
    PAW grid and wavefunctions read in
 
   number of l-projection  operators is LMAX  =           4
   number of lm-projection operators is LMMAX =           8
 
 Optimization of the real space projectors (new method)

 maximal supplied QI-value         = 22.11
 optimisation between [QCUT,QGAM] = [ 11.94, 23.88] = [ 39.92,159.67] Ry 
 Optimized for a Real-space Cutoff    1.18 Angstroem

   l    n(q)    QCUT    max X(q) W(low)/X(q) W(high)/X(q)  e(spline) 
   0      8    11.939    53.033    0.11E-03    0.34E-03    0.60E-07
   0      8    11.939    34.740    0.11E-03    0.34E-03    0.59E-07
   1      8    11.939    30.949    0.22E-03    0.20E-03    0.17E-06
   1      8    11.939    19.518    0.20E-03    0.18E-03    0.16E-06
 Optimization of the real space projectors (new method)

 maximal supplied QI-value         = 25.13
 optimisation between [QCUT,QGAM] = [ 11.81, 23.88] = [ 39.08,159.64] Ry 
 Optimized for a Real-space Cutoff    1.41 Angstroem

   l    n(q)    QCUT    max X(q) W(low)/X(q) W(high)/X(q)  e(spline) 
   0     10    11.813    79.467    0.48E-04    0.30E-04    0.67E-06
   0     10    11.813    66.151    0.47E-04    0.30E-04    0.67E-06
   1     10    11.813    20.169    0.11E-03    0.17E-03    0.11E-05
   1     10    11.813    14.454    0.11E-03    0.17E-03    0.11E-05
 Optimization of the real space projectors (new method)

 maximal supplied QI-value         = 24.76
 optimisation between [QCUT,QGAM] = [ 11.88, 24.01] = [ 39.54,161.47] Ry 
 Optimized for a Real-space Cutoff    1.18 Angstroem

   l    n(q)    QCUT    max X(q) W(low)/X(q) W(high)/X(q)  e(spline) 
   0      8    11.883    20.381    0.86E-04    0.11E-03    0.31E-06
   0      8    11.883    15.268    0.94E-04    0.12E-03    0.33E-06
   1      8    11.883     5.964    0.19E-03    0.18E-04    0.33E-06
   1      8    11.883     5.382    0.17E-03    0.20E-04    0.29E-06
  PAW_PBE B 06Sep2000                   :
 energy of atom  1       EATOM=  -71.1703
 kinetic energy error for atom=    0.0009 (will be added to EATOM!!)
  PAW_PBE N 08Apr2002                   :
 energy of atom  2       EATOM= -264.5486
 kinetic energy error for atom=    0.0116 (will be added to EATOM!!)
  PAW_PBE O 08Apr2002                   :
 energy of atom  3       EATOM= -432.3788
 kinetic energy error for atom=    0.0194 (will be added to EATOM!!)
 
 
 POSCAR: B N O                                   
  positions in direct lattice
  velocities in cartesian coordinates

 METAGGA = SCAN     LMAXTAU =  6    LMIXTAU =  F

 exchange correlation table for  LEXCH =        8
   RHO(1)=    0.500       N(1)  =     2000
   RHO(2)=  100.500       N(2)  =     4000
 


--------------------------------------------------------------------------------------------------------


 ion  position               nearest neighbor table
   1  0.167  0.083  0.500-  21 1.45  17 1.45  20 1.45
   2  0.167  0.335  0.500-  18 1.44  17 1.45  22 1.47
   3  0.167  0.582  0.500-  18 1.44  19 1.45  23 1.47
   4  0.167  0.833  0.500-  24 1.45  19 1.45  20 1.45
   5  0.417  0.083  0.500-  25 1.45  21 1.46  24 1.46
   6  0.418  0.335  0.500-  32 1.44  21 1.45  22 1.47
   7  0.418  0.833  0.500-  27 1.44  24 1.45  23 1.47
   8  0.667  0.084  0.500-  27 1.45  28 1.45  25 1.45
   9  0.667  0.333  0.500-  32 1.45  29 1.45  25 1.45
  10  0.665  0.582  0.500-  32 1.44  30 1.45  26 1.47
  11  0.665  0.833  0.500-  27 1.44  31 1.45  26 1.47
  12  0.917  0.083  0.500-  28 1.45  31 1.46  17 1.46
  13  0.916  0.333  0.500-  18 1.45  28 1.45  29 1.45
  14  0.917  0.583  0.500-  29 1.45  30 1.46  19 1.46
  15  0.917  0.833  0.500-  30 1.45  31 1.45  20 1.45
  16  0.417  0.583  0.500-  22 1.41  26 1.41  23 1.41
  17  0.085  0.168  0.500-   1 1.45   2 1.45  12 1.46
  18  0.083  0.417  0.500-   3 1.44   2 1.44  13 1.45
  19  0.085  0.667  0.500-   4 1.45   3 1.45  14 1.46
  20  0.083  0.917  0.500-   4 1.45  15 1.45   1 1.45
  21  0.333  0.168  0.500-   1 1.45   6 1.45   5 1.46
  22  0.336  0.421  0.500-  16 1.41   2 1.47   6 1.47
  23  0.336  0.664  0.500-  16 1.41   3 1.47   7 1.47
  24  0.333  0.915  0.500-   4 1.45   7 1.45   5 1.46
  25  0.583  0.167  0.500-   5 1.45   8 1.45   9 1.45
  26  0.579  0.664  0.500-  16 1.41  11 1.47  10 1.47
  27  0.583  0.917  0.500-   7 1.44  11 1.44   8 1.45
  28  0.833  0.167  0.500-  12 1.45   8 1.45  13 1.45
  29  0.833  0.417  0.500-  14 1.45  13 1.45   9 1.45
  30  0.832  0.667  0.500-  15 1.45  10 1.45  14 1.46
  31  0.832  0.915  0.500-  15 1.45  11 1.45  12 1.46
  32  0.583  0.417  0.500-   6 1.44  10 1.44   9 1.45
  33  0.401  0.469  0.626-  34 1.28
  34  0.528  0.596  0.626-  33 1.28
 
  LATTYP: Found a hexagonal cell.
 ALAT       =    10.0487671536
 C/A-ratio  =     3.4944251219
  
  Lattice vectors:
  
 A1 = (   5.0243667045,  -8.7024973730,   0.0000000000)
 A2 = (   5.0243667045,   8.7024973730,   0.0000000000)
 A3 = (   0.0000000000,   0.0000000000,  35.1146643856)


Analysis of symmetry for initial positions (statically):
=====================================================================
 Subroutine PRICEL returns:
 Original cell was already a primitive cell.
 

 Routine SETGRP: Setting up the symmetry group for a 
 hexagonal supercell.


 Subroutine GETGRP returns: Found  1 space group operations
 (whereof  1 operations were pure point group operations)
 out of a pool of 24 trial point group operations.


The static configuration has the point symmetry C_1 .


Analysis of symmetry for dynamics (positions and initial velocities):
=====================================================================
 Subroutine PRICEL returns:
 Original cell was already a primitive cell.
 

 Routine SETGRP: Setting up the symmetry group for a 
 hexagonal supercell.


 Subroutine GETGRP returns: Found  1 space group operations
 (whereof  1 operations were pure point group operations)
 out of a pool of 24 trial point group operations.


The dynamic configuration has the point symmetry C_1 .


Analysis of constrained symmetry for selective dynamics:
=====================================================================
 Subroutine PRICEL returns:
 Original cell was already a primitive cell.
 

 Routine SETGRP: Setting up the symmetry group for a 
 hexagonal supercell.


 Subroutine GETGRP returns: Found  1 space group operations
 (whereof  1 operations were pure point group operations)
 out of a pool of 24 trial point group operations.


The constrained configuration has the point symmetry C_1 .


Analysis of structural, dynamic, and magnetic symmetry:
=====================================================================
 Subroutine PRICEL returns:
 Original cell was already a primitive cell.
 

 Routine SETGRP: Setting up the symmetry group for a 
 hexagonal supercell.


 Subroutine GETGRP returns: Found  1 space group operations
 (whereof  1 operations were pure point group operations)
 out of a pool of 24 trial point group operations.


The magnetic configuration has the point symmetry C_1 .


 Subroutine INISYM returns: Found  1 space group operations
 (whereof  1 operations are pure point group operations),
 and found     1 'primitive' translations

 
 
 KPOINTS: K-Point Grid                            

Automatic generation of k-mesh.
Space group operators:
 irot       det(A)        alpha          n_x          n_y          n_z        tau_x        tau_y        tau_z
    1     1.000000     0.000000     1.000000     0.000000     0.000000     0.000000     0.000000     0.000000
 
 Subroutine IBZKPT returns following result:
 ===========================================
 
 Found     24 irreducible k-points:
 
 Following reciprocal coordinates:
            Coordinates               Weight
  0.125000  0.125000  0.000000     16.000000
  0.250000 -0.125000  0.000000     16.000000
  0.125000 -0.250000  0.000000     16.000000
  0.375000  0.125000  0.000000     16.000000
  0.500000 -0.375000  0.000000     16.000000
  0.125000  0.500000  0.000000     16.000000
 -0.125000 -0.375000  0.000000     16.000000
  0.375000  0.500000  0.000000     16.000000
  0.500000 -0.125000  0.000000     16.000000
 -0.375000  0.125000  0.000000     16.000000
 -0.250000  0.375000  0.000000     16.000000
  0.125000  0.250000  0.000000     16.000000
 -0.125000  0.375000  0.000000     16.000000
 -0.375000  0.250000  0.000000     16.000000
 -0.250000 -0.125000  0.000000     16.000000
 -0.125000  0.125000  0.000000     16.000000
  0.000000  0.125000  0.000000     16.000000
  0.125000  0.000000  0.000000     16.000000
  0.375000  0.375000  0.000000     16.000000
 -0.250000 -0.375000  0.000000     16.000000
  0.375000  0.250000  0.000000     16.000000
 -0.375000  0.375000  0.000000     16.000000
  0.000000  0.375000  0.000000     16.000000
  0.375000  0.000000  0.000000     16.000000
 
 Following cartesian coordinates:
            Coordinates               Weight
  0.024879  0.000000  0.000000     16.000000
  0.012439 -0.021546  0.000000     16.000000
 -0.012439 -0.021546  0.000000     16.000000
  0.049758 -0.014364  0.000000     16.000000
  0.012439 -0.050273  0.000000     16.000000
  0.062197  0.021546  0.000000     16.000000
 -0.049758 -0.014364  0.000000     16.000000
  0.087076  0.007182  0.000000     16.000000
  0.037318 -0.035909  0.000000     16.000000
 -0.024879  0.028727  0.000000     16.000000
  0.012439  0.035909  0.000000     16.000000
  0.037318  0.007182  0.000000     16.000000
  0.024879  0.028727  0.000000     16.000000
 -0.012439  0.035909  0.000000     16.000000
 -0.037318  0.007182  0.000000     16.000000
  0.000000  0.014364  0.000000     16.000000
  0.012439  0.007182  0.000000     16.000000
  0.012439 -0.007182  0.000000     16.000000
  0.074636  0.000000  0.000000     16.000000
 -0.062197 -0.007182  0.000000     16.000000
  0.062197 -0.007182  0.000000     16.000000
  0.000000  0.043091  0.000000     16.000000
  0.037318  0.021546  0.000000     16.000000
  0.037318 -0.021546  0.000000     16.000000
 


--------------------------------------------------------------------------------------------------------




 Dimension of arrays:
   k-points           NKPTS =     24   k-points in BZ     NKDIM =     24   number of bands    NBANDS=    108
   number of dos      NEDOS =   1200   number of ions     NIONS =     34
   non local maximal  LDIM  =      4   non local SUM 2l+1 LMDIM =      8
   total plane-waves  NPLWV = ******
   max r-space proj   IRMAX =   6598   max aug-charges    IRDMAX=   8974
   dimension x,y,z NGX =    80 NGY =   80 NGZ =  270
   dimension x,y,z NGXF=   160 NGYF=  160 NGZF=  540
   support grid    NGXF=   160 NGYF=  160 NGZF=  540
   ions per type =              15  17   2
   NGX,Y,Z   is equivalent  to a cutoff of  13.24, 13.24, 12.78 a.u.
   NGXF,Y,Z  is equivalent  to a cutoff of  26.47, 26.47, 25.57 a.u.

 SYSTEM =  SiC                                     
 POSCAR =  B N O                                   

 Startparameter for this run:
   NWRITE =      2    write-flag & timer
   PREC   = accura    normal or accurate (medium, high low for compatibility)
   ISTART =      0    job   : 0-new  1-cont  2-samecut
   ICHARG =      2    charge: 1-file 2-atom 10-const
   ISPIN  =      2    spin polarized calculation?
   LNONCOLLINEAR =      F non collinear calculations
   LSORBIT =      F    spin-orbit coupling
   INIWAV =      1    electr: 0-lowe 1-rand  2-diag
   LASPH  =      T    aspherical Exc in radial PAW
   METAGGA=      F    non-selfconsistent MetaGGA calc.

 Electronic Relaxation 1
   ENCUT  =  550.0 eV  40.42 Ry    6.36 a.u.  19.22 19.22 67.15*2*pi/ulx,y,z
   ENINI  =  550.0     initial cutoff
   ENAUG  =  627.1 eV  augmentation charge cutoff
   NELM   =    100;   NELMIN=  2; NELMDL= -5     # of ELM steps 
   EDIFF  = 0.1E-04   stopping-criterion for ELM
   LREAL  =      T    real-space projection
   NLSPLINE    = F    spline interpolate recip. space projectors
   LCOMPAT=      F    compatible to vasp.4.4
   GGA_COMPAT  = T    GGA compatible to vasp.4.4-vasp.4.6
   LMAXPAW     = -100 max onsite density
   LMAXMIX     =    2 max onsite mixed and CHGCAR
   VOSKOWN=      0    Vosko Wilk Nusair interpolation
   ROPT   =   -0.00025  -0.00025  -0.00025
 Ionic relaxation
   EDIFFG = -.2E-01   stopping-criterion for IOM
   NSW    =      0    number of steps for IOM
   NBLOCK =      1;   KBLOCK =      1    inner block; outer block 
   IBRION =     -1    ionic relax: 0-MD 1-quasi-New 2-CG
   NFREE  =      1    steps in history (QN), initial steepest desc. (CG)
   ISIF   =      2    stress and relaxation
   IWAVPR =     10    prediction:  0-non 1-charg 2-wave 3-comb
   ISYM   =      2    0-nonsym 1-usesym 2-fastsym
   LCORR  =      T    Harris-Foulkes like correction to forces

   POTIM  = 0.5000    time-step for ionic-motion
   TEIN   =    0.0    initial temperature
   TEBEG  =    0.0;   TEEND  =   0.0 temperature during run
   SMASS  =  -3.00    Nose mass-parameter (am)
   estimated Nose-frequenzy (Omega)   =  0.10E-29 period in steps =****** mass=  -0.231E-26a.u.
   SCALEE = 1.0000    scale energy and forces
   NPACO  =    256;   APACO  = 16.0  distance and # of slots for P.C.
   PSTRESS=    0.0 pullay stress

  Mass of Ions in am
   POMASS =  10.81 14.00 16.00
  Ionic Valenz
   ZVAL   =   3.00  5.00  6.00
  Atomic Wigner-Seitz radii
   RWIGS  =  -1.00 -1.00 -1.00
  virtual crystal weights 
   VCA    =   1.00  1.00  1.00
   NELECT =     142.0000    total number of electrons
   NUPDOWN=      -1.0000    fix difference up-down

 DOS related values:
   EMIN   =  10.00;   EMAX   =-10.00  energy-range for DOS
   EFERMI =   0.00
   ISMEAR =     0;   SIGMA  =   0.05  broadening in eV -4-tet -1-fermi 0-gaus

 Electronic relaxation 2 (details)
   IALGO  =     68    algorithm
   LDIAG  =      T    sub-space diagonalisation (order eigenvalues)
   LSUBROT=      F    optimize rotation matrix (better conditioning)
   TURBO    =      0    0=normal 1=particle mesh
   IRESTART =      0    0=no restart 2=restart with 2 vectors
   NREBOOT  =      0    no. of reboots
   NMIN     =      0    reboot dimension
   EREF     =   0.00    reference energy to select bands
   IMIX   =      4    mixing-type and parameters
     AMIX     =   0.40;   BMIX     =  1.00
     AMIX_MAG =   1.60;   BMIX_MAG =  1.00
     AMIN     =   0.10
     WC   =   100.;   INIMIX=   1;  MIXPRE=   1;  MAXMIX= -45

 Intra band minimization:
   WEIMIN = 0.0000     energy-eigenvalue tresh-hold
   EBREAK =  0.23E-07  absolut break condition
   DEPER  =   0.30     relativ break condition  

   TIME   =   0.40     timestep for ELM

  volume/ion in A,a.u.               =      90.32       609.48
  Fermi-wavevector in a.u.,A,eV,Ry     =   0.587611  1.110423  4.697906  0.345286
  Thomas-Fermi vector in A             =   1.634552
 
 Write flags
   LWAVE        =      F    write WAVECAR
   LDOWNSAMPLE  =      F    k-point downsampling of WAVECAR
   LCHARG       =      T    write CHGCAR
   LVTOT        =      F    write LOCPOT, total local potential
   LVHAR        =      T    write LOCPOT, Hartree potential only
   LELF         =      F    write electronic localiz. function (ELF)
   LORBIT       =     11    0 simple, 1 ext, 2 COOP (PROOUT), +10 PAW based schemes


 Dipole corrections
   LMONO  =      F    monopole corrections only (constant potential shift)
   LDIPOL =      F    correct potential (dipole corrections)
   IDIPOL =      0    1-x, 2-y, 3-z, 4-all directions 
   EPSILON=  1.0000000 bulk dielectric constant

 Exchange correlation treatment:
   GGA     =    --    GGA type
   LEXCH   =     8    internal setting for exchange type
   VOSKOWN=      0    Vosko Wilk Nusair interpolation
   LHFCALC =     F    Hartree Fock is set to
   LHFONE  =     F    Hartree Fock one center treatment
   AEXX    =    0.0000 exact exchange contribution

 Linear response parameters
   LEPSILON=     F    determine dielectric tensor
   LRPA    =     F    only Hartree local field effects (RPA)
   LNABLA  =     F    use nabla operator in PAW spheres
   LVEL    =     F    velocity operator in full k-point grid
   LINTERFAST=   F  fast interpolation
   KINTER  =     0    interpolate to denser k-point grid
   CSHIFT  =0.1000    complex shift for real part using Kramers Kronig
   OMEGAMAX=  -1.0    maximum frequency
   DEG_THRESHOLD= 0.2000000E-02 threshold for treating states as degnerate
   RTIME   =   -0.100 relaxation time in fs
  (WPLASMAI=    0.000 imaginary part of plasma frequency in eV, 0.658/RTIME)
   DFIELD  = 0.0000000 0.0000000 0.0000000 field for delta impulse in time
 
 Orbital magnetization related:
   ORBITALMAG=     F  switch on orbital magnetization
   LCHIMAG   =     F  perturbation theory with respect to B field
   DQ        =  0.001000  dq finite difference perturbation B field
   LLRAUG    =     F  two centre corrections for induced B field

 Solvation model:
   LSOL    =     T         switch on solvation model
   EB_K    = 78.400000     relative permittivity of the bulk solvent
   SIGMA_K =  0.600000     width of the dielectric cavity
   NC_K    =  0.002500     cutoff charge density
   TAU     =  0.000000     cavity surface tension
   LAMBDA_D_K    =  3.040000     Debye length in Angstroms
   LRHOB     =     F     write boundcharge  density
   LRHOION     =     F     write ioniccharge density



--------------------------------------------------------------------------------------------------------


 Static calculation
 charge density and potential will be updated during run
 spin polarized calculation
 RMM-DIIS sequential band-by-band and
  variant of blocked Davidson during initial phase
 perform sub-space diagonalisation
    before iterative eigenvector-optimisation
 modified Broyden-mixing scheme, WC =      100.0
 initial mixing is a Kerker type mixing with AMIX =  0.4000 and BMIX =      1.0000
 Hartree-type preconditioning will be used
 using additional bands           37
 real space projection scheme for non local part
 use partial core corrections
 calculate Harris-corrections to forces 
   (improved forces if not selfconsistent)
 use gradient corrections 
 use of overlap-Matrix (Vanderbilt PP)
 Gauss-broadening in eV      SIGMA  =   0.05


--------------------------------------------------------------------------------------------------------


  energy-cutoff  :      550.00
  volume of cell :     3070.74
      direct lattice vectors                 reciprocal lattice vectors
     5.024366704 -8.702497373  0.000000000     0.099515029 -0.057454772  0.000000000
     5.024366704  8.702497373  0.000000000     0.099515029  0.057454772  0.000000000
     0.000000000  0.000000000 35.114664386     0.000000000  0.000000000  0.028478131

  length of vectors
    10.048767154 10.048767154 35.114664386     0.114909929  0.114909929  0.028478131


 
 k-points in units of 2pi/SCALE and weight: K-Point Grid                            
   0.02487876  0.00000000  0.00000000       0.042
   0.01243938 -0.02154554  0.00000000       0.042
  -0.01243938 -0.02154554  0.00000000       0.042
   0.04975751 -0.01436369  0.00000000       0.042
   0.01243938 -0.05027293  0.00000000       0.042
   0.06219689  0.02154554  0.00000000       0.042
  -0.04975751 -0.01436369  0.00000000       0.042
   0.08707565  0.00718185  0.00000000       0.042
   0.03731814 -0.03590923  0.00000000       0.042
  -0.02487876  0.02872739  0.00000000       0.042
   0.01243938  0.03590923  0.00000000       0.042
   0.03731814  0.00718185  0.00000000       0.042
   0.02487876  0.02872739  0.00000000       0.042
  -0.01243938  0.03590923  0.00000000       0.042
  -0.03731814  0.00718185  0.00000000       0.042
   0.00000000  0.01436369  0.00000000       0.042
   0.01243938  0.00718185  0.00000000       0.042
   0.01243938 -0.00718185  0.00000000       0.042
   0.07463627  0.00000000  0.00000000       0.042
  -0.06219689 -0.00718185  0.00000000       0.042
   0.06219689 -0.00718185  0.00000000       0.042
   0.00000000  0.04309108  0.00000000       0.042
   0.03731814  0.02154554  0.00000000       0.042
   0.03731814 -0.02154554  0.00000000       0.042
 
 k-points in reciprocal lattice and weights: K-Point Grid                            
   0.12500000  0.12500000  0.00000000       0.042
   0.25000000 -0.12500000  0.00000000       0.042
   0.12500000 -0.25000000  0.00000000       0.042
   0.37500000  0.12500000  0.00000000       0.042
   0.50000000 -0.37500000  0.00000000       0.042
   0.12500000  0.50000000  0.00000000       0.042
  -0.12500000 -0.37500000  0.00000000       0.042
   0.37500000  0.50000000  0.00000000       0.042
   0.50000000 -0.12500000  0.00000000       0.042
  -0.37500000  0.12500000  0.00000000       0.042
  -0.25000000  0.37500000  0.00000000       0.042
   0.12500000  0.25000000  0.00000000       0.042
  -0.12500000  0.37500000  0.00000000       0.042
  -0.37500000  0.25000000  0.00000000       0.042
  -0.25000000 -0.12500000  0.00000000       0.042
  -0.12500000  0.12500000  0.00000000       0.042
   0.00000000  0.12500000  0.00000000       0.042
   0.12500000  0.00000000  0.00000000       0.042
   0.37500000  0.37500000  0.00000000       0.042
  -0.25000000 -0.37500000  0.00000000       0.042
   0.37500000  0.25000000  0.00000000       0.042
  -0.37500000  0.37500000  0.00000000       0.042
   0.00000000  0.37500000  0.00000000       0.042
   0.37500000  0.00000000  0.00000000       0.042
 
 position of ions in fractional coordinates (direct lattice) 
   0.16673972  0.08347833  0.50000576
   0.16714683  0.33515412  0.50001057
   0.16714569  0.58199017  0.50000810
   0.16673939  0.83326115  0.50000497
   0.41669006  0.08334663  0.50000484
   0.41800829  0.33515515  0.50001390
   0.41801032  0.83285479  0.50000807
   0.66680548  0.08361216  0.50000362
   0.66680420  0.33319635  0.50000493
   0.66484545  0.58199236  0.50001361
   0.66484649  0.83285364  0.50001021
   0.91665579  0.08334486  0.50000418
   0.91638838  0.33319506  0.50000358
   0.91665394  0.58331046  0.50000486
   0.91652226  0.83326087  0.50000578
   0.41666803  0.58333237  0.50002358
   0.08470695  0.16800985  0.50000070
   0.08300815  0.41650340  0.50000021
   0.08470692  0.66669579  0.50000116
   0.08333413  0.91666643  0.49999896
   0.33330370  0.16801050  0.50000106
   0.33554209  0.42108369  0.49998472
   0.33554249  0.66445796  0.49998767
   0.33330474  0.91529362  0.50000115
   0.58314715  0.16657478  0.49999847
   0.57891766  0.66445886  0.49998412
   0.58349709  0.91699230  0.50000029
   0.83342669  0.16657384  0.49999841
   0.83342576  0.41685339  0.49999846
   0.83199009  0.66669684  0.50000112
   0.83199079  0.91529370  0.50000073
   0.58349519  0.41650538  0.50000167
   0.40081379  0.46891583  0.62613222
   0.52816373  0.59627012  0.62613211
 
 position of ions in cartesian coordinates  (Angst):
   1.25718724 -0.72458202 17.55753428
   2.52374419  1.46208301 17.55770332
   3.76393328  3.61018295 17.55761648
   5.02436942  5.80040391 17.55750680
   2.51236770 -2.90092034 17.55750217
   3.78416933 -0.72102919 17.55782023
   6.28480505  3.61018291 17.55761574
   3.77037339 -5.07523828 17.55745929
   5.02436947 -2.90322143 17.55750532
   6.26457039 -0.72102880 17.55781016
   7.52499469  1.46208179 17.55769070
   5.02436995 -7.25188615 17.55747898
   6.27836545 -5.07523830 17.55745788
   7.53637122 -2.90092076 17.55750284
   8.79155207 -0.72458206 17.55753509
   5.02436870  1.45039594 17.55816018
   1.26974189  0.72494325 17.55735686
   2.50972921  2.90224153 17.55733952
   3.77532277  5.06475660 17.55737280
   5.02436951  7.25207215 17.55729567
   2.51878638 -1.43846366 17.55736948
   3.80156534  0.74442554 17.55679558
   5.02436897  2.86238600 17.55689939
   6.27341600  5.06475668 17.55737241
   3.76687788 -3.62521993 17.55727853
   6.24717961  0.74442202 17.55677473
   7.53900895  2.90224122 17.55734235
   5.02436939 -5.80328522 17.55727640
   6.28186090 -3.62521993 17.55727811
   7.52995274 -1.43846410 17.55737137
   8.77899801  0.72494328 17.55735778
   5.02436952 -1.45322839 17.55739096
   4.36984053  0.59265780 21.98642266
   5.64956801  0.59269566 21.98641884
 


--------------------------------------------------------------------------------------------------------


 k-point  1 :   0.1250 0.1250 0.0000  plane waves:   89921
 k-point  2 :   0.2500-0.1250 0.0000  plane waves:   89921
 k-point  3 :   0.1250-0.2500 0.0000  plane waves:   89921
 k-point  4 :   0.3750 0.1250 0.0000  plane waves:   89970
 k-point  5 :   0.5000-0.3750 0.0000  plane waves:   89970
 k-point  6 :   0.1250 0.5000 0.0000  plane waves:   89970
 k-point  7 :  -0.1250-0.3750 0.0000  plane waves:   89970
 k-point  8 :   0.3750 0.5000 0.0000  plane waves:   89970
 k-point  9 :   0.5000-0.1250 0.0000  plane waves:   89970
 k-point 10 :  -0.3750 0.1250 0.0000  plane waves:   89943
 k-point 11 :  -0.2500 0.3750 0.0000  plane waves:   89943
 k-point 12 :   0.1250 0.2500 0.0000  plane waves:   89943
 k-point 13 :  -0.1250 0.3750 0.0000  plane waves:   89943
 k-point 14 :  -0.3750 0.2500 0.0000  plane waves:   89943
 k-point 15 :  -0.2500-0.1250 0.0000  plane waves:   89943
 k-point 16 :  -0.1250 0.1250 0.0000  plane waves:   89893
 k-point 17 :   0.0000 0.1250 0.0000  plane waves:   89893
 k-point 18 :   0.1250 0.0000 0.0000  plane waves:   89893
 k-point 19 :   0.3750 0.3750 0.0000  plane waves:   89957
 k-point 20 :  -0.2500-0.3750 0.0000  plane waves:   89957
 k-point 21 :   0.3750 0.2500 0.0000  plane waves:   89957
 k-point 22 :  -0.3750 0.3750 0.0000  plane waves:   89980
 k-point 23 :   0.0000 0.3750 0.0000  plane waves:   89980
 k-point 24 :   0.3750 0.0000 0.0000  plane waves:   89980

 maximum and minimum number of plane-waves per node :     15033    14959

 maximum number of plane-waves:     89980
 maximum index in each direction: 
   IXMAX=   19   IYMAX=   19   IZMAX=   67
   IXMIN=  -19   IYMIN=  -19   IZMIN=  -67


 real space projection operators:
  total allocation   :      10721.50 KBytes
  max/ min on nodes  :       1867.06       1740.19


 parallel 3D FFT for wavefunctions:
    minimum data exchange during FFTs selected (reduces bandwidth)
 parallel 3D FFT for charge:
    minimum data exchange during FFTs selected (reduces bandwidth)


 total amount of memory used by VASP MPI-rank0   483867. kBytes
=======================================================================

   base      :      30000. kBytes
   nonlr-proj:       6102. kBytes
   fftplans  :      29100. kBytes
   grid      :     106677. kBytes
   one-center:         36. kBytes
   wavefun   :     311952. kBytes
 
     INWAV:  cpu time    0.0001: real time    0.0003
 Broyden mixing: mesh for mixing (old mesh)
   NGX = 39   NGY = 39   NGZ =135
  (NGX  =160   NGY  =160   NGZ  =540)
  gives a total of 205335 points

 initial charge density was supplied:
 charge density of overlapping atoms calculated
 number of electron     142.0000000 magnetization      34.0000000
 keeping initial charge density in first step


--------------------------------------------------------------------------------------------------------


 Maximum index for non-local projection operator         1235
 Maximum index for augmentation-charges          480 (set IRDMAX)


--------------------------------------------------------------------------------------------------------


 First call to EWALD:  gamma=   0.122
 Maximum number of real-space cells 4x 4x 1
 Maximum number of reciprocal cells 2x 2x 6

    FEWALD:  cpu time    0.0582: real time    0.0559


--------------------------------------- Iteration      1(   1)  ---------------------------------------


    POTLOK:  cpu time   24.0617: real time   24.2988
    SETDIJ:  cpu time    0.8830: real time    0.7337
     EDDAV:  cpu time  785.1857: real time  393.8261
       DOS:  cpu time    0.0522: real time    0.0463
    --------------------------------------------
      LOOP:  cpu time  810.1826: real time  418.9049

 eigenvalue-minimisations  : 12528
 total energy-change (2. order) : 0.1354308E+04  (-0.4767399E+04)
 number of electron     142.0000000 magnetization      34.0000000
 augmentation part      142.0000000 magnetization      34.0000000

 Free energy of the ion-electron system (eV)
  ---------------------------------------------------
  alpha Z        PSCENC =        34.98872654
  Ewald energy   TEWEN  =     45856.14030092
  -Hartree energ DENC   =    -50674.51858618
  -exchange      EXHF   =         0.00000000
  -V(xc)+E(xc)   XCENC  =       587.99763885
  PAW double counting   =      4720.84919856    -4779.24096723
  entropy T*S    EENTRO =        -0.02681844
  eigenvalues    EBANDS =      -967.92066604
  atomic energy  EATOM  =      6429.38789286
  Solvation  Ediel_sol  =       146.65167568
  ---------------------------------------------------
  free energy    TOTEN  =      1354.30839551 eV

  energy without entropy =     1354.33521396  energy(sigma->0) =     1354.32180473


--------------------------------------------------------------------------------------------------------




--------------------------------------- Iteration      1(   2)  ---------------------------------------


     EDDAV:  cpu time  944.0787: real time  474.0068
       DOS:  cpu time    0.0173: real time    0.0121
    --------------------------------------------
      LOOP:  cpu time  944.0960: real time  474.0189

 eigenvalue-minimisations  : 16736
 total energy-change (2. order) :-0.1335922E+04  (-0.1214193E+04)
 number of electron     142.0000000 magnetization      34.0000000
 augmentation part      142.0000000 magnetization      34.0000000

 Free energy of the ion-electron system (eV)
  ---------------------------------------------------
  alpha Z        PSCENC =        34.98872654
  Ewald energy   TEWEN  =     45856.14030092
  -Hartree energ DENC   =    -50674.51858618
  -exchange      EXHF   =         0.00000000
  -V(xc)+E(xc)   XCENC  =       587.99763885
  PAW double counting   =      4720.84919856    -4779.24096723
  entropy T*S    EENTRO =        -0.00395387
  eigenvalues    EBANDS =     -2303.86589595
  atomic energy  EATOM  =      6429.38789286
  Solvation  Ediel_sol  =       146.65167568
  ---------------------------------------------------
  free energy    TOTEN  =        18.38603017 eV

  energy without entropy =       18.38998404  energy(sigma->0) =       18.38800710


--------------------------------------------------------------------------------------------------------




--------------------------------------- Iteration      1(   3)  ---------------------------------------


     EDDAV:  cpu time  816.0180: real time  409.8931
       DOS:  cpu time    0.0176: real time    0.0126
    --------------------------------------------
      LOOP:  cpu time  816.0355: real time  409.9058

 eigenvalue-minimisations  : 13344
 total energy-change (2. order) :-0.3715816E+03  (-0.3661361E+03)
 number of electron     142.0000000 magnetization      34.0000000
 augmentation part      142.0000000 magnetization      34.0000000

 Free energy of the ion-electron system (eV)
  ---------------------------------------------------
  alpha Z        PSCENC =        34.98872654
  Ewald energy   TEWEN  =     45856.14030092
  -Hartree energ DENC   =    -50674.51858618
  -exchange      EXHF   =         0.00000000
  -V(xc)+E(xc)   XCENC  =       587.99763885
  PAW double counting   =      4720.84919856    -4779.24096723
  entropy T*S    EENTRO =        -0.01594777
  eigenvalues    EBANDS =     -2675.43549282
  atomic energy  EATOM  =      6429.38789286
  Solvation  Ediel_sol  =       146.65167568
  ---------------------------------------------------
  free energy    TOTEN  =      -353.19556059 eV

  energy without entropy =     -353.17961282  energy(sigma->0) =     -353.18758671


--------------------------------------------------------------------------------------------------------




--------------------------------------- Iteration      1(   4)  ---------------------------------------


     EDDAV:  cpu time  814.8636: real time  409.1649
       DOS:  cpu time    0.0182: real time    0.0127
    --------------------------------------------
      LOOP:  cpu time  814.8819: real time  409.1776

 eigenvalue-minimisations  : 13320
 total energy-change (2. order) :-0.2170854E+02  (-0.2114608E+02)
 number of electron     142.0000000 magnetization      34.0000000
 augmentation part      142.0000000 magnetization      34.0000000

 Free energy of the ion-electron system (eV)
  ---------------------------------------------------
  alpha Z        PSCENC =        34.98872654
  Ewald energy   TEWEN  =     45856.14030092
  -Hartree energ DENC   =    -50674.51858618
  -exchange      EXHF   =         0.00000000
  -V(xc)+E(xc)   XCENC  =       587.99763885
  PAW double counting   =      4720.84919856    -4779.24096723
  entropy T*S    EENTRO =        -0.02708104
  eigenvalues    EBANDS =     -2697.13290005
  atomic energy  EATOM  =      6429.38789286
  Solvation  Ediel_sol  =       146.65167568
  ---------------------------------------------------
  free energy    TOTEN  =      -374.90410110 eV

  energy without entropy =     -374.87702006  energy(sigma->0) =     -374.89056058


--------------------------------------------------------------------------------------------------------




--------------------------------------- Iteration      1(   5)  ---------------------------------------


     EDDAV:  cpu time  825.3643: real time  414.2372
       DOS:  cpu time    0.0190: real time    0.0098
    CHARGE:  cpu time   67.0428: real time   66.5367
    MIXING:  cpu time    0.0890: real time    0.0679
    --------------------------------------------
      LOOP:  cpu time  892.5153: real time  480.8517

 eigenvalue-minimisations  : 13592
 total energy-change (2. order) :-0.4861025E+00  (-0.4812319E+00)
 number of electron     141.9999987 magnetization      32.4115786
 augmentation part        5.9545990 magnetization      30.9305933

 Broyden mixing:
  rms(total) = 0.40854E+01    rms(broyden)= 0.40847E+01
  rms(prec ) = 0.41489E+01
  weight for this iteration     100.00

 Free energy of the ion-electron system (eV)
  ---------------------------------------------------
  alpha Z        PSCENC =        34.98872654
  Ewald energy   TEWEN  =     45856.14030092
  -Hartree energ DENC   =    -50674.51858618
  -exchange      EXHF   =         0.00000000
  -V(xc)+E(xc)   XCENC  =       587.99763885
  PAW double counting   =      4720.84919856    -4779.24096723
  entropy T*S    EENTRO =        -0.02816661
  eigenvalues    EBANDS =     -2697.61791697
  atomic energy  EATOM  =      6429.38789286
  Solvation  Ediel_sol  =       146.65167568
  ---------------------------------------------------
  free energy    TOTEN  =      -375.39020359 eV

  energy without entropy =     -375.36203698  energy(sigma->0) =     -375.37612028


--------------------------------------------------------------------------------------------------------




--------------------------------------- Iteration      1(   6)  ---------------------------------------


    POTLOK:  cpu time   22.9844: real time   22.9533
    SETDIJ:  cpu time    0.8932: real time    0.6928
    EDDIAG:  cpu time  118.3014: real time   79.1404
  RMM-DIIS:  cpu time 1043.8434: real time  531.0321
    ORTHCH:  cpu time    1.5021: real time    0.7595
       DOS:  cpu time    0.0072: real time    0.0036
    CHARGE:  cpu time   67.0542: real time   66.5073
    MIXING:  cpu time    0.0610: real time    0.0419
    --------------------------------------------
      LOOP:  cpu time 1254.6471: real time  701.1311

 eigenvalue-minimisations  : 12635
 total energy-change (2. order) : 0.9555091E+02  (-0.1087716E+02)
 number of electron     141.9999986 magnetization      30.7340437
 augmentation part        5.4776253 magnetization      28.8142351

 Broyden mixing:
  rms(total) = 0.23337E+01    rms(broyden)= 0.23331E+01
  rms(prec ) = 0.23641E+01
  weight for this iteration     100.00

 eigenvalues of (default mixing * dielectric matrix)
  average eigenvalue GAMMA=   0.9556
  0.9556

 Free energy of the ion-electron system (eV)
  ---------------------------------------------------
  alpha Z        PSCENC =        34.98872654
  Ewald energy   TEWEN  =     45856.14030092
  -Hartree energ DENC   =    -50907.62874051
  -exchange      EXHF   =         0.00000000
  -V(xc)+E(xc)   XCENC  =       646.64182209
  PAW double counting   =      7992.19434848    -8053.36572630
  entropy T*S    EENTRO =        -0.00000000
  eigenvalues    EBANDS =     -2369.55621477
  atomic energy  EATOM  =      6429.38789286
  Solvation  Ediel_sol  =        91.35829799
  ---------------------------------------------------
  free energy    TOTEN  =      -279.83929270 eV

  energy without entropy =     -279.83929270  energy(sigma->0) =     -279.83929270


--------------------------------------------------------------------------------------------------------




--------------------------------------- Iteration      1(   7)  ---------------------------------------


    POTLOK:  cpu time   22.2769: real time   22.2112
    SETDIJ:  cpu time    0.8905: real time    0.6901
    EDDIAG:  cpu time  118.4702: real time   79.4237
  RMM-DIIS:  cpu time 1068.7086: real time  542.1153
    ORTHCH:  cpu time    1.5105: real time    0.7574
       DOS:  cpu time    0.0069: real time    0.0035
    CHARGE:  cpu time   67.2438: real time   66.6990
    MIXING:  cpu time    0.0390: real time    0.0198
    --------------------------------------------
      LOOP:  cpu time 1279.1466: real time  711.9201

 eigenvalue-minimisations  : 12951
 total energy-change (2. order) :-0.7980899E+01  (-0.2903199E+01)
 number of electron     141.9999988 magnetization      29.0142023
 augmentation part        5.1629990 magnetization      26.9926879

 Broyden mixing:
  rms(total) = 0.15147E+01    rms(broyden)= 0.15145E+01
  rms(prec ) = 0.15258E+01
  weight for this iteration     100.00

 eigenvalues of (default mixing * dielectric matrix)
  average eigenvalue GAMMA=   1.0483
  1.3091  0.7875

 Free energy of the ion-electron system (eV)
  ---------------------------------------------------
  alpha Z        PSCENC =        34.98872654
  Ewald energy   TEWEN  =     45856.14030092
  -Hartree energ DENC   =    -51071.75195998
  -exchange      EXHF   =         0.00000000
  -V(xc)+E(xc)   XCENC  =       649.77781177
  PAW double counting   =     11145.36986281   -11208.39518279
  entropy T*S    EENTRO =        -0.00000000
  eigenvalues    EBANDS =     -2180.63581071
  atomic energy  EATOM  =      6429.38789286
  Solvation  Ediel_sol  =        57.29816657
  ---------------------------------------------------
  free energy    TOTEN  =      -287.82019200 eV

  energy without entropy =     -287.82019200  energy(sigma->0) =     -287.82019200


--------------------------------------------------------------------------------------------------------




--------------------------------------- Iteration      1(   8)  ---------------------------------------


    POTLOK:  cpu time   21.9726: real time   21.8832
    SETDIJ:  cpu time    0.8818: real time    0.6814
    EDDIAG:  cpu time  118.3237: real time   79.0914
  RMM-DIIS:  cpu time 1084.7716: real time  550.3823
    ORTHCH:  cpu time    1.5396: real time    0.7884
       DOS:  cpu time    0.0092: real time    0.0046
    CHARGE:  cpu time   67.3335: real time   66.7892
    MIXING:  cpu time    0.0393: real time    0.0198
    --------------------------------------------
      LOOP:  cpu time 1294.8714: real time  719.6402

 eigenvalue-minimisations  : 13222
 total energy-change (2. order) :-0.5442048E+01  (-0.7449148E+00)
 number of electron     141.9999995 magnetization      28.6469275
 augmentation part        5.2955755 magnetization      28.2491952

 Broyden mixing:
  rms(total) = 0.19359E+01    rms(broyden)= 0.19349E+01
  rms(prec ) = 0.19946E+01
  weight for this iteration     100.00

 eigenvalues of (default mixing * dielectric matrix)
  average eigenvalue GAMMA=   0.7625
  1.3126  0.6620  0.3129

 Free energy of the ion-electron system (eV)
  ---------------------------------------------------
  alpha Z        PSCENC =        34.98872654
  Ewald energy   TEWEN  =     45856.14030092
  -Hartree energ DENC   =    -51154.15728629
  -exchange      EXHF   =         0.00000000
  -V(xc)+E(xc)   XCENC  =       650.20402854
  PAW double counting   =     13646.41514623   -13710.76779120
  entropy T*S    EENTRO =        -0.00002210
  eigenvalues    EBANDS =     -2079.79487038
  atomic energy  EATOM  =      6429.38789286
  Solvation  Ediel_sol  =        34.32163488
  ---------------------------------------------------
  free energy    TOTEN  =      -293.26223998 eV

  energy without entropy =     -293.26221788  energy(sigma->0) =     -293.26222893


--------------------------------------------------------------------------------------------------------




--------------------------------------- Iteration      1(   9)  ---------------------------------------


    POTLOK:  cpu time   21.8947: real time   21.8342
    SETDIJ:  cpu time    0.8823: real time    0.6907
    EDDIAG:  cpu time  118.2511: real time   79.1558
  RMM-DIIS:  cpu time 1112.0628: real time  564.3532
    ORTHCH:  cpu time    1.5065: real time    0.7558
       DOS:  cpu time    0.0105: real time    0.0052
    CHARGE:  cpu time   67.4806: real time   66.9357
    MIXING:  cpu time    0.0406: real time    0.0206
    --------------------------------------------
      LOOP:  cpu time 1322.1291: real time  733.7512

 eigenvalue-minimisations  : 13631
 total energy-change (2. order) :-0.2224406E+01  (-0.2979456E+00)
 number of electron     141.9999989 magnetization      25.7069233
 augmentation part        5.0215730 magnetization      23.5961744

 Broyden mixing:
  rms(total) = 0.11016E+01    rms(broyden)= 0.11006E+01
  rms(prec ) = 0.11083E+01
  weight for this iteration     100.00

 eigenvalues of (default mixing * dielectric matrix)
  average eigenvalue GAMMA=   1.0166
  1.6053  1.4661  0.7245  0.2705

 Free energy of the ion-electron system (eV)
  ---------------------------------------------------
  alpha Z        PSCENC =        34.98872654
  Ewald energy   TEWEN  =     45856.14030092
  -Hartree energ DENC   =    -51153.89012373
  -exchange      EXHF   =         0.00000000
  -V(xc)+E(xc)   XCENC  =       647.44233002
  PAW double counting   =     13949.52623173   -14014.05480204
  entropy T*S    EENTRO =        -0.00563270
  eigenvalues    EBANDS =     -2066.63324658
  atomic energy  EATOM  =      6429.38789286
  Solvation  Ediel_sol  =        21.61167680
  ---------------------------------------------------
  free energy    TOTEN  =      -295.48664618 eV

  energy without entropy =     -295.48101348  energy(sigma->0) =     -295.48382983


--------------------------------------------------------------------------------------------------------




--------------------------------------- Iteration      1(  10)  ---------------------------------------


    POTLOK:  cpu time   22.6848: real time   22.6003
    SETDIJ:  cpu time    0.8814: real time    0.6813
    EDDIAG:  cpu time  118.5347: real time   79.3177
  RMM-DIIS:  cpu time 1075.8650: real time  546.3145
    ORTHCH:  cpu time    1.5056: real time    0.7624
       DOS:  cpu time    0.0100: real time    0.0050
    CHARGE:  cpu time   67.1003: real time   66.5566
    MIXING:  cpu time    0.0449: real time    0.0228
    --------------------------------------------
      LOOP:  cpu time 1286.6267: real time  716.2606

 eigenvalue-minimisations  : 13129
 total energy-change (2. order) :-0.1575366E+02  (-0.1020035E+01)
 number of electron     141.9999989 magnetization      23.9909599
 augmentation part        5.0303636 magnetization      21.9836323

 Broyden mixing:
  rms(total) = 0.81348E+00    rms(broyden)= 0.81335E+00
  rms(prec ) = 0.82274E+00
  weight for this iteration     100.00

 eigenvalues of (default mixing * dielectric matrix)
  average eigenvalue GAMMA=   1.1222
  2.4979  1.3982  0.7059  0.7059  0.3030

 Free energy of the ion-electron system (eV)
  ---------------------------------------------------
  alpha Z        PSCENC =        34.98872654
  Ewald energy   TEWEN  =     45856.14030092
  -Hartree energ DENC   =    -51198.48151657
  -exchange      EXHF   =         0.00000000
  -V(xc)+E(xc)   XCENC  =       639.81990745
  PAW double counting   =     16401.41501278   -16466.55236117
  entropy T*S    EENTRO =        -0.00592411
  eigenvalues    EBANDS =     -1998.85295844
  atomic energy  EATOM  =      6429.38789286
  Solvation  Ediel_sol  =        -9.09939135
  ---------------------------------------------------
  free energy    TOTEN  =      -311.24031108 eV

  energy without entropy =     -311.23438697  energy(sigma->0) =     -311.23734902


--------------------------------------------------------------------------------------------------------




--------------------------------------- Iteration      1(  11)  ---------------------------------------


    POTLOK:  cpu time   21.9443: real time   21.8578
    SETDIJ:  cpu time    0.8824: real time    0.6820
    EDDIAG:  cpu time  118.3621: real time   79.1644
  RMM-DIIS:  cpu time 1095.8209: real time  555.9051
    ORTHCH:  cpu time    1.5107: real time    0.7574
       DOS:  cpu time    0.0104: real time    0.0052
    CHARGE:  cpu time   67.3012: real time   66.7555
    MIXING:  cpu time    0.0428: real time    0.0216
    --------------------------------------------
      LOOP:  cpu time 1305.8748: real time  725.1490

 eigenvalue-minimisations  : 13373
 total energy-change (2. order) :-0.6446896E+01  (-0.3218716E+00)
 number of electron     141.9999989 magnetization      21.9389354
 augmentation part        5.0067210 magnetization      19.8263971

 Broyden mixing:
  rms(total) = 0.66566E+00    rms(broyden)= 0.66562E+00
  rms(prec ) = 0.67253E+00
  weight for this iteration     100.00

 eigenvalues of (default mixing * dielectric matrix)
  average eigenvalue GAMMA=   1.1028
  2.4632  1.5917  0.2919  0.8132  0.8132  0.6433

 Free energy of the ion-electron system (eV)
  ---------------------------------------------------
  alpha Z        PSCENC =        34.98872654
  Ewald energy   TEWEN  =     45856.14030092
  -Hartree energ DENC   =    -51219.65549136
  -exchange      EXHF   =         0.00000000
  -V(xc)+E(xc)   XCENC  =       635.71401031
  PAW double counting   =     17016.08309665   -17081.27391250
  entropy T*S    EENTRO =        -0.01205080
  eigenvalues    EBANDS =     -1974.45786652
  atomic energy  EATOM  =      6429.38789286
  Solvation  Ediel_sol  =       -14.60191273
  ---------------------------------------------------
  free energy    TOTEN  =      -317.68720663 eV

  energy without entropy =     -317.67515583  energy(sigma->0) =     -317.68118123


--------------------------------------------------------------------------------------------------------




--------------------------------------- Iteration      1(  12)  ---------------------------------------


    POTLOK:  cpu time   21.7974: real time   21.7245
    SETDIJ:  cpu time    0.8827: real time    0.6824
    EDDIAG:  cpu time  118.5732: real time   79.3196
  RMM-DIIS:  cpu time 1074.5709: real time  545.2090
    ORTHCH:  cpu time    1.5084: real time    0.7570
       DOS:  cpu time    0.0099: real time    0.0049
    CHARGE:  cpu time   67.3933: real time   66.8498
    MIXING:  cpu time    0.0441: real time    0.0224
    --------------------------------------------
      LOOP:  cpu time 1284.7800: real time  714.5697

 eigenvalue-minimisations  : 13058
 total energy-change (2. order) :-0.5962932E+01  (-0.3685357E+00)
 number of electron     141.9999996 magnetization      18.2143505
 augmentation part        5.2103771 magnetization      18.0357785

 Broyden mixing:
  rms(total) = 0.15035E+01    rms(broyden)= 0.15024E+01
  rms(prec ) = 0.15645E+01
  weight for this iteration     100.00

 eigenvalues of (default mixing * dielectric matrix)
  average eigenvalue GAMMA=   1.1336
  2.5779  2.0154  0.2870  0.8979  0.8785  0.6391  0.6391

 Free energy of the ion-electron system (eV)
  ---------------------------------------------------
  alpha Z        PSCENC =        34.98872654
  Ewald energy   TEWEN  =     45856.14030092
  -Hartree energ DENC   =    -51221.79031663
  -exchange      EXHF   =         0.00000000
  -V(xc)+E(xc)   XCENC  =       631.66727610
  PAW double counting   =     16778.17579660   -16843.21601613
  entropy T*S    EENTRO =        -0.00224577
  eigenvalues    EBANDS =     -1982.13776491
  atomic energy  EATOM  =      6429.38789286
  Solvation  Ediel_sol  =        -6.86378828
  ---------------------------------------------------
  free energy    TOTEN  =      -323.65013872 eV

  energy without entropy =     -323.64789295  energy(sigma->0) =     -323.64901583


--------------------------------------------------------------------------------------------------------




--------------------------------------- Iteration      1(  13)  ---------------------------------------


    POTLOK:  cpu time   22.0491: real time   21.9753
    SETDIJ:  cpu time    0.8818: real time    0.6814
    EDDIAG:  cpu time  118.1550: real time   78.9468
  RMM-DIIS:  cpu time 1071.9259: real time  544.3471
    ORTHCH:  cpu time    1.5118: real time    0.8685
       DOS:  cpu time    0.0598: real time    0.0550
    CHARGE:  cpu time   67.0119: real time   66.7082
    MIXING:  cpu time    0.1035: real time    0.0819
    --------------------------------------------
      LOOP:  cpu time 1281.6987: real time  713.6643

 eigenvalue-minimisations  : 13021
 total energy-change (2. order) :-0.4423166E+01  (-0.4689658E+00)
 number of electron     141.9999990 magnetization      15.1673961
 augmentation part        4.9994437 magnetization      13.5101117

 Broyden mixing:
  rms(total) = 0.51497E+00    rms(broyden)= 0.51289E+00
  rms(prec ) = 0.52592E+00
  weight for this iteration     100.00

 eigenvalues of (default mixing * dielectric matrix)
  average eigenvalue GAMMA=   1.4070
  4.5695  2.2438  1.3576  0.8809  0.2864  0.7054  0.6061  0.6061

 Free energy of the ion-electron system (eV)
  ---------------------------------------------------
  alpha Z        PSCENC =        34.98872654
  Ewald energy   TEWEN  =     45856.14030092
  -Hartree energ DENC   =    -51205.28972931
  -exchange      EXHF   =         0.00000000
  -V(xc)+E(xc)   XCENC  =       626.75537583
  PAW double counting   =     16537.35009691   -16602.23934649
  entropy T*S    EENTRO =        -0.00000160
  eigenvalues    EBANDS =     -1999.08676836
  atomic energy  EATOM  =      6429.38789286
  Solvation  Ediel_sol  =        -6.07985250
  ---------------------------------------------------
  free energy    TOTEN  =      -328.07330519 eV

  energy without entropy =     -328.07330360  energy(sigma->0) =     -328.07330440


--------------------------------------------------------------------------------------------------------




--------------------------------------- Iteration      1(  14)  ---------------------------------------


    POTLOK:  cpu time   21.4479: real time   21.7156
    SETDIJ:  cpu time    0.8896: real time    0.9097
    EDDIAG:  cpu time  118.6592: real time   79.4499
  RMM-DIIS:  cpu time 1078.0753: real time  547.3971
    ORTHCH:  cpu time    1.5045: real time    0.7557
       DOS:  cpu time    0.0089: real time    0.0045
    CHARGE:  cpu time   67.4893: real time   66.9498
    MIXING:  cpu time    0.0478: real time    0.0242
    --------------------------------------------
      LOOP:  cpu time 1288.1226: real time  717.2064

 eigenvalue-minimisations  : 13144
 total energy-change (2. order) :-0.2415990E+01  (-0.1958382E+00)
 number of electron     141.9999990 magnetization      12.5048812
 augmentation part        4.9980713 magnetization      10.9106759

 Broyden mixing:
  rms(total) = 0.43057E+00    rms(broyden)= 0.43040E+00
  rms(prec ) = 0.44371E+00
  weight for this iteration     100.00

 eigenvalues of (default mixing * dielectric matrix)
  average eigenvalue GAMMA=   1.5918
  6.5405  2.3861  1.3722  0.8982  0.8982  0.2866  0.6702  0.6702  0.6037

 Free energy of the ion-electron system (eV)
  ---------------------------------------------------
  alpha Z        PSCENC =        34.98872654
  Ewald energy   TEWEN  =     45856.14030092
  -Hartree energ DENC   =    -51210.98294077
  -exchange      EXHF   =         0.00000000
  -V(xc)+E(xc)   XCENC  =       625.04153679
  PAW double counting   =     16506.05390929   -16570.87219658
  entropy T*S    EENTRO =        -0.00000026
  eigenvalues    EBANDS =     -2005.18974952
  atomic energy  EATOM  =      6429.38789286
  Solvation  Ediel_sol  =         4.94322558
  ---------------------------------------------------
  free energy    TOTEN  =      -330.48929514 eV

  energy without entropy =     -330.48929488  energy(sigma->0) =     -330.48929501


--------------------------------------------------------------------------------------------------------




--------------------------------------- Iteration      1(  15)  ---------------------------------------


    POTLOK:  cpu time   21.5081: real time   21.4221
    SETDIJ:  cpu time    0.8799: real time    0.6794
    EDDIAG:  cpu time  118.5133: real time   79.2835
  RMM-DIIS:  cpu time 1080.6005: real time  548.2557
    ORTHCH:  cpu time    1.5075: real time    0.7562
       DOS:  cpu time    0.0101: real time    0.0051
    CHARGE:  cpu time   67.2572: real time   66.7121
    MIXING:  cpu time    0.0498: real time    0.0252
    --------------------------------------------
      LOOP:  cpu time 1290.3265: real time  717.1393

 eigenvalue-minimisations  : 13192
 total energy-change (2. order) : 0.4599569E+00  (-0.8994154E-01)
 number of electron     141.9999993 magnetization      11.2599597
 augmentation part        5.1100141 magnetization      10.4253398

 Broyden mixing:
  rms(total) = 0.72727E+00    rms(broyden)= 0.72652E+00
  rms(prec ) = 0.75694E+00
  weight for this iteration     100.00

 eigenvalues of (default mixing * dielectric matrix)
  average eigenvalue GAMMA=   1.6090
  7.3592  2.4686  1.3136  1.0498  1.0498  0.2866  0.6620  0.6620  0.6630  0.5754

 Free energy of the ion-electron system (eV)
  ---------------------------------------------------
  alpha Z        PSCENC =        34.98872654
  Ewald energy   TEWEN  =     45856.14030092
  -Hartree energ DENC   =    -51219.77539454
  -exchange      EXHF   =         0.00000000
  -V(xc)+E(xc)   XCENC  =       625.30675215
  PAW double counting   =     16377.32393845   -16442.16812303
  entropy T*S    EENTRO =        -0.04836087
  eigenvalues    EBANDS =     -2010.82012528
  atomic energy  EATOM  =      6429.38789286
  Solvation  Ediel_sol  =        19.63505450
  ---------------------------------------------------
  free energy    TOTEN  =      -330.02933829 eV

  energy without entropy =     -329.98097741  energy(sigma->0) =     -330.00515785


--------------------------------------------------------------------------------------------------------




--------------------------------------- Iteration      1(  16)  ---------------------------------------


    POTLOK:  cpu time   21.7158: real time   21.6323
    SETDIJ:  cpu time    0.8802: real time    0.6801
    EDDIAG:  cpu time  118.4030: real time   79.1959
  RMM-DIIS:  cpu time 1097.6351: real time  557.1608
    ORTHCH:  cpu time    1.5087: real time    0.7566
       DOS:  cpu time    0.0096: real time    0.0048
    CHARGE:  cpu time   67.0176: real time   66.4760
    MIXING:  cpu time    0.0496: real time    0.0250
    --------------------------------------------
      LOOP:  cpu time 1307.2196: real time  725.9315

 eigenvalue-minimisations  : 13424
 total energy-change (2. order) : 0.8644525E+00  (-0.6355736E-01)
 number of electron     141.9999990 magnetization       9.1784987
 augmentation part        4.9975969 magnetization       7.6349664

 Broyden mixing:
  rms(total) = 0.37603E+00    rms(broyden)= 0.37507E+00
  rms(prec ) = 0.38914E+00
  weight for this iteration     100.00

 eigenvalues of (default mixing * dielectric matrix)
  average eigenvalue GAMMA=   1.7221
  8.6778  2.4344  2.0386  1.3183  0.8769  0.8769  0.2867  0.6408  0.6408  0.5762
  0.5762

 Free energy of the ion-electron system (eV)
  ---------------------------------------------------
  alpha Z        PSCENC =        34.98872654
  Ewald energy   TEWEN  =     45856.14030092
  -Hartree energ DENC   =    -51212.96350487
  -exchange      EXHF   =         0.00000000
  -V(xc)+E(xc)   XCENC  =       626.39046069
  PAW double counting   =     16296.20075825   -16361.09814800
  entropy T*S    EENTRO =        -0.00223697
  eigenvalues    EBANDS =     -2018.60542185
  atomic energy  EATOM  =      6429.38789286
  Solvation  Ediel_sol  =        20.39628665
  ---------------------------------------------------
  free energy    TOTEN  =      -329.16488578 eV

  energy without entropy =     -329.16264881  energy(sigma->0) =     -329.16376730


--------------------------------------------------------------------------------------------------------




--------------------------------------- Iteration      1(  17)  ---------------------------------------


    POTLOK:  cpu time   21.4769: real time   21.3920
    SETDIJ:  cpu time    0.8811: real time    0.6807
    EDDIAG:  cpu time  118.7160: real time   79.4716
  RMM-DIIS:  cpu time 1066.4053: real time  540.9544
    ORTHCH:  cpu time    1.5065: real time    0.7556
       DOS:  cpu time    0.0079: real time    0.0040
    CHARGE:  cpu time   67.4886: real time   66.9554
    MIXING:  cpu time    0.0511: real time    0.0259
    --------------------------------------------
      LOOP:  cpu time 1276.5333: real time  710.2396

 eigenvalue-minimisations  : 12902
 total energy-change (2. order) : 0.1358324E+01  (-0.4324374E-01)
 number of electron     141.9999990 magnetization       7.2772818
 augmentation part        4.9930969 magnetization       5.7493218

 Broyden mixing:
  rms(total) = 0.35931E+00    rms(broyden)= 0.35924E+00
  rms(prec ) = 0.37388E+00
  weight for this iteration     100.00

 eigenvalues of (default mixing * dielectric matrix)
  average eigenvalue GAMMA=   1.7987
  9.6851  2.7528  2.3691  1.3558  0.9760  0.9760  0.2866  0.6422  0.6422  0.6945
  0.6019  0.6019

 Free energy of the ion-electron system (eV)
  ---------------------------------------------------
  alpha Z        PSCENC =        34.98872654
  Ewald energy   TEWEN  =     45856.14030092
  -Hartree energ DENC   =    -51219.38887092
  -exchange      EXHF   =         0.00000000
  -V(xc)+E(xc)   XCENC  =       627.51600477
  PAW double counting   =     16318.32119373   -16383.37764635
  entropy T*S    EENTRO =        -0.00000002
  eigenvalues    EBANDS =     -2021.59449755
  atomic energy  EATOM  =      6429.38789286
  Solvation  Ediel_sol  =        30.20033470
  ---------------------------------------------------
  free energy    TOTEN  =      -327.80656130 eV

  energy without entropy =     -327.80656129  energy(sigma->0) =     -327.80656130


--------------------------------------------------------------------------------------------------------




--------------------------------------- Iteration      1(  18)  ---------------------------------------


    POTLOK:  cpu time   21.1297: real time   21.0471
    SETDIJ:  cpu time    0.8823: real time    0.6818
    EDDIAG:  cpu time  118.2760: real time   79.0401
  RMM-DIIS:  cpu time 1076.0627: real time  545.7437
    ORTHCH:  cpu time    1.5596: real time    0.7846
       DOS:  cpu time    0.0107: real time    0.0054
    CHARGE:  cpu time   66.9645: real time   66.4207
    MIXING:  cpu time    0.0529: real time    0.0267
    --------------------------------------------
      LOOP:  cpu time 1284.9384: real time  713.7500

 eigenvalue-minimisations  : 13061
 total energy-change (2. order) : 0.1867771E+01  (-0.2213583E-01)
 number of electron     141.9999990 magnetization       5.6294489
 augmentation part        4.9950691 magnetization       4.1173350

 Broyden mixing:
  rms(total) = 0.26998E+00    rms(broyden)= 0.26997E+00
  rms(prec ) = 0.28296E+00
  weight for this iteration     100.00

 eigenvalues of (default mixing * dielectric matrix)
  average eigenvalue GAMMA=   1.9519
 11.0290  3.9640  2.4002  1.5127  1.2011  0.9115  0.9115  0.2866  0.6547  0.6547
  0.6364  0.6059  0.6059

 Free energy of the ion-electron system (eV)
  ---------------------------------------------------
  alpha Z        PSCENC =        34.98872654
  Ewald energy   TEWEN  =     45856.14030092
  -Hartree energ DENC   =    -51225.53402753
  -exchange      EXHF   =         0.00000000
  -V(xc)+E(xc)   XCENC  =       629.20002893
  PAW double counting   =     16315.81643592   -16380.87996385
  entropy T*S    EENTRO =        -0.00342525
  eigenvalues    EBANDS =     -2023.59693480
  atomic energy  EATOM  =      6429.38789286
  Solvation  Ediel_sol  =        38.54217593
  ---------------------------------------------------
  free energy    TOTEN  =      -325.93879033 eV

  energy without entropy =     -325.93536508  energy(sigma->0) =     -325.93707770


--------------------------------------------------------------------------------------------------------




--------------------------------------- Iteration      1(  19)  ---------------------------------------


    POTLOK:  cpu time   21.0951: real time   21.0292
    SETDIJ:  cpu time    0.8794: real time    0.6789
    EDDIAG:  cpu time  118.4815: real time   79.2464
  RMM-DIIS:  cpu time 1053.0780: real time  534.1758
    ORTHCH:  cpu time    1.5079: real time    0.7563
       DOS:  cpu time    0.0103: real time    0.0052
    CHARGE:  cpu time   67.3359: real time   66.7905
    MIXING:  cpu time    0.0547: real time    0.0277
    --------------------------------------------
      LOOP:  cpu time 1262.4427: real time  702.7099

 eigenvalue-minimisations  : 12750
 total energy-change (2. order) : 0.1462396E+01  (-0.2336641E-01)
 number of electron     141.9999996 magnetization       4.9268421
 augmentation part        5.1873186 magnetization       4.9141937

 Broyden mixing:
  rms(total) = 0.13355E+01    rms(broyden)= 0.13343E+01
  rms(prec ) = 0.13997E+01
  weight for this iteration     100.00

 eigenvalues of (default mixing * dielectric matrix)
  average eigenvalue GAMMA=   1.8939
 11.3639  4.1801  2.4122  1.5899  1.3465  0.9158  0.9158  0.6284  0.6284  0.2867
  0.6804  0.6107  0.5784  0.3770

 Free energy of the ion-electron system (eV)
  ---------------------------------------------------
  alpha Z        PSCENC =        34.98872654
  Ewald energy   TEWEN  =     45856.14030092
  -Hartree energ DENC   =    -51234.34218740
  -exchange      EXHF   =         0.00000000
  -V(xc)+E(xc)   XCENC  =       630.90347846
  PAW double counting   =     16364.71568356   -16429.75499839
  entropy T*S    EENTRO =        -0.00724637
  eigenvalues    EBANDS =     -2022.62557852
  atomic energy  EATOM  =      6429.38789286
  Solvation  Ediel_sol  =        46.11753357
  ---------------------------------------------------
  free energy    TOTEN  =      -324.47639476 eV

  energy without entropy =     -324.46914840  energy(sigma->0) =     -324.47277158


--------------------------------------------------------------------------------------------------------




--------------------------------------- Iteration      1(  20)  ---------------------------------------


    POTLOK:  cpu time   21.2505: real time   21.1695
    SETDIJ:  cpu time    0.8818: real time    0.6817
    EDDIAG:  cpu time  118.5256: real time   79.2951
  RMM-DIIS:  cpu time 1071.8453: real time  543.6991
    ORTHCH:  cpu time    1.5101: real time    0.7572
       DOS:  cpu time    0.0106: real time    0.0053
    CHARGE:  cpu time   66.5217: real time   65.9789
    MIXING:  cpu time    0.0662: real time    0.0334
    --------------------------------------------
      LOOP:  cpu time 1280.6119: real time  711.6203

 eigenvalue-minimisations  : 12981
 total energy-change (2. order) : 0.1408451E+01  (-0.7727693E-01)
 number of electron     141.9999995 magnetization       4.9219947
 augmentation part        5.1502975 magnetization       4.7149488

 Broyden mixing:
  rms(total) = 0.99901E+00    rms(broyden)= 0.99884E+00
  rms(prec ) = 0.10447E+01
  weight for this iteration     100.00

 eigenvalues of (default mixing * dielectric matrix)
  average eigenvalue GAMMA=   1.7686
 11.3650  4.1801  2.4107  1.5921  1.3447  0.9144  0.9144  0.6287  0.6287  0.2867
  0.6800  0.6122  0.5773  0.3824  0.0124

 Free energy of the ion-electron system (eV)
  ---------------------------------------------------
  alpha Z        PSCENC =        34.98872654
  Ewald energy   TEWEN  =     45856.14030092
  -Hartree energ DENC   =    -51230.42555571
  -exchange      EXHF   =         0.00000000
  -V(xc)+E(xc)   XCENC  =       631.37468559
  PAW double counting   =     16391.87546798   -16456.90457016
  entropy T*S    EENTRO =        -0.03248237
  eigenvalues    EBANDS =     -2022.71799225
  atomic energy  EATOM  =      6429.38789286
  Solvation  Ediel_sol  =        43.24558250
  ---------------------------------------------------
  free energy    TOTEN  =      -323.06794409 eV

  energy without entropy =     -323.03546172  energy(sigma->0) =     -323.05170290


--------------------------------------------------------------------------------------------------------




--------------------------------------- Iteration      1(  21)  ---------------------------------------


    POTLOK:  cpu time   19.2776: real time   19.1956
    SETDIJ:  cpu time    0.8830: real time    0.6827
    EDDIAG:  cpu time  118.5023: real time   79.2519
  RMM-DIIS:  cpu time 1125.4947: real time  571.0129
    ORTHCH:  cpu time    1.5062: real time    0.7553
       DOS:  cpu time    0.0108: real time    0.0054
    CHARGE:  cpu time   67.5337: real time   67.0007
    MIXING:  cpu time    0.0588: real time    0.0297
    --------------------------------------------
      LOOP:  cpu time 1333.2670: real time  737.9343

 eigenvalue-minimisations  : 13884
 total energy-change (2. order) :-0.9829349E-01  (-0.8537957E-02)
 number of electron     141.9999994 magnetization       4.2508567
 augmentation part        5.1318960 magnetization       4.1515307

 Broyden mixing:
  rms(total) = 0.88949E+00    rms(broyden)= 0.88848E+00
  rms(prec ) = 0.92530E+00
  weight for this iteration     100.00

 eigenvalues of (default mixing * dielectric matrix)
  average eigenvalue GAMMA=   1.7458
 11.6990  4.3528  2.5578  1.4670  1.4670  0.9978  0.9978  0.2866  0.7037  0.5885
  0.5885  0.5768  0.5768  0.5336  0.5336  0.0048

 Free energy of the ion-electron system (eV)
  ---------------------------------------------------
  alpha Z        PSCENC =        34.98872654
  Ewald energy   TEWEN  =     45856.14030092
  -Hartree energ DENC   =    -51230.41048405
  -exchange      EXHF   =         0.00000000
  -V(xc)+E(xc)   XCENC  =       631.55149939
  PAW double counting   =     16392.53433121   -16457.56394945
  entropy T*S    EENTRO =        -0.03190752
  eigenvalues    EBANDS =     -2022.97743966
  atomic energy  EATOM  =      6429.38789286
  Solvation  Ediel_sol  =        43.21479217
  ---------------------------------------------------
  free energy    TOTEN  =      -323.16623758 eV

  energy without entropy =     -323.13433006  energy(sigma->0) =     -323.15028382


--------------------------------------------------------------------------------------------------------




--------------------------------------- Iteration      1(  22)  ---------------------------------------


    POTLOK:  cpu time   20.5765: real time   20.5008
    SETDIJ:  cpu time    0.8825: real time    0.6827
    EDDIAG:  cpu time  118.5712: real time   79.3141
  RMM-DIIS:  cpu time 1107.7445: real time  561.9081
    ORTHCH:  cpu time    1.5028: real time    0.7539
       DOS:  cpu time    0.0099: real time    0.0049
    CHARGE:  cpu time   67.9709: real time   67.4379
    MIXING:  cpu time    0.0612: real time    0.0310
    --------------------------------------------
      LOOP:  cpu time 1317.3195: real time  730.6333

 eigenvalue-minimisations  : 13627
 total energy-change (2. order) : 0.1832377E+00  (-0.1271365E-01)
 number of electron     141.9999993 magnetization       4.2626677
 augmentation part        5.1000530 magnetization       4.3989137

 Broyden mixing:
  rms(total) = 0.73801E+00    rms(broyden)= 0.73550E+00
  rms(prec ) = 0.75575E+00
  weight for this iteration     100.00

 eigenvalues of (default mixing * dielectric matrix)
  average eigenvalue GAMMA=   1.6686
 11.7426  4.4747  2.5464  1.4652  1.4652  0.9988  0.9988  0.6287  0.6287  0.2866
  0.6780  0.5922  0.5922  0.5453  0.5453  0.1722  0.0047

 Free energy of the ion-electron system (eV)
  ---------------------------------------------------
  alpha Z        PSCENC =        34.98872654
[...]
  4.479  -1.362   0.015  -0.001   0.025  -0.006   0.000  -0.011
 -1.362   0.441  -0.007   0.000  -0.012   0.003  -0.000   0.004
  0.015  -0.007   5.125   0.000   0.016  -1.590  -0.000  -0.006
 -0.001   0.000   0.000   1.667   0.000  -0.000  -0.441  -0.000
  0.025  -0.012   0.016   0.000   5.144  -0.006  -0.000  -1.597
 -0.006   0.003  -1.590  -0.000  -0.006   0.508   0.000   0.002
  0.000  -0.000  -0.000  -0.441  -0.000   0.000   0.118   0.000
 -0.011   0.004  -0.006  -0.000  -1.597   0.002   0.000   0.510
 total augmentation occupancy for first ion, spin component:           2
 -0.000   0.000  -0.000  -0.000  -0.000   0.000   0.000   0.000
  0.000  -0.000   0.000   0.000   0.000  -0.000  -0.000  -0.000
 -0.000   0.000  -0.000  -0.000   0.000   0.000   0.000  -0.000
 -0.000   0.000  -0.000  -0.001  -0.000   0.000   0.000   0.000
 -0.000   0.000   0.000  -0.000  -0.000  -0.000   0.000   0.000
  0.000  -0.000   0.000   0.000  -0.000  -0.000  -0.000   0.000
  0.000  -0.000   0.000   0.000   0.000  -0.000  -0.000  -0.000
  0.000  -0.000  -0.000   0.000   0.000   0.000  -0.000  -0.000


------------------------ aborting loop because EDIFF is reached ----------------------------------------


 


 total charge     
 
# of ion       s       p       d       tot
------------------------------------------
    1        0.743   1.394   0.000   2.136
    2        0.736   1.391   0.000   2.127
    3        0.736   1.391   0.000   2.127
    4        0.743   1.394   0.000   2.136
    5        0.736   1.370   0.000   2.106
    6        0.736   1.391   0.000   2.127
    7        0.736   1.391   0.000   2.127
    8        0.743   1.393   0.000   2.135
    9        0.743   1.393   0.000   2.135
   10        0.736   1.391   0.000   2.127
   11        0.736   1.391   0.000   2.127
   12        0.736   1.370   0.000   2.106
   13        0.743   1.393   0.000   2.135
   14        0.736   1.370   0.000   2.106
   15        0.743   1.394   0.000   2.136
   16        1.154   2.746   0.000   3.900
   17        1.235   2.813   0.000   4.048
   18        1.238   2.840   0.000   4.078
   19        1.235   2.813   0.000   4.048
   20        1.236   2.821   0.000   4.058
   21        1.235   2.813   0.000   4.048
   22        1.220   2.742   0.000   3.962
   23        1.220   2.742   0.000   3.962
   24        1.235   2.813   0.000   4.048
   25        1.238   2.826   0.000   4.063
   26        1.220   2.742   0.000   3.962
   27        1.238   2.840   0.000   4.078
   28        1.238   2.826   0.000   4.063
   29        1.238   2.826   0.000   4.063
   30        1.235   2.813   0.000   4.048
   31        1.235   2.813   0.000   4.048
   32        1.238   2.840   0.000   4.078
   33        1.603   3.193   0.000   4.795
   34        1.603   3.193   0.000   4.795
--------------------------------------------------
tot         35.169  74.872   0.000 110.041
 


 magnetization (x)
 
# of ion       s       p       d       tot
------------------------------------------
    1        0.000   0.001   0.000   0.001
    2        0.000   0.003   0.000   0.003
    3        0.000   0.003   0.000   0.003
    4        0.000   0.001   0.000   0.001
    5        0.000   0.000   0.000   0.001
    6        0.000   0.003   0.000   0.003
    7        0.000   0.003   0.000   0.003
    8        0.000   0.001   0.000   0.001
    9        0.000   0.001   0.000   0.001
   10        0.000   0.003   0.000   0.003
   11        0.000   0.003   0.000   0.003
   12        0.000   0.000   0.000   0.001
   13        0.000   0.001   0.000   0.001
   14        0.000   0.000   0.000   0.001
   15        0.000   0.001   0.000   0.001
   16       -0.004  -0.067   0.000  -0.071
   17       -0.000  -0.000   0.000  -0.000
   18       -0.000  -0.004   0.000  -0.005
   19       -0.000  -0.000   0.000  -0.000
   20       -0.000  -0.001   0.000  -0.001
   21       -0.000  -0.000   0.000  -0.000
   22       -0.001  -0.014   0.000  -0.015
   23       -0.001  -0.014   0.000  -0.015
   24       -0.000  -0.000   0.000  -0.000
   25       -0.000  -0.001   0.000  -0.001
   26       -0.001  -0.013   0.000  -0.015
   27       -0.000  -0.004   0.000  -0.005
   28       -0.000  -0.001   0.000  -0.001
   29       -0.000  -0.001   0.000  -0.001
   30       -0.000  -0.000   0.000  -0.000
   31       -0.000  -0.000   0.000  -0.000
   32       -0.001  -0.004   0.000  -0.005
   33        0.009   0.753   0.000   0.763
   34        0.009   0.753   0.000   0.762
--------------------------------------------------
tot          0.012   1.404   0.000   1.416
 
    CHARGE:  cpu time    6.5830: real time    6.5386
    FORLOC:  cpu time    0.2624: real time    0.1372
    FORNL :  cpu time   27.6972: real time   27.8164
    STRESS:  cpu time 1225.9800: real time 1220.5527
    FORCOR:  cpu time    1.5726: real time    1.5431
    FORHAR:  cpu time    0.1707: real time    0.2072
    MIXING:  cpu time    0.0898: real time    0.0975
    OFIELD:  cpu time    0.0004: real time    0.0244

  FORCE on cell =-STRESS in cart. coord.  units (eV):
  Direction    XX          YY          ZZ          XY          YZ          ZX
  --------------------------------------------------------------------------------------
  Alpha Z    34.98873    34.98873    34.98873
  Ewald   50514.26856 50112.17112-54770.30645     0.04974   -11.20198    -0.18210
  Hartree 50365.86090 50174.89771-49234.64647     0.04395   -12.09668    -0.18328
  E(xc)    -586.66549  -586.32884  -588.97084    -0.00011    -0.12278    -0.00000
  Local  ************************102138.73196    -0.09263    24.46637     0.36526
  n-local  -290.34368  -288.59159  -304.64074    -0.00050     0.38063    -0.00080
  augment    27.49952    30.34559    36.30945    -0.00047    -0.19695    -0.00002
  Kinetic  2316.28751  2353.42387  2690.72350    -0.00042    -1.26895     0.00042
  Fock        0.00000     0.00000     0.00000     0.00000     0.00000     0.00000
  -------------------------------------------------------------------------------------
  Total     -25.53085   -25.85488     2.18915    -0.00045    -0.04034    -0.00053
  in kB     -13.32085   -13.48992     1.14220    -0.00023    -0.02105    -0.00028
  external pressure =       -8.56 kB  Pullay stress =        0.00 kB


 VOLUME and BASIS-vectors are now :
 -----------------------------------------------------------------------------
  energy-cutoff  :      550.00
  volume of cell :     3070.74
      direct lattice vectors                 reciprocal lattice vectors
     5.024366704 -8.702497373  0.000000000     0.099515029 -0.057454772  0.000000000
     5.024366704  8.702497373  0.000000000     0.099515029  0.057454772  0.000000000
     0.000000000  0.000000000 35.114664386     0.000000000  0.000000000  0.028478131

  length of vectors
    10.048767154 10.048767154 35.114664386     0.114909929  0.114909929  0.028478131


 FORCES acting on ions
    electron-ion (+dipol)            ewald-force                    non-local-force                 convergence-correction
 -----------------------------------------------------------------------------------------------
   0.648E+01 0.347E+01 0.262E+02   -.626E+01 -.334E+01 -.260E+02   0.656E-01 0.380E-01 -.240E-03   -.220E+00 -.133E+00 0.693E+00
   0.186E+02 0.301E+01 0.302E+02   -.185E+02 -.246E+01 -.299E+02   0.111E+01 -.745E+00 -.160E-02   -.107E+01 0.755E-01 0.802E+00
   0.420E+01 -.186E+02 0.277E+02   -.461E+01 0.181E+02 -.274E+02   0.120E+01 -.590E+00 -.171E-02   -.667E+00 0.861E+00 0.733E+00
   0.102E-01 -.490E+01 0.243E+02   -.101E-01 0.466E+01 -.241E+02   -.165E-04 -.761E-01 -.259E-03   0.268E-03 0.323E+00 0.643E+00
   0.440E+01 -.143E+00 0.255E+02   -.415E+01 0.147E-01 -.253E+02   -.217E+00 0.125E+00 -.318E-04   0.263E-01 0.480E-01 0.674E+00
   0.145E+02 0.134E+02 0.333E+02   -.139E+02 -.136E+02 -.330E+02   -.896E-01 0.134E+01 -.120E-02   -.401E+00 -.992E+00 0.883E+00
   -.422E+01 -.185E+02 0.276E+02   0.463E+01 0.181E+02 -.274E+02   -.120E+01 -.590E+00 -.171E-02   0.666E+00 0.862E+00 0.732E+00
   -.395E+01 -.220E+01 0.247E+02   0.390E+01 0.217E+01 -.245E+02   -.195E+00 -.113E+00 -.393E-03   0.250E+00 0.146E+00 0.654E+00
   -.133E-01 0.720E+01 0.269E+02   0.132E-01 -.713E+01 -.267E+02   -.418E-05 0.225E+00 -.331E-03   -.347E-03 -.220E+00 0.711E+00
   -.145E+02 0.134E+02 0.332E+02   0.140E+02 -.135E+02 -.330E+02   0.895E-01 0.133E+01 -.131E-02   0.400E+00 -.993E+00 0.881E+00
   -.186E+02 0.303E+01 0.301E+02   0.185E+02 -.248E+01 -.298E+02   -.111E+01 -.745E+00 -.168E-02   0.107E+01 0.762E-01 0.799E+00
   0.385E-01 0.289E+01 0.252E+02   -.381E-01 -.261E+01 -.250E+02   -.249E-04 -.250E+00 -.419E-04   0.104E-02 -.271E-01 0.667E+00
   0.397E+01 -.223E+01 0.248E+02   -.392E+01 0.220E+01 -.246E+02   0.195E+00 -.113E+00 -.383E-03   -.250E+00 0.145E+00 0.655E+00
   -.440E+01 -.187E+00 0.255E+02   0.414E+01 0.585E-01 -.253E+02   0.217E+00 0.125E+00 -.268E-04   -.262E-01 0.469E-01 0.673E+00
   -.642E+01 0.345E+01 0.261E+02   0.620E+01 -.332E+01 -.259E+02   -.656E-01 0.380E-01 -.230E-03   0.222E+00 -.134E+00 0.692E+00
   -.854E-01 -.541E+01 0.606E+02   0.857E-01 0.537E+01 -.600E+02   0.104E-04 0.117E-03 -.159E+00   -.255E-02 -.146E+00 0.160E+01
   0.139E+02 0.949E+00 0.450E+02   -.137E+02 -.103E+01 -.446E+02   0.618E+00 0.162E+00 0.120E-02   -.720E+00 -.160E+00 0.119E+01
   0.217E+02 -.145E+02 0.459E+02   -.219E+02 0.146E+02 -.455E+02   0.126E+01 -.728E+00 0.552E-02   -.110E+01 0.580E+00 0.121E+01
   0.298E+01 -.102E+02 0.417E+02   -.285E+01 0.102E+02 -.414E+02   0.169E+00 -.617E+00 -.339E-03   -.305E+00 0.765E+00 0.110E+01
   0.467E-01 0.150E+01 0.411E+02   -.463E-01 -.148E+01 -.408E+02   -.213E-04 -.244E-03 0.155E-02   0.126E-02 0.408E-01 0.108E+01
   0.110E+02 0.116E+02 0.469E+02   -.110E+02 -.114E+02 -.465E+02   0.450E+00 0.454E+00 0.281E-02   -.415E+00 -.541E+00 0.124E+01
   0.729E+02 0.374E+02 0.601E+02   -.814E+02 -.423E+02 -.596E+02   0.106E+02 0.613E+01 0.406E-01   -.267E+01 -.166E+01 0.157E+01
   -.563E-01 -.858E+02 0.526E+02   0.533E-01 0.955E+02 -.522E+02   0.233E-02 -.123E+02 0.293E-01   -.149E-02 0.304E+01 0.137E+01
   -.298E+01 -.102E+02 0.417E+02   0.285E+01 0.101E+02 -.414E+02   -.169E+00 -.616E+00 -.350E-03   0.305E+00 0.767E+00 0.110E+01
   0.339E+00 0.328E+01 0.422E+02   -.368E+00 -.325E+01 -.419E+02   -.859E-02 0.455E-02 0.509E-03   0.101E+00 0.320E-01 0.111E+01
   -.730E+02 0.374E+02 0.599E+02   0.815E+02 -.423E+02 -.595E+02   -.106E+02 0.613E+01 0.409E-01   0.267E+01 -.166E+01 0.157E+01
   -.217E+02 -.144E+02 0.458E+02   0.218E+02 0.145E+02 -.454E+02   -.126E+01 -.728E+00 0.527E-02   0.110E+01 0.582E+00 0.121E+01
   0.419E-01 -.127E+01 0.409E+02   -.414E-01 0.122E+01 -.405E+02   -.105E-04 -.904E-02 0.106E-03   0.111E-02 0.721E-01 0.108E+01
   -.343E+00 0.323E+01 0.422E+02   0.373E+00 -.319E+01 -.419E+02   0.854E-02 0.459E-02 0.466E-03   -.101E+00 0.306E-01 0.111E+01
   -.110E+02 0.115E+02 0.468E+02   0.109E+02 -.113E+02 -.464E+02   -.449E+00 0.454E+00 0.265E-02   0.416E+00 -.543E+00 0.123E+01
   -.138E+02 0.952E+00 0.449E+02   0.136E+02 -.103E+01 -.445E+02   -.619E+00 0.162E+00 0.942E-03   0.723E+00 -.160E+00 0.118E+01
   -.589E-01 0.282E+02 0.538E+02   0.588E-01 -.284E+02 -.534E+02   -.179E-03 0.146E+01 0.959E-02   -.157E-02 -.119E+01 0.141E+01
   0.265E+03 0.136E+01 -.606E+03   -.314E+03 -.127E+01 0.607E+03   0.459E+02 0.329E-02 -.248E-01   0.435E+01 -.109E+00 0.170E+01
   -.265E+03 0.135E+01 -.607E+03   0.314E+03 -.126E+01 0.607E+03   -.459E+02 0.274E-02 -.252E-01   -.435E+01 -.109E+00 0.170E+01
 -----------------------------------------------------------------------------------------------
   -.255E-02 0.281E+00 -.356E+02   -.568E-13 -.121E-12 0.000E+00   0.172E-02 0.633E-02 -.795E-01   -.303E-02 -.286E+00 0.356E+02
 
 
 POSITION                                       TOTAL-FORCE (eV/Angst)
 -----------------------------------------------------------------------------------
      1.25719     -0.72458     17.55753         0.013942      0.008062      0.000811
      2.52374      1.46208     17.55770         0.197794     -0.100914     -0.002486
      3.76393      3.61018     17.55762         0.187658     -0.121379     -0.001826
      5.02437      5.80040     17.55751         0.000122     -0.016334      0.000799
      2.51237     -2.90092     17.55750         0.012422     -0.007478      0.001135
      3.78417     -0.72103     17.55782         0.011249      0.221932     -0.002521
      6.28481      3.61018     17.55762        -0.187225     -0.121218     -0.001815
      3.77037     -5.07524     17.55746        -0.017998     -0.010668      0.000730
      5.02437     -2.90322     17.55751         0.000096      0.020458      0.001024
      6.26457     -0.72103     17.55781        -0.010979      0.221692     -0.002513
      7.52499      1.46208     17.55769        -0.197685     -0.100943     -0.002414
      5.02437     -7.25189     17.55748         0.000135      0.014500      0.001253
      6.27837     -5.07524     17.55746         0.018239     -0.010666      0.000736
      7.53637     -2.90092     17.55750        -0.012222     -0.007460      0.001132
      8.79155     -0.72458     17.55754        -0.013741      0.008020      0.000803
      5.02437      1.45040     17.55816         0.000602      0.002276      0.008320
      1.26974      0.72494     17.55736        -0.020649     -0.024270      0.001189
      2.50973      2.90224     17.55734        -0.020656      0.011993      0.002528
      3.77532      5.06476     17.55737         0.010696      0.030351      0.000730
      5.02437      7.25207     17.55730         0.000107      0.000225      0.000733
      2.51879     -1.43846     17.55737        -0.031122     -0.005906      0.001668
      3.80157      0.74443     17.55680        -0.644194     -0.373475      0.000008
      5.02437      2.86239     17.55690        -0.000296      0.745864     -0.002087
      6.27342      5.06476     17.55737        -0.010391      0.030441      0.000721
      3.76688     -3.62522     17.55728         0.022077     -0.012701      0.000520
      6.24718      0.74442     17.55677         0.644748     -0.372514     -0.000204
      7.53901      2.90224     17.55734         0.020927      0.011831      0.002491
      5.02437     -5.80329     17.55728         0.000125      0.025337      0.000508
      6.28186     -3.62522     17.55728        -0.021879     -0.012671      0.000502
      7.52995     -1.43846     17.55737         0.031364     -0.006020      0.001636
      8.77900      0.72494     17.55736         0.020733     -0.024297      0.001124
      5.02437     -1.45323     17.55739         0.000075     -0.024698      0.004251
      4.36984      0.59266     21.98642         1.303308     -0.000334     -0.009467
      5.64957      0.59270     21.98642        -1.307381      0.000964     -0.010018
 -----------------------------------------------------------------------------------
    total drift:                               -0.003870      0.001278     -0.014777


--------------------------------------------------------------------------------------------------------



  FREE ENERGIE OF THE ION-ELECTRON SYSTEM (eV)
  ---------------------------------------------------
  free  energy   TOTEN  =      -320.54791477 eV

  energy  without entropy=     -320.53594674  energy(sigma->0) =     -320.54193075
 


--------------------------------------------------------------------------------------------------------


    POTLOK:  cpu time   21.0230: real time   20.9375


--------------------------------------------------------------------------------------------------------


     LOOP+:  cpu time**********: real time74109.9439
    4ORBIT:  cpu time    0.0000: real time    0.0000
 


 total charge     
 
# of ion       s       p       d       tot
------------------------------------------
    1        0.743   1.394   0.000   2.136
    2        0.736   1.391   0.000   2.127
    3        0.736   1.391   0.000   2.127
    4        0.743   1.394   0.000   2.136
    5        0.736   1.370   0.000   2.106
    6        0.736   1.391   0.000   2.127
    7        0.736   1.391   0.000   2.127
    8        0.743   1.393   0.000   2.135
    9        0.743   1.393   0.000   2.135
   10        0.736   1.391   0.000   2.127
   11        0.736   1.391   0.000   2.127
   12        0.736   1.370   0.000   2.106
   13        0.743   1.393   0.000   2.135
   14        0.736   1.370   0.000   2.106
   15        0.743   1.394   0.000   2.136
   16        1.154   2.746   0.000   3.900
   17        1.235   2.813   0.000   4.048
   18        1.238   2.840   0.000   4.078
   19        1.235   2.813   0.000   4.048
   20        1.236   2.821   0.000   4.058
   21        1.235   2.813   0.000   4.048
   22        1.220   2.742   0.000   3.962
   23        1.220   2.742   0.000   3.962
   24        1.235   2.813   0.000   4.048
   25        1.238   2.826   0.000   4.063
   26        1.220   2.742   0.000   3.962
   27        1.238   2.840   0.000   4.078
   28        1.238   2.826   0.000   4.063
   29        1.238   2.826   0.000   4.063
   30        1.235   2.813   0.000   4.048
   31        1.235   2.813   0.000   4.048
   32        1.238   2.840   0.000   4.078
   33        1.603   3.193   0.000   4.795
   34        1.603   3.193   0.000   4.795
--------------------------------------------------
tot         35.169  74.872   0.000 110.041
 


 magnetization (x)
 
# of ion       s       p       d       tot
------------------------------------------
    1        0.000   0.001   0.000   0.001
    2        0.000   0.003   0.000   0.003
    3        0.000   0.003   0.000   0.003
    4        0.000   0.001   0.000   0.001
    5        0.000   0.000   0.000   0.001
    6        0.000   0.003   0.000   0.003
    7        0.000   0.003   0.000   0.003
    8        0.000   0.001   0.000   0.001
    9        0.000   0.001   0.000   0.001
   10        0.000   0.003   0.000   0.003
   11        0.000   0.003   0.000   0.003
   12        0.000   0.000   0.000   0.001
   13        0.000   0.001   0.000   0.001
   14        0.000   0.000   0.000   0.001
   15        0.000   0.001   0.000   0.001
   16       -0.004  -0.067   0.000  -0.071
   17       -0.000  -0.000   0.000  -0.000
   18       -0.000  -0.004   0.000  -0.005
   19       -0.000  -0.000   0.000  -0.000
   20       -0.000  -0.001   0.000  -0.001
   21       -0.000  -0.000   0.000  -0.000
   22       -0.001  -0.014   0.000  -0.015
   23       -0.001  -0.014   0.000  -0.015
   24       -0.000  -0.000   0.000  -0.000
   25       -0.000  -0.001   0.000  -0.001
   26       -0.001  -0.013   0.000  -0.015
   27       -0.000  -0.004   0.000  -0.005
   28       -0.000  -0.001   0.000  -0.001
   29       -0.000  -0.001   0.000  -0.001
   30       -0.000  -0.000   0.000  -0.000
   31       -0.000  -0.000   0.000  -0.000
   32       -0.001  -0.004   0.000  -0.005
   33        0.009   0.753   0.000   0.763
   34        0.009   0.753   0.000   0.762
--------------------------------------------------
tot          0.012   1.404   0.000   1.416
 

 total amount of memory used by VASP MPI-rank0   483867. kBytes
=======================================================================

   base      :      30000. kBytes
   nonlr-proj:       6102. kBytes
   fftplans  :      29100. kBytes
   grid      :     106677. kBytes
   one-center:         36. kBytes
   wavefun   :     311952. kBytes
 
  
  
 General timing and accounting informations for this job:
 ========================================================
  
                  Total CPU time used (sec):   133562.672
                            User time (sec):   128450.686
                          System time (sec):     5111.982
                         Elapsed time (sec):    74481.914
  
                   Maximum memory used (kb):     1297016.
                   Average memory used (kb):           0.
  
                          Minor page faults:      4910412
                          Major page faults:          124
                 Voluntary context switches:       783067
