 vasp.5.4.4.18Apr17-6-g9f103f2a35 (build May 01 2020 14:57:12) complex          
  
 executed on             LinuxIFC date 2020.09.21  16:04:25
 running on   48 total cores
 distrk:  each k-point on   48 cores,    1 groups
 distr:  one band on NCORES_PER_BAND=   1 cores,   48 groups


--------------------------------------------------------------------------------------------------------


 INCAR:
 POTCAR:    PAW_PBE B 06Sep2000                   
 POTCAR:    PAW_PBE N 08Apr2002                   
 POTCAR:    PAW_PBE C 08Apr2002                   
 POTCAR:    PAW_PBE F 08Apr2002                   
 POTCAR:    PAW_PBE O 08Apr2002                   

 ----------------------------------------------------------------------------- 
|                                                                             |
|           W    W    AA    RRRRR   N    N  II  N    N   GGGG   !!!           |
|           W    W   A  A   R    R  NN   N  II  NN   N  G    G  !!!           |
|           W    W  A    A  R    R  N N  N  II  N N  N  G       !!!           |
|           W WW W  AAAAAA  RRRRR   N  N N  II  N  N N  G  GGG   !            |
|           WW  WW  A    A  R   R   N   NN  II  N   NN  G    G                |
|           W    W  A    A  R    R  N    N  II  N    N   GGGG   !!!           |
|                                                                             |
|      For optimal performance we recommend to set                            |
|        NCORE= 4 - approx SQRT( number of cores)                             |
|      NCORE specifies how many cores store one orbital (NPAR=cpu/NCORE).     |
|      This setting can  greatly improve the performance of VASP for DFT.     |
|      The default,   NCORE=1            might be grossly inefficient         |
|      on modern multi-core architectures or massively parallel machines.     |
|      Do your own testing !!!!                                               |
|      Unfortunately you need to use the default for GW and RPA calculations. |
|      (for HF NCORE is supported but not extensively tested yet)             |
|                                                                             |
 ----------------------------------------------------------------------------- 

 POTCAR:    PAW_PBE B 06Sep2000                   
   VRHFIN =B: s2p1                                                              
   LEXCH  = PE                                                                  
   EATOM  =    71.1703 eV,    5.2309 Ry                                         
                                                                                
   TITEL  = PAW_PBE B 06Sep2000                                                 
   LULTRA =        F    use ultrasoft PP ?                                      
   IUNSCR =        1    unscreen: 0-lin 1-nonlin 2-no                           
   RPACOR =    1.200    partial core radius                                     
   POMASS =   10.811; ZVAL   =    3.000    mass and valenz                      
   RCORE  =    1.700    outmost cutoff radius                                   
   RWIGS  =    1.710; RWIGS  =    0.905    wigner-seitz radius (au A)           
   ENMAX  =  318.614; ENMIN  =  238.960 eV                                      
   ICORE  =        2    local potential                                         
   LCOR   =        T    correct aug charges                                     
   LPAW   =        T    paw PP                                                  
   EAUG   =  535.514                                                            
   DEXC   =    0.000                                                            
   RMAX   =    1.732    core radius for proj-oper                               
   RAUG   =    1.300    factor for augmentation sphere                          
   RDEP   =    1.757    radius for radial grids                                 
   RDEPT  =    1.436    core radius for aug-charge                              
                                                                                
   Atomic configuration                                                         
    4 entries                                                                   
     n  l   j            E        occ.                                          
     1  0  0.50      -180.5896   2.0000                                         
     2  0  0.50        -9.4431   2.0000                                         
     2  1  0.50        -3.6068   1.0000                                         
     3  2  1.50        -4.0817   0.0000                                         
   Description                                                                  
     l       E           TYP  RCUT    TYP  RCUT                                 
     0     -9.4430752     23  1.500                                             
     0      0.8675899     23  1.500                                             
     1     -3.6067955     23  1.700                                             
     1      6.1086146     23  1.700                                             
     2     -4.0817478      7  1.700                                             
  local pseudopotential read in
  partial core-charges read in
  partial kinetic energy density read in
  atomic valenz-charges read in
  non local Contribution for L=           0  read in
    real space projection operators read in
  non local Contribution for L=           0  read in
    real space projection operators read in
  non local Contribution for L=           1  read in
    real space projection operators read in
  non local Contribution for L=           1  read in
    real space projection operators read in
    PAW grid and wavefunctions read in
 
   number of l-projection  operators is LMAX  =           4
   number of lm-projection operators is LMMAX =           8
 
 POTCAR:    PAW_PBE N 08Apr2002                   
   VRHFIN =N: s2p3                                                              
   LEXCH  = PE                                                                  
   EATOM  =   264.5486 eV,   19.4438 Ry                                         
                                                                                
   TITEL  = PAW_PBE N 08Apr2002                                                 
   LULTRA =        F    use ultrasoft PP ?                                      
   IUNSCR =        1    unscreen: 0-lin 1-nonlin 2-no                           
   RPACOR =    1.200    partial core radius                                     
   POMASS =   14.001; ZVAL   =    5.000    mass and valenz                      
   RCORE  =    1.500    outmost cutoff radius                                   
   RWIGS  =    1.400; RWIGS  =    0.741    wigner-seitz radius (au A)           
   ENMAX  =  400.000; ENMIN  =  300.000 eV                                      
   ICORE  =        2    local potential                                         
   LCOR   =        T    correct aug charges                                     
   LPAW   =        T    paw PP                                                  
   EAUG   =  627.112                                                            
   DEXC   =    0.000                                                            
   RMAX   =    1.529    core radius for proj-oper                               
   RAUG   =    1.300    factor for augmentation sphere                          
   RDEP   =    1.514    radius for radial grids                                 
   RDEPT  =    1.338    core radius for aug-charge                              
                                                                                
   Atomic configuration                                                         
    4 entries                                                                   
     n  l   j            E        occ.                                          
     1  0  0.50      -384.7179   2.0000                                         
     2  0  0.50       -18.5828   2.0000                                         
     2  1  0.50        -7.0898   3.0000                                         
     3  2  1.50        -6.8029   0.0000                                         
   Description                                                                  
     l       E           TYP  RCUT    TYP  RCUT                                 
     0    -18.5828119     23  1.200                                             
     0    -13.5018863     23  1.200                                             
     1     -7.0897853     23  1.500                                             
     1      9.5240782     23  1.500                                             
     2     -6.8029130      7  1.500                                             
  local pseudopotential read in
  partial core-charges read in
  partial kinetic energy density read in
  atomic valenz-charges read in
  non local Contribution for L=           0  read in
    real space projection operators read in
  non local Contribution for L=           0  read in
    real space projection operators read in
  non local Contribution for L=           1  read in
    real space projection operators read in
  non local Contribution for L=           1  read in
    real space projection operators read in
    PAW grid and wavefunctions read in
 
   number of l-projection  operators is LMAX  =           4
   number of lm-projection operators is LMMAX =           8
 
 POTCAR:    PAW_PBE C 08Apr2002                   
   VRHFIN =C: s2p2                                                              
   LEXCH  = PE                                                                  
   EATOM  =   147.1560 eV,   10.8157 Ry                                         
                                                                                
   TITEL  = PAW_PBE C 08Apr2002                                                 
   LULTRA =        F    use ultrasoft PP ?                                      
   IUNSCR =        1    unscreen: 0-lin 1-nonlin 2-no                           
   RPACOR =    1.200    partial core radius                                     
   POMASS =   12.011; ZVAL   =    4.000    mass and valenz                      
   RCORE  =    1.500    outmost cutoff radius                                   
   RWIGS  =    1.630; RWIGS  =    0.863    wigner-seitz radius (au A)           
   ENMAX  =  400.000; ENMIN  =  300.000 eV                                      
   ICORE  =        2    local potential                                         
   LCOR   =        T    correct aug charges                                     
   LPAW   =        T    paw PP                                                  
   EAUG   =  644.873                                                            
   DEXC   =    0.000                                                            
   RMAX   =    1.529    core radius for proj-oper                               
   RAUG   =    1.300    factor for augmentation sphere                          
   RDEP   =    1.501    radius for radial grids                                 
   RDEPT  =    1.300    core radius for aug-charge                              
                                                                                
   Atomic configuration                                                         
    4 entries                                                                   
     n  l   j            E        occ.                                          
     1  0  0.50      -273.3789   2.0000                                         
     2  0  0.50       -13.7508   2.0000                                         
     2  1  0.50        -5.2854   2.0000                                         
     3  2  1.50        -5.4423   0.0000                                         
   Description                                                                  
     l       E           TYP  RCUT    TYP  RCUT                                 
     0    -13.7508458     23  1.200                                             
     0     -8.2022199     23  1.200                                             
     1     -5.2854383     23  1.500                                             
     1     34.0145650     23  1.500                                             
     2     -5.4423304      7  1.500                                             
  local pseudopotential read in
  partial core-charges read in
  partial kinetic energy density read in
  atomic valenz-charges read in
  non local Contribution for L=           0  read in
    real space projection operators read in
  non local Contribution for L=           0  read in
    real space projection operators read in
  non local Contribution for L=           1  read in
    real space projection operators read in
  non local Contribution for L=           1  read in
    real space projection operators read in
    PAW grid and wavefunctions read in
 
   number of l-projection  operators is LMAX  =           4
   number of lm-projection operators is LMMAX =           8
 
 POTCAR:    PAW_PBE F 08Apr2002                   
   VRHFIN =F: s2p5                                                              
   LEXCH  = PE                                                                  
   EATOM  =   659.6475 eV,   48.4827 Ry                                         
                                                                                
   TITEL  = PAW_PBE F 08Apr2002                                                 
   LULTRA =        F    use ultrasoft PP ?                                      
   IUNSCR =        1    unscreen: 0-lin 1-nonlin 2-no                           
   RPACOR =    1.200    partial core radius                                     
   POMASS =   18.998; ZVAL   =    7.000    mass and valenz                      
   RCORE  =    1.520    outmost cutoff radius                                   
   RWIGS  =    1.500; RWIGS  =    0.794    wigner-seitz radius (au A)           
   ENMAX  =  400.000; ENMIN  =  300.000 eV                                      
   ICORE  =        2    local potential                                         
   LCOR   =        T    correct aug charges                                     
   LPAW   =        T    paw PP                                                  
   EAUG   =  613.614                                                            
   RMAX   =    1.555    core radius for proj-oper                               
   RAUG   =    1.300    factor for augmentation sphere                          
   RDEP   =    1.539    radius for radial grids                                 
   RDEPT  =    1.299    core radius for aug-charge                              
                                                                                
   Atomic configuration                                                         
    4 entries                                                                   
     n  l   j            E        occ.                                          
     1  0  0.50      -663.3661   2.0000                                         
     2  0  0.50       -29.8995   2.0000                                         
     2  1  0.50       -11.1114   5.0000                                         
     3  2  1.50       -10.8847   0.0000                                         
   Description                                                                  
     l       E           TYP  RCUT    TYP  RCUT                                 
     0    -29.8995018     23  1.200                                             
     0     -9.5240782     23  1.200                                             
     1    -11.1113914     23  1.520                                             
     1      1.3605826     23  1.520                                             
     2    -10.8846608      7  1.500                                             
  local pseudopotential read in
  partial core-charges read in
  partial kinetic energy density read in
  atomic valenz-charges read in
  non local Contribution for L=           0  read in
    real space projection operators read in
  non local Contribution for L=           0  read in
    real space projection operators read in
  non local Contribution for L=           1  read in
    real space projection operators read in
  non local Contribution for L=           1  read in
    real space projection operators read in
    PAW grid and wavefunctions read in
 
   number of l-projection  operators is LMAX  =           4
   number of lm-projection operators is LMMAX =           8
 
 POTCAR:    PAW_PBE O 08Apr2002                   
   VRHFIN =O: s2p4                                                              
   LEXCH  = PE                                                                  
   EATOM  =   432.3788 eV,   31.7789 Ry                                         
                                                                                
   TITEL  = PAW_PBE O 08Apr2002                                                 
   LULTRA =        F    use ultrasoft PP ?                                      
   IUNSCR =        1    unscreen: 0-lin 1-nonlin 2-no                           
   RPACOR =    1.200    partial core radius                                     
   POMASS =   16.000; ZVAL   =    6.000    mass and valenz                      
   RCORE  =    1.520    outmost cutoff radius                                   
   RWIGS  =    1.550; RWIGS  =    0.820    wigner-seitz radius (au A)           
   ENMAX  =  400.000; ENMIN  =  300.000 eV                                      
   ICORE  =        2    local potential                                         
   LCOR   =        T    correct aug charges                                     
   LPAW   =        T    paw PP                                                  
   EAUG   =  605.392                                                            
   DEXC   =    0.000                                                            
   RMAX   =    1.553    core radius for proj-oper                               
   RAUG   =    1.300    factor for augmentation sphere                          
   RDEP   =    1.550    radius for radial grids                                 
   RDEPT  =    1.329    core radius for aug-charge                              
                                                                                
   Atomic configuration                                                         
    4 entries                                                                   
     n  l   j            E        occ.                                          
     1  0  0.50      -514.6923   2.0000                                         
     2  0  0.50       -23.9615   2.0000                                         
     2  1  0.50        -9.0305   4.0000                                         
     3  2  1.50        -9.5241   0.0000                                         
   Description                                                                  
     l       E           TYP  RCUT    TYP  RCUT                                 
     0    -23.9615318     23  1.200                                             
     0     -9.5240782     23  1.200                                             
     1     -9.0304911     23  1.520                                             
     1      8.1634956     23  1.520                                             
     2     -9.5240782      7  1.500                                             
  local pseudopotential read in
  partial core-charges read in
  partial kinetic energy density read in
  kinetic energy density of atom read in
  atomic valenz-charges read in
  non local Contribution for L=           0  read in
    real space projection operators read in
  non local Contribution for L=           0  read in
    real space projection operators read in
  non local Contribution for L=           1  read in
    real space projection operators read in
  non local Contribution for L=           1  read in
    real space projection operators read in
    PAW grid and wavefunctions read in
 
   number of l-projection  operators is LMAX  =           4
   number of lm-projection operators is LMMAX =           8
 
 Optimization of the real space projectors (new method)

 maximal supplied QI-value         = 22.11
 optimisation between [QCUT,QGAM] = [ 11.94, 23.88] = [ 39.92,159.67] Ry 
 Optimized for a Real-space Cutoff    1.18 Angstroem

   l    n(q)    QCUT    max X(q) W(low)/X(q) W(high)/X(q)  e(spline) 
   0      8    11.939    53.033    0.11E-03    0.34E-03    0.60E-07
   0      8    11.939    34.740    0.11E-03    0.34E-03    0.59E-07
   1      8    11.939    30.949    0.22E-03    0.20E-03    0.17E-06
   1      8    11.939    19.518    0.20E-03    0.18E-03    0.16E-06
 Optimization of the real space projectors (new method)

 maximal supplied QI-value         = 25.13
 optimisation between [QCUT,QGAM] = [ 11.81, 23.88] = [ 39.08,159.64] Ry 
 Optimized for a Real-space Cutoff    1.41 Angstroem

   l    n(q)    QCUT    max X(q) W(low)/X(q) W(high)/X(q)  e(spline) 
   0     10    11.813    79.467    0.48E-04    0.30E-04    0.67E-06
   0     10    11.813    66.151    0.47E-04    0.30E-04    0.67E-06
   1     10    11.813    20.169    0.11E-03    0.17E-03    0.11E-05
   1     10    11.813    14.454    0.11E-03    0.17E-03    0.11E-05
 Optimization of the real space projectors (new method)

 maximal supplied QI-value         = 25.13
 optimisation between [QCUT,QGAM] = [ 11.81, 23.88] = [ 39.08,159.64] Ry 
 Optimized for a Real-space Cutoff    1.18 Angstroem

   l    n(q)    QCUT    max X(q) W(low)/X(q) W(high)/X(q)  e(spline) 
   0      8    11.813   115.676    0.10E-03    0.16E-03    0.35E-06
   0      8    11.813    87.132    0.10E-03    0.16E-03    0.35E-06
   1      8    11.813     4.429    0.16E-03    0.13E-04    0.22E-06
   1      8    11.813     2.733    0.13E-03    0.10E-04    0.18E-06
 Optimization of the real space projectors (new method)

 maximal supplied QI-value         = 24.76
 optimisation between [QCUT,QGAM] = [ 11.88, 24.01] = [ 39.54,161.47] Ry 
 Optimized for a Real-space Cutoff    1.18 Angstroem

   l    n(q)    QCUT    max X(q) W(low)/X(q) W(high)/X(q)  e(spline) 
   0      8    11.883    14.049    0.56E-04    0.86E-04    0.22E-06
   0      8    11.883     8.945    0.81E-04    0.11E-03    0.30E-06
   1      8    11.883     7.086    0.16E-03    0.15E-04    0.31E-06
   1      8    11.883     6.747    0.15E-03    0.14E-04    0.28E-06
 Optimization of the real space projectors (new method)

 maximal supplied QI-value         = 24.76
 optimisation between [QCUT,QGAM] = [ 11.88, 24.01] = [ 39.54,161.47] Ry 
 Optimized for a Real-space Cutoff    1.18 Angstroem

   l    n(q)    QCUT    max X(q) W(low)/X(q) W(high)/X(q)  e(spline) 
   0      8    11.883    20.381    0.86E-04    0.11E-03    0.31E-06
   0      8    11.883    15.268    0.94E-04    0.12E-03    0.33E-06
   1      8    11.883     5.964    0.19E-03    0.18E-04    0.33E-06
   1      8    11.883     5.382    0.17E-03    0.20E-04    0.29E-06
  PAW_PBE B 06Sep2000                   :
 energy of atom  1       EATOM=  -71.1703
 kinetic energy error for atom=    0.0009 (will be added to EATOM!!)
  PAW_PBE N 08Apr2002                   :
 energy of atom  2       EATOM= -264.5486
 kinetic energy error for atom=    0.0116 (will be added to EATOM!!)
  PAW_PBE C 08Apr2002                   :
 energy of atom  3       EATOM= -147.1560
 kinetic energy error for atom=    0.0066 (will be added to EATOM!!)
  PAW_PBE F 08Apr2002                   :
 energy of atom  4       EATOM= -659.6475
 kinetic energy error for atom=    0.0296 (will be added to EATOM!!)
  PAW_PBE O 08Apr2002                   :
 energy of atom  5       EATOM= -432.3788
 kinetic energy error for atom=    0.0194 (will be added to EATOM!!)
 
 
 POSCAR: B N C F O                               
  positions in direct lattice
  velocities in cartesian coordinates

 METAGGA = SCAN     LMAXTAU =  6    LMIXTAU =  F

 exchange correlation table for  LEXCH =        8
   RHO(1)=    0.500       N(1)  =     2000
   RHO(2)=  100.500       N(2)  =     4000
 


--------------------------------------------------------------------------------------------------------


 ion  position               nearest neighbor table
   1  0.083  0.042  0.502-  65 1.45  73 1.45  72 1.45
   2  0.083  0.167  0.502-  74 1.45  66 1.45  65 1.45
   3  0.083  0.292  0.501-  75 1.45  66 1.45  67 1.45
   4  0.083  0.417  0.502-  76 1.45  67 1.45  68 1.45
   5  0.083  0.542  0.502-  77 1.45  68 1.45  69 1.45
   6  0.083  0.667  0.502-  69 1.45  78 1.45  70 1.45
   7  0.083  0.792  0.502-  79 1.45  71 1.45  70 1.45
   8  0.083  0.917  0.502-  72 1.45  80 1.45  71 1.45
   9  0.208  0.042  0.502-  73 1.45  81 1.45  80 1.45
  10  0.208  0.167  0.502-  74 1.45  82 1.45  73 1.45
  11  0.208  0.292  0.502-  83 1.45  75 1.45  74 1.45
  12  0.208  0.417  0.501-  75 1.45  84 1.45  76 1.45
  13  0.208  0.542  0.502-  76 1.45  85 1.45  77 1.45
  14  0.208  0.667  0.502-  77 1.45  86 1.45  78 1.45
  15  0.208  0.792  0.502-  78 1.45  87 1.45  79 1.45
  16  0.208  0.917  0.502-  80 1.45  88 1.45  79 1.45
  17  0.333  0.042  0.502-  81 1.45  89 1.45  88 1.45
  18  0.333  0.167  0.502-  82 1.45  90 1.45  81 1.45
  19  0.333  0.292  0.502-  83 1.45  91 1.45  82 1.45
  20  0.333  0.417  0.502-  83 1.45  84 1.45  92 1.45
  21  0.333  0.542  0.501-  84 1.45  93 1.45  85 1.45
  22  0.333  0.667  0.502-  85 1.45  94 1.45  86 1.45
  23  0.333  0.792  0.502-  86 1.45  95 1.45  87 1.45
  24  0.333  0.917  0.502-  87 1.45  96 1.45  88 1.45
  25  0.458  0.042  0.502-  96 1.45  97 1.45  89 1.45
  26  0.458  0.167  0.502-  98 1.45  90 1.45  89 1.45
  27  0.458  0.292  0.502-  91 1.45  90 1.45  99 1.45
  28  0.458  0.417  0.502-  92 1.45  91 1.45 100 1.45
  29  0.458  0.542  0.501-  92 1.45  93 1.45 101 1.45
  30  0.458  0.667  0.502-  93 1.45 102 1.45  94 1.45
  31  0.458  0.792  0.502-  94 1.45 103 1.45  95 1.45
  32  0.458  0.917  0.502-  95 1.45 104 1.45  96 1.45
  33  0.583  0.042  0.502- 104 1.45 105 1.45  97 1.45
  34  0.583  0.167  0.502-  97 1.45  98 1.45 106 1.45
  35  0.583  0.292  0.502-  99 1.45 107 1.45  98 1.45
  36  0.583  0.417  0.502- 100 1.45  99 1.45 108 1.45
  37  0.583  0.542  0.502- 100 1.45 101 1.45 109 1.45
  38  0.583  0.667  0.502- 101 1.45 102 1.45 110 1.45
  39  0.583  0.792  0.502- 102 1.45 111 1.45 103 1.45
  40  0.583  0.917  0.502- 103 1.45 112 1.45 104 1.45
  41  0.708  0.042  0.502- 112 1.45 113 1.45 105 1.45
  42  0.708  0.167  0.502- 105 1.45 114 1.45 106 1.45
  43  0.708  0.292  0.502- 106 1.45 107 1.45 115 1.45
  44  0.708  0.417  0.502- 107 1.45 108 1.45 116 1.45
  45  0.708  0.542  0.502- 108 1.45 109 1.45 117 1.45
  46  0.708  0.667  0.502- 109 1.45 110 1.45 118 1.45
  47  0.708  0.792  0.502- 110 1.45 119 1.45 111 1.45
  48  0.708  0.917  0.502- 111 1.45 120 1.45 112 1.45
  49  0.833  0.042  0.502- 121 1.45 120 1.45 113 1.45
  50  0.833  0.167  0.502- 122 1.45 113 1.45 114 1.45
  51  0.833  0.292  0.502- 114 1.45 123 1.45 115 1.45
  52  0.833  0.417  0.502- 115 1.45 124 1.45 116 1.45
  53  0.833  0.542  0.502- 116 1.45 125 1.45 117 1.45
  54  0.833  0.667  0.502- 126 1.45 118 1.45 117 1.45
  55  0.833  0.792  0.502- 127 1.45 119 1.45 118 1.45
  56  0.833  0.917  0.502- 128 1.45 120 1.45 119 1.45
  57  0.958  0.042  0.502-  65 1.45 121 1.45 128 1.45
  58  0.958  0.167  0.502-  66 1.45 121 1.45 122 1.45
  59  0.958  0.292  0.502-  67 1.45 122 1.45 123 1.45
  60  0.958  0.417  0.502-  68 1.45 123 1.45 124 1.45
  61  0.958  0.542  0.502- 124 1.45  69 1.45 125 1.45
  62  0.958  0.667  0.502-  70 1.45 126 1.45 125 1.45
  63  0.958  0.792  0.502-  71 1.45 127 1.45 126 1.45
  64  0.958  0.917  0.502-  72 1.45 128 1.45 127 1.45
  65  0.042  0.083  0.502-  57 1.45   1 1.45   2 1.45
  66  0.042  0.208  0.501-  58 1.45   2 1.45   3 1.45
  67  0.042  0.333  0.501-  59 1.45   4 1.45   3 1.45
  68  0.042  0.458  0.502-   5 1.45  60 1.45   4 1.45
  69  0.042  0.583  0.502-   6 1.45  61 1.45   5 1.45
  70  0.042  0.708  0.502-  62 1.45   6 1.45   7 1.45
  71  0.042  0.833  0.502-  63 1.45   7 1.45   8 1.45
  72  0.042  0.958  0.502-  64 1.45   8 1.45   1 1.45
  73  0.167  0.083  0.502-   9 1.45   1 1.45  10 1.45
  74  0.167  0.208  0.502-  10 1.45   2 1.45  11 1.45
  75  0.167  0.333  0.501-   3 1.45  12 1.45  11 1.45
  76  0.167  0.458  0.501-  13 1.45   4 1.45  12 1.45
  77  0.167  0.583  0.502-  14 1.45   5 1.45  13 1.45
  78  0.167  0.708  0.502-  15 1.45   6 1.45  14 1.45
  79  0.167  0.833  0.502-   7 1.45  15 1.45  16 1.45
  80  0.167  0.958  0.502-   8 1.45  16 1.45   9 1.45
  81  0.292  0.083  0.502-   9 1.45  17 1.45  18 1.45
  82  0.292  0.208  0.502-  18 1.45  10 1.45  19 1.45
  83  0.292  0.333  0.501-  19 1.45  11 1.45  20 1.45
  84  0.292  0.458  0.501-  21 1.45  12 1.45  20 1.45
  85  0.292  0.583  0.501-  22 1.45  13 1.45  21 1.45
  86  0.292  0.708  0.502-  23 1.45  14 1.45  22 1.45
  87  0.292  0.833  0.502-  24 1.45  15 1.45  23 1.45
  88  0.292  0.958  0.502-  16 1.45  24 1.45  17 1.45
  89  0.417  0.083  0.502-  17 1.45  25 1.45  26 1.45
  90  0.417  0.208  0.502-  18 1.45  26 1.45  27 1.45
  91  0.417  0.333  0.502-  27 1.45  28 1.45  19 1.45
  92  0.417  0.458  0.501-  29 1.45  28 1.45  20 1.45
  93  0.417  0.583  0.501-  30 1.45  29 1.45  21 1.45
  94  0.417  0.708  0.502-  31 1.45  22 1.45  30 1.45
  95  0.417  0.833  0.502-  32 1.45  23 1.45  31 1.45
  96  0.417  0.958  0.502-  25 1.45  24 1.45  32 1.45
  97  0.542  0.083  0.502-  34 1.45  25 1.45  33 1.45
  98  0.542  0.208  0.502-  26 1.45  34 1.45  35 1.45
  99  0.542  0.333  0.502-  35 1.45  36 1.45  27 1.45
 100  0.542  0.458  0.502-  37 1.45  36 1.45  28 1.45
 101  0.542  0.583  0.502-  38 1.45  37 1.45  29 1.45
 102  0.542  0.708  0.502-  39 1.45  38 1.45  30 1.45
 103  0.542  0.833  0.502-  40 1.45  31 1.45  39 1.45
 104  0.542  0.958  0.502-  33 1.45  32 1.45  40 1.45
 105  0.667  0.083  0.502-  42 1.45  33 1.45  41 1.45
 106  0.667  0.208  0.502-  43 1.45  34 1.45  42 1.45
 107  0.667  0.333  0.502-  44 1.45  35 1.45  43 1.45
 108  0.667  0.458  0.502-  45 1.45  44 1.45  36 1.45
 109  0.667  0.583  0.502-  46 1.45  45 1.45  37 1.45
 110  0.667  0.708  0.502-  47 1.45  46 1.45  38 1.45
 111  0.667  0.833  0.502-  48 1.45  47 1.45  39 1.45
 112  0.667  0.958  0.502-  41 1.45  48 1.45  40 1.45
 113  0.792  0.083  0.502-  41 1.45  50 1.45  49 1.45
 114  0.792  0.208  0.502-  51 1.45  42 1.45  50 1.45
 115  0.792  0.333  0.502-  52 1.45  43 1.45  51 1.45
 116  0.792  0.458  0.502-  53 1.45  52 1.45  44 1.45
 117  0.792  0.583  0.502-  54 1.45  53 1.45  45 1.45
 118  0.792  0.708  0.502-  54 1.45  55 1.45  46 1.45
 119  0.792  0.833  0.502-  55 1.45  47 1.45  56 1.45
 120  0.792  0.958  0.502-  48 1.45  56 1.45  49 1.45
 121  0.917  0.083  0.502-  49 1.45  57 1.45  58 1.45
 122  0.917  0.208  0.502-  50 1.45  59 1.45  58 1.45
 123  0.917  0.333  0.502-  60 1.45  51 1.45  59 1.45
 124  0.917  0.458  0.502-  61 1.45  52 1.45  60 1.45
 125  0.917  0.583  0.502-  53 1.45  62 1.45  61 1.45
 126  0.917  0.708  0.502-  54 1.45  62 1.45  63 1.45
 127  0.917  0.833  0.502-  55 1.45  63 1.45  64 1.45
 128  0.917  0.958  0.502-  56 1.45  64 1.45  57 1.45
 129  0.279  0.236  0.675- 132 1.34 134 1.35 133 1.35 130 1.54
 130  0.265  0.238  0.632- 136 1.37 135 1.37 129 1.54 131 1.56
 131  0.257  0.308  0.620- 138 1.24 137 1.25 130 1.56
 132  0.346  0.297  0.686- 129 1.34
 133  0.283  0.172  0.684- 129 1.35
 134  0.222  0.235  0.695- 129 1.35
 135  0.325  0.237  0.614- 130 1.37
 136  0.201  0.169  0.624- 130 1.37
 137  0.319  0.368  0.615- 131 1.25
 138  0.190  0.295  0.617- 131 1.24
 

IMPORTANT INFORMATION: All symmetrisations will be switched off!
NOSYMM: (Re-)initialisation of all symmetry stuff for point group C_1.

 
 
 KPOINTS: K-Point Grid                            

Automatic generation of k-mesh.
Space group operators:
 irot       det(A)        alpha          n_x          n_y          n_z        tau_x        tau_y        tau_z
    1     1.000000     0.000001     1.000000     0.000000     0.000000     0.000000     0.000000     0.000000
 
 Subroutine IBZKPT returns following result:
 ===========================================
 
 Found      6 irreducible k-points:
 
 Following reciprocal coordinates:
            Coordinates               Weight
  0.250000  0.250000  0.000000     16.000000
  0.500000 -0.250000  0.000000     16.000000
  0.250000  0.500000  0.000000     16.000000
 -0.250000  0.250000  0.000000     16.000000
 -0.000000  0.250000  0.000000     16.000000
  0.250000 -0.000000  0.000000     16.000000
 
 Following cartesian coordinates:
            Coordinates               Weight
  0.024879  0.000000  0.000000     16.000000
  0.012439 -0.021546  0.000000     16.000000
  0.037318  0.007182  0.000000     16.000000
  0.000000  0.014364  0.000000     16.000000
  0.012439  0.007182  0.000000     16.000000
  0.012439 -0.007182  0.000000     16.000000
 


--------------------------------------------------------------------------------------------------------




 Dimension of arrays:
   k-points           NKPTS =      6   k-points in BZ     NKDIM =      6   number of bands    NBANDS=    432
   number of dos      NEDOS =   1200   number of ions     NIONS =    138
   non local maximal  LDIM  =      4   non local SUM 2l+1 LMDIM =      8
   total plane-waves  NPLWV = ******
   max r-space proj   IRMAX =   6620   max aug-charges    IRDMAX=   9003
   dimension x,y,z NGX =   160 NGY =  160 NGZ =  270
   dimension x,y,z NGXF=   320 NGYF=  320 NGZF=  540
   support grid    NGXF=   320 NGYF=  320 NGZF=  540
   ions per type =              64  64   3   5   2
   NGX,Y,Z   is equivalent  to a cutoff of  13.24, 13.24, 12.82 a.u.
   NGXF,Y,Z  is equivalent  to a cutoff of  26.47, 26.47, 25.65 a.u.

 SYSTEM =  hBN                                     
 POSCAR =  B N C F O                               

 Startparameter for this run:
   NWRITE =      2    write-flag & timer
   PREC   = accura    normal or accurate (medium, high low for compatibility)
   ISTART =      1    job   : 0-new  1-cont  2-samecut
   ICHARG =      0    charge: 1-file 2-atom 10-const
   ISPIN  =      2    spin polarized calculation?
   LNONCOLLINEAR =      F non collinear calculations
   LSORBIT =      F    spin-orbit coupling
   INIWAV =      1    electr: 0-lowe 1-rand  2-diag
   LASPH  =      T    aspherical Exc in radial PAW
   METAGGA=      F    non-selfconsistent MetaGGA calc.

 Electronic Relaxation 1
   ENCUT  =  550.0 eV  40.42 Ry    6.36 a.u.  38.43 38.43 66.93*2*pi/ulx,y,z
   ENINI  =  550.0     initial cutoff
   ENAUG  =  644.9 eV  augmentation charge cutoff
   NELM   =    100;   NELMIN=  2; NELMDL=  0     # of ELM steps 
   EDIFF  = 0.1E-04   stopping-criterion for ELM
   LREAL  =      T    real-space projection
   NLSPLINE    = F    spline interpolate recip. space projectors
   LCOMPAT=      F    compatible to vasp.4.4
   GGA_COMPAT  = T    GGA compatible to vasp.4.4-vasp.4.6
   LMAXPAW     = -100 max onsite density
   LMAXMIX     =    2 max onsite mixed and CHGCAR
   VOSKOWN=      0    Vosko Wilk Nusair interpolation
   ROPT   =   -0.00025  -0.00025  -0.00025  -0.00025
   ROPT   =   -0.00025
 Ionic relaxation
   EDIFFG = -.2E-01   stopping-criterion for IOM
   NSW    =      0    number of steps for IOM
   NBLOCK =      1;   KBLOCK =      1    inner block; outer block 
   IBRION =     -1    ionic relax: 0-MD 1-quasi-New 2-CG
   NFREE  =      1    steps in history (QN), initial steepest desc. (CG)
   ISIF   =      2    stress and relaxation
   IWAVPR =     10    prediction:  0-non 1-charg 2-wave 3-comb
   ISYM   =      0    0-nonsym 1-usesym 2-fastsym
   LCORR  =      T    Harris-Foulkes like correction to forces

   POTIM  = 0.5000    time-step for ionic-motion
   TEIN   =    0.0    initial temperature
   TEBEG  =    0.0;   TEEND  =   0.0 temperature during run
   SMASS  =  -3.00    Nose mass-parameter (am)
   estimated Nose-frequenzy (Omega)   =  0.10E-29 period in steps =****** mass=  -0.923E-26a.u.
   SCALEE = 1.0000    scale energy and forces
   NPACO  =    256;   APACO  = 16.0  distance and # of slots for P.C.
   PSTRESS=    0.0 pullay stress

  Mass of Ions in am
   POMASS =  10.81 14.00 12.01 19.00 16.00
  Ionic Valenz
   ZVAL   =   3.00  5.00  4.00  7.00  6.00
  Atomic Wigner-Seitz radii
   RWIGS  =  -1.00 -1.00 -1.00 -1.00 -1.00
  virtual crystal weights 
   VCA    =   1.00  1.00  1.00  1.00  1.00
   NELECT =     571.0000    total number of electrons
   NUPDOWN=      -1.0000    fix difference up-down

 DOS related values:
   EMIN   = -10.00;   EMAX   =  5.00  energy-range for DOS
   EFERMI =   0.00
   ISMEAR =     0;   SIGMA  =   0.05  broadening in eV -4-tet -1-fermi 0-gaus

 Electronic relaxation 2 (details)
   IALGO  =     68    algorithm
   LDIAG  =      T    sub-space diagonalisation (order eigenvalues)
   LSUBROT=      F    optimize rotation matrix (better conditioning)
   TURBO    =      0    0=normal 1=particle mesh
   IRESTART =      0    0=no restart 2=restart with 2 vectors
   NREBOOT  =      0    no. of reboots
   NMIN     =      0    reboot dimension
   EREF     =   0.00    reference energy to select bands
   IMIX   =      4    mixing-type and parameters
     AMIX     =   0.40;   BMIX     =  1.00
     AMIX_MAG =   1.60;   BMIX_MAG =  1.00
     AMIN     =   0.10
     WC   =   100.;   INIMIX=   1;  MIXPRE=   1;  MAXMIX= -45

 Intra band minimization:
   WEIMIN = 0.0000     energy-eigenvalue tresh-hold
   EBREAK =  0.58E-08  absolut break condition
   DEPER  =   0.30     relativ break condition  

   TIME   =   0.40     timestep for ELM

  volume/ion in A,a.u.               =      88.72       598.69
  Fermi-wavevector in a.u.,A,eV,Ry     =   0.589286  1.113589  4.724734  0.347258
  Thomas-Fermi vector in A             =   1.636881
 
 Write flags
   LWAVE        =      T    write WAVECAR
   LDOWNSAMPLE  =      F    k-point downsampling of WAVECAR
   LCHARG       =      T    write CHGCAR
   LVTOT        =      F    write LOCPOT, total local potential
   LVHAR        =      T    write LOCPOT, Hartree potential only
   LELF         =      F    write electronic localiz. function (ELF)
   LORBIT       =     11    0 simple, 1 ext, 2 COOP (PROOUT), +10 PAW based schemes


 Dipole corrections
   LMONO  =      F    monopole corrections only (constant potential shift)
   LDIPOL =      F    correct potential (dipole corrections)
   IDIPOL =      0    1-x, 2-y, 3-z, 4-all directions 
   EPSILON=  1.0000000 bulk dielectric constant

 Exchange correlation treatment:
   GGA     =    --    GGA type
   LEXCH   =     8    internal setting for exchange type
   VOSKOWN=      0    Vosko Wilk Nusair interpolation
   LHFCALC =     F    Hartree Fock is set to
   LHFONE  =     F    Hartree Fock one center treatment
   AEXX    =    0.0000 exact exchange contribution

 Linear response parameters
   LEPSILON=     F    determine dielectric tensor
   LRPA    =     F    only Hartree local field effects (RPA)
   LNABLA  =     F    use nabla operator in PAW spheres
   LVEL    =     F    velocity operator in full k-point grid
   LINTERFAST=   F  fast interpolation
   KINTER  =     0    interpolate to denser k-point grid
   CSHIFT  =0.1000    complex shift for real part using Kramers Kronig
   OMEGAMAX=  -1.0    maximum frequency
   DEG_THRESHOLD= 0.2000000E-02 threshold for treating states as degnerate
   RTIME   =   -0.100 relaxation time in fs
  (WPLASMAI=    0.000 imaginary part of plasma frequency in eV, 0.658/RTIME)
   DFIELD  = 0.0000000 0.0000000 0.0000000 field for delta impulse in time
 
 Orbital magnetization related:
   ORBITALMAG=     F  switch on orbital magnetization
   LCHIMAG   =     F  perturbation theory with respect to B field
   DQ        =  0.001000  dq finite difference perturbation B field
   LLRAUG    =     F  two centre corrections for induced B field

 Solvation model:
   LSOL    =     T         switch on solvation model
   EB_K    = 78.400000     relative permittivity of the bulk solvent
   SIGMA_K =  0.600000     width of the dielectric cavity
   NC_K    =  0.002500     cutoff charge density
   TAU     =  0.000000     cavity surface tension
   LAMBDA_D_K    =  3.040000     Debye length in Angstroms
   LRHOB     =     F     write boundcharge  density
   LRHOION     =     F     write ioniccharge density



--------------------------------------------------------------------------------------------------------


 Static calculation
 charge density and potential will be updated during run
 spin polarized calculation
 RMM-DIIS sequential band-by-band and
  variant of blocked Davidson during initial phase
 perform sub-space diagonalisation
    before iterative eigenvector-optimisation
 modified Broyden-mixing scheme, WC =      100.0
 initial mixing is a Kerker type mixing with AMIX =  0.4000 and BMIX =      1.0000
 Hartree-type preconditioning will be used
 using additional bands          146
 real space projection scheme for non local part
 use partial core corrections
 calculate Harris-corrections to forces 
   (improved forces if not selfconsistent)
 use gradient corrections 
 use of overlap-Matrix (Vanderbilt PP)
 Gauss-broadening in eV      SIGMA  =   0.05


--------------------------------------------------------------------------------------------------------


  energy-cutoff  :      550.00
  volume of cell :    12242.83
      direct lattice vectors                 reciprocal lattice vectors
    10.048700000-17.405000000  0.000000000     0.049757680 -0.028727377  0.000000000
    10.048700000 17.405000000  0.000000000     0.049757680  0.028727377  0.000000000
     0.000000000  0.000000000 35.000000000     0.000000000  0.000000000  0.028571429

  length of vectors
    20.097522153 20.097522153 35.000000000     0.057455104  0.057455104  0.028571429


 
 old parameters found on file WAVECAR:
  energy-cutoff  :      550.00
  volume of cell :    12242.83
      direct lattice vectors                 reciprocal lattice vectors
    10.048700000-17.405000000  0.000000000     0.049757680 -0.028727377  0.000000000
    10.048700000 17.405000000  0.000000000     0.049757680  0.028727377  0.000000000
     0.000000000  0.000000000 35.000000000     0.000000000  0.000000000  0.028571429

  length of vectors

 
 k-points in units of 2pi/SCALE and weight: K-Point Grid                            
   0.02487884  0.00000000  0.00000000       0.167
   0.01243942 -0.02154553  0.00000000       0.167
   0.03731826  0.00718184  0.00000000       0.167
   0.00000000  0.01436369  0.00000000       0.167
   0.01243942  0.00718184  0.00000000       0.167
   0.01243942 -0.00718184  0.00000000       0.167
 
 k-points in reciprocal lattice and weights: K-Point Grid                            
   0.25000000  0.25000000  0.00000000       0.167
   0.50000000 -0.25000000  0.00000000       0.167
   0.25000000  0.50000000  0.00000000       0.167
  -0.25000000  0.25000000  0.00000000       0.167
  -0.00000000  0.25000000  0.00000000       0.167
   0.25000000 -0.00000000  0.00000000       0.167
 
 position of ions in fractional coordinates (direct lattice) 
   0.08332125  0.04165863  0.50156400
   0.08333013  0.16666501  0.50152905
   0.08333654  0.29166144  0.50147242
   0.08332376  0.41664985  0.50150449
   0.08331689  0.54164769  0.50160189
   0.08331106  0.66664360  0.50167593
   0.08331402  0.79164775  0.50168192
   0.08331891  0.91665436  0.50163003
   0.20831943  0.04165683  0.50158620
   0.20831875  0.16666289  0.50156365
   0.20832715  0.29167006  0.50151809
   0.20832422  0.41664392  0.50146255
   0.20831952  0.54164474  0.50152002
   0.20831324  0.66664385  0.50163887
   0.20831017  0.79164420  0.50170044
   0.20831409  0.91664964  0.50165990
   0.33331327  0.04165101  0.50162200
   0.33331585  0.16666024  0.50158739
   0.33331063  0.29166771  0.50156237
   0.33330634  0.41663384  0.50150961
   0.33331583  0.54163804  0.50148512
   0.33331929  0.66664711  0.50157436
   0.33331190  0.79164304  0.50168048
   0.33331011  0.91664377  0.50168933
   0.45830903  0.04164217  0.50165951
   0.45831292  0.16665004  0.50160561
   0.45830997  0.29165725  0.50156126
   0.45830646  0.41664977  0.50151348
   0.45831103  0.54163909  0.50149270
   0.45831852  0.66664361  0.50155698
   0.45831780  0.79164565  0.50164626
   0.45831259  0.91664230  0.50168380
   0.58331313  0.04164221  0.50167170
   0.58330795  0.16664120  0.50166334
   0.58330978  0.29164740  0.50161410
   0.58331126  0.41664900  0.50156094
   0.58331377  0.54164555  0.50154760
   0.58332110  0.66664765  0.50159430
   0.58332086  0.79164702  0.50165588
   0.58331797  0.91664523  0.50167084
   0.70831932  0.04164634  0.50165942
   0.70831340  0.16664234  0.50167764
   0.70830804  0.29163884  0.50169371
   0.70830990  0.41664176  0.50166063
   0.70831580  0.54164686  0.50163024
   0.70831938  0.66664718  0.50165288
   0.70832219  0.79164948  0.50169094
   0.70832279  0.91665010  0.50168237
   0.83332609  0.04165397  0.50162941
   0.83332106  0.16664875  0.50162028
   0.83331557  0.29164312  0.50166008
   0.83331075  0.41663921  0.50168981
   0.83331221  0.54164132  0.50167904
   0.83331874  0.66664818  0.50167203
   0.83332118  0.79165054  0.50169119
   0.83332421  0.91665325  0.50167295
   0.95832707  0.04165918  0.50157967
   0.95833118  0.16665864  0.50153773
   0.95832470  0.29165122  0.50155319
   0.95831661  0.41664543  0.50161287
   0.95831179  0.54164175  0.50166378
   0.95831341  0.66664489  0.50167174
   0.95831909  0.79165117  0.50166955
   0.95832198  0.91665506  0.50163852
   0.04165744  0.08332548  0.50152278
   0.04165795  0.20832420  0.50147500
   0.04165305  0.33331919  0.50147383
   0.04164940  0.45831525  0.50155316
   0.04164553  0.58331210  0.50163915
   0.04164688  0.70831324  0.50166668
   0.04165159  0.83331870  0.50164889
   0.04165401  0.95832150  0.50158974
   0.16665336  0.08332219  0.50153978
   0.16665647  0.20832535  0.50152233
   0.16665286  0.33332491  0.50141092
   0.16665372  0.45831834  0.50145711
   0.16664926  0.58331403  0.50157153
   0.16664461  0.70831152  0.50167339
   0.16664697  0.83331463  0.50168128
   0.16665160  0.95831964  0.50160427
   0.29165167  0.08332183  0.50157602
   0.29164957  0.20832384  0.50155288
   0.29164415  0.33331286  0.50147046
   0.29165484  0.45831783  0.50144293
   0.29165442  0.58331819  0.50149423
   0.29164820  0.70831331  0.50162235
   0.29164381  0.83331017  0.50169298
   0.29164769  0.95831562  0.50164584
   0.41664659  0.08331401  0.50161048
   0.41664922  0.20831974  0.50157092
   0.41664816  0.33332004  0.50151126
   0.41664733  0.45831558  0.50145721
   0.41665411  0.58331756  0.50147914
   0.41665430  0.70831665  0.50157368
   0.41664727  0.83331083  0.50166741
   0.41664444  0.95830894  0.50167212
   0.54164382  0.08330763  0.50165572
   0.54164560  0.20831234  0.50160831
   0.54164787  0.33331654  0.50154680
   0.54164880  0.45831601  0.50150320
   0.54165288  0.58331634  0.50151188
   0.54165570  0.70831672  0.50158914
   0.54165288  0.83331413  0.50165095
   0.54164775  0.95831001  0.50165890
   0.66664795  0.08330971  0.50165499
   0.66664264  0.20830595  0.50167888
   0.66664416  0.33330890  0.50165145
   0.66664885  0.45831394  0.50159930
   0.66665169  0.58331533  0.50159511
   0.66665620  0.70831726  0.50164452
   0.66665606  0.83331731  0.50167723
   0.66665269  0.95831402  0.50165659
   0.79165270  0.08331525  0.50162577
   0.79164760  0.20831079  0.50164471
   0.79164332  0.33330617  0.50168574
   0.79164492  0.45830764  0.50167831
   0.79165108  0.58331432  0.50165311
   0.79165434  0.70831659  0.50166966
   0.79165611  0.83331853  0.50168792
   0.79165635  0.95831906  0.50165711
   0.91665750  0.08332243  0.50156252
   0.91665357  0.20831719  0.50155070
   0.91664863  0.33331233  0.50159543
   0.91664500  0.45830920  0.50164953
   0.91664648  0.58331060  0.50166088
   0.91665166  0.70831657  0.50165674
   0.91665438  0.83331946  0.50166038
   0.91665644  0.95832203  0.50161878
   0.27937399  0.23555602  0.67507771
   0.26519957  0.23763730  0.63210982
   0.25679506  0.30764398  0.61970334
   0.34576978  0.29722518  0.68583234
   0.28291195  0.17231170  0.68441674
   0.22208656  0.23464073  0.69540150
   0.32526240  0.23724940  0.61375429
   0.20084399  0.16915034  0.62367911
   0.31897612  0.36818896  0.61473510
   0.18955709  0.29467336  0.61727644
 
 position of ions in cartesian coordinates  (Angst):
   1.25588539 -0.72513790 17.55474011
   2.51212618  1.45044372 17.55351691
   3.76824219  3.62589489 17.55153463
   5.02408485  5.80154054 17.55265705
   6.28008161  7.97724756 17.55606607
   7.53606941 10.15290294 17.55865762
   8.79222829 12.32854856 17.55886724
  10.04843137 14.50420356 17.55705094
   2.51193640 -2.90076261 17.55551685
   3.76807810 -0.72502023 17.55472771
   5.02432196  1.45058344 17.55313302
   6.28011736  3.62580445 17.55118915
   7.53616584  5.80152550 17.55320076
   8.79218134  7.97724427 17.55736049
  10.04824147 10.15292882 17.55951524
  11.30442310 12.32858024 17.55809658
   3.76790364 -5.07638162 17.55676986
   5.02410974 -2.90064098 17.55555853
   6.28021978 -0.72479505 17.55468305
   7.53592389  1.45031523 17.55283650
   8.79214898  3.62584801 17.55197918
  10.04836231  5.80157074 17.55510245
  11.30433476  7.97725351 17.55881663
  12.56041154 10.15292244 17.55912660
   5.02385959 -7.25208681 17.55808284
   6.28006524 -5.07639251 17.55619622
   7.53619565 -2.90059066 17.55464414
   8.79217265 -0.72503454 17.55297193
  10.04819877  1.45032504 17.55224436
  11.30440695  3.62589826 17.55449435
  12.56050779  5.80157123 17.55761894
  13.81650921  7.97722862 17.55893294
   6.27998872 -9.42778242 17.55850941
   7.53601402 -7.25208495 17.55821682
   8.79218217 -5.07638374 17.55649355
  10.04830070 -2.90075652 17.55463302
  11.30437873 -0.72523542 17.55416611
  12.56056098  1.45029860 17.55580044
  13.81663971  3.62591692 17.55795594
  15.07268026  5.80156089 17.55847939
   7.53617992-11.60344324 17.55807968
   8.79216774 -9.42778491 17.55871723
  10.04816628 -7.25212743 17.55927968
  11.30430173 -5.07648392 17.55812219
  12.56049973 -2.90087293 17.55705848
  13.81662648 -0.72530461 17.55785083
  15.07276533  1.45031133 17.55918297
  16.32886503  3.62593680 17.55888291
   8.79241212-13.77905316 17.55702932
  10.04839662-11.60343153 17.55670973
  11.30437240 -9.42780897 17.55810266
  12.56037213 -7.25216820 17.55914325
  13.81649556 -5.07653187 17.55876631
  15.07271752 -2.90090109 17.55852110
  16.32885341 -0.72527749 17.55919152
  17.58499855  1.45034203 17.55855318
  10.04856184-15.95460465 17.55528834
  11.30468522-13.77906064 17.55382045
  12.56063307-11.60345186 17.55436149
  13.81658096 -9.42778689 17.55645058
  15.07258307 -7.25214210 17.55823217
  16.32871848 -5.07649071 17.55851083
  17.58492607 -2.90085516 17.55843432
  18.84108182 -0.72521272 17.55734823
   1.25591587  0.72523238 17.55329737
   2.51199565  2.90082604 17.55162483
   3.76798354  5.07644916 17.55158401
   5.02399486  7.25206910 17.55436053
   6.28001178  9.42770670 17.55737037
   7.53612425 11.60332802 17.55833385
   8.79231397 13.77896617 17.55771099
  10.04845383 15.95459767 17.55564074
   2.51192926 -1.45037897 17.55389245
   3.76807976  0.72524689 17.55328146
   5.02412662  2.90092708 17.54938233
   6.28015676  5.07642271 17.55099876
   7.53615611  7.25205046 17.55500344
   8.79217169  9.42771245 17.55856868
  10.04831408 11.60335061 17.55884484
  11.30449848 13.77898214 17.55614934
   3.76799625 -3.62598086 17.55516075
   5.02408279 -1.45028424 17.55435094
   6.28000549  0.72524385 17.55146615
   7.53625039  2.90076939 17.55050260
   8.79233725  5.07640801 17.55229820
  10.04831326  7.25205627 17.55678211
  11.30432506  9.42770287 17.55925437
  12.56050629 11.60335521 17.55760423
   5.02395407 -5.80165351 17.55636681
   6.28012564 -3.62597457 17.55498219
   7.53620553 -1.45032593 17.55289396
   8.79223982  0.72523594 17.55100222
  10.04841529  2.90077731 17.55176977
  11.30449562  5.07638310 17.55507871
  12.56045401  7.25202935 17.55835944
  13.81649396  9.42767068 17.55852411
   6.27994963 -7.97734131 17.55795022
   7.53610229 -5.80166537 17.55629070
   8.79225479 -3.62600680 17.55413810
  10.04834641 -1.45040722 17.55261210
  11.30447815  0.72515256 17.55291594
  12.56059783  2.90073510 17.55561996
  13.81663101  5.07636406 17.55778321
  15.07262556  7.25200666 17.55806142
   7.53609955-10.15300192 17.55792451
   8.79209582 -7.97735007 17.55876079
  10.04822837 -5.80170019 17.55780061
  11.30441358 -3.62606912 17.55597536
  12.56054368 -1.45046935 17.55582871
  13.81669581  0.72511065 17.55755804
  15.07278242  2.90073899 17.55870313
  16.32880297  5.07636559 17.55798059
   8.79229047-12.32861327 17.55690199
  10.04828187-10.15297728 17.55756502
  11.30427993 -7.97735816 17.55900101
  12.56039828 -5.80173531 17.55874083
  13.81661480 -3.62610131 17.55785880
  15.07275788 -1.45049342 17.55843812
  16.32888274  0.72513446 17.55907709
  17.58497792  2.90076437 17.55799881
  10.04849829-14.50419694 17.55468806
  11.30449375-12.32859468 17.55427446
  12.56048272-10.15296820 17.55583990
  13.81650227 -7.97733449 17.55773347
  15.07261868 -5.80171100 17.55813071
  16.32881828 -3.62607225 17.55798579
  17.58496212 -1.45044415 17.55811316
  18.84109612  0.72518950 17.55665731
   5.17437722 -0.76265167 23.62771982
   5.05285692 -0.47972133 22.12384377
   5.67187854  0.88502544 21.68961688
   6.46126346 -0.84491864 24.00413182
   4.57440589 -1.92499737 23.95458605
   4.58951548  0.21850522 24.33905267
   5.65251234 -1.53186641 21.48140013
   3.71796206 -0.55162800 21.82876870
   6.90511573  0.85654935 21.51572864
   4.86588649  1.82954868 21.60467548
 


--------------------------------------------------------------------------------------------------------


 k-point  1 :   0.2500 0.2500 0.0000  plane waves:  358590
 k-point  2 :   0.5000-0.2500 0.0000  plane waves:  358584
 k-point  3 :   0.2500 0.5000 0.0000  plane waves:  358584
 k-point  4 :  -0.2500 0.2500 0.0000  plane waves:  358603
 k-point  5 :  -0.0000 0.2500 0.0000  plane waves:  358599
 k-point  6 :   0.2500-0.0000 0.0000  plane waves:  358599

 maximum and minimum number of plane-waves per node :    358603   358584

 maximum number of plane-waves:    358603
 maximum index in each direction: 
   IXMAX=   38   IYMAX=   38   IZMAX=   66
   IXMIN=  -38   IYMIN=  -38   IZMIN=  -66


 serial   3D FFT for wavefunctions
 parallel 3D FFT for charge:
    minimum data exchange during FFTs selected (reduces bandwidth)


 total amount of memory used by VASP MPI-rank0  1926194. kBytes
=======================================================================

   base      :      30000. kBytes
   nonlr-proj:      63777. kBytes
   fftplans  :      68224. kBytes
   grid      :    1141764. kBytes
   one-center:        847. kBytes
   wavefun   :     621582. kBytes
 
     INWAV:  cpu time   72.6160: real time   86.2050
 Broyden mixing: mesh for mixing (old mesh)
   NGX = 77   NGY = 77   NGZ =133
  (NGX  =320   NGY  =320   NGZ  =540)
  gives a total of 788557 points

 charge density for first step will be calculated from the start-wavefunctions


--------------------------------------------------------------------------------------------------------


 Maximum index for non-local projection operator         6396
 Maximum index for augmentation-charges          433 (set IRDMAX)


--------------------------------------------------------------------------------------------------------


 initial charge from wavefunction
 First call to EWALD:  gamma=   0.077
 Maximum number of real-space cells 3x 3x 2
 Maximum number of reciprocal cells 2x 2x 4

    FEWALD:  cpu time    0.0061: real time    0.0054


--------------------------------------- Iteration      1(   1)  ---------------------------------------


    POTLOK:  cpu time   63.9888: real time   80.4287
    SETDIJ:  cpu time    1.2466: real time    1.0509
     EDDAV:  cpu time  814.8898: real time  608.8379
       DOS:  cpu time    0.0064: real time    0.0032
    CHARGE:  cpu time  105.2630: real time  104.0491
    MIXING:  cpu time    0.0351: real time    0.0351
    --------------------------------------------
      LOOP:  cpu time  985.4297: real time  794.4050

 eigenvalue-minimisations  : 10368
 total energy-change (2. order) :-0.1328708E+04  (-0.6725824E-02)
 number of electron     570.9999973 magnetization       0.0000111
 augmentation part       22.4715909 magnetization      -0.0000252

 Broyden mixing:
  rms(total) = 0.15736E-01    rms(broyden)= 0.15709E-01
  rms(prec ) = 0.15878E-01
  weight for this iteration     100.00

 Free energy of the ion-electron system (eV)
  ---------------------------------------------------
  alpha Z        PSCENC =       143.65704873
  Ewald energy   TEWEN  =    181383.85379512
  -Hartree energ DENC   =   -203586.12738596
  -exchange      EXHF   =         0.00000000
  -V(xc)+E(xc)   XCENC  =      2560.09925511
  PAW double counting   =     67727.47638570   -67993.34733462
  entropy T*S    EENTRO =        -0.02310741
  eigenvalues    EBANDS =     -8041.16855614
  atomic energy  EATOM  =     26089.46230379
  Solvation  Ediel_sol  =       387.40981490
  ---------------------------------------------------
  free energy    TOTEN  =     -1328.70778078 eV

  energy without entropy =    -1328.68467337  energy(sigma->0) =    -1328.69622708


--------------------------------------------------------------------------------------------------------




--------------------------------------- Iteration      1(   2)  ---------------------------------------


    POTLOK:  cpu time   48.1164: real time   48.2194
    SETDIJ:  cpu time    1.2484: real time    1.0529
    EDDIAG:  cpu time  166.1266: real time  138.2895
  RMM-DIIS:  cpu time  939.3575: real time  773.0897
    ORTHCH:  cpu time    9.8957: real time    4.9651
       DOS:  cpu time    0.0030: real time    0.0015
    CHARGE:  cpu time  105.0126: real time  103.8073
    MIXING:  cpu time    0.0355: real time    0.0357
    --------------------------------------------
      LOOP:  cpu time 1269.7957: real time 1069.4612

 eigenvalue-minimisations  : 10675
 total energy-change (2. order) : 0.7527296E-04  (-0.9271429E-04)
 number of electron     570.9999973 magnetization       0.0000157
 augmentation part       22.4711178 magnetization      -0.0001054

 Broyden mixing:
  rms(total) = 0.13797E-01    rms(broyden)= 0.13783E-01
  rms(prec ) = 0.14284E-01
  weight for this iteration     100.00

 eigenvalues of (default mixing * dielectric matrix)
  average eigenvalue GAMMA=   0.6726
  0.6726

 Free energy of the ion-electron system (eV)
  ---------------------------------------------------
  alpha Z        PSCENC =       143.65704873
  Ewald energy   TEWEN  =    181383.85379512
  -Hartree energ DENC   =   -203586.11345230
  -exchange      EXHF   =         0.00000000
  -V(xc)+E(xc)   XCENC  =      2560.14348640
  PAW double counting   =     67758.21789628   -68024.06505398
  entropy T*S    EENTRO =        -0.02190639
  eigenvalues    EBANDS =     -8041.34287305
  atomic energy  EATOM  =     26089.46230379
  Solvation  Ediel_sol  =       387.50104989
  ---------------------------------------------------
  free energy    TOTEN  =     -1328.70770551 eV

  energy without entropy =    -1328.68579912  energy(sigma->0) =    -1328.69675232


--------------------------------------------------------------------------------------------------------




--------------------------------------- Iteration      1(   3)  ---------------------------------------


    POTLOK:  cpu time   49.9216: real time   50.0318
    SETDIJ:  cpu time    1.2444: real time    1.0483
    EDDIAG:  cpu time  165.7396: real time  137.8684
  RMM-DIIS:  cpu time  919.8580: real time  765.1725
    ORTHCH:  cpu time    9.8823: real time    4.9584
       DOS:  cpu time    0.0034: real time    0.0017
    CHARGE:  cpu time  104.7439: real time  103.5356
    MIXING:  cpu time    0.0348: real time    0.0349
    --------------------------------------------
      LOOP:  cpu time 1251.4279: real time 1062.6516

 eigenvalue-minimisations  : 10173
 total energy-change (2. order) :-0.1205530E-03  (-0.4292573E-04)
 number of electron     570.9999973 magnetization       0.0000447
 augmentation part       22.4639642 magnetization      -0.0004874

 Broyden mixing:
  rms(total) = 0.28606E-01    rms(broyden)= 0.28563E-01
  rms(prec ) = 0.30248E-01
  weight for this iteration     100.00

 eigenvalues of (default mixing * dielectric matrix)
  average eigenvalue GAMMA=   1.2185
  2.2709  0.1662

 Free energy of the ion-electron system (eV)
  ---------------------------------------------------
  alpha Z        PSCENC =       143.65704873
  Ewald energy   TEWEN  =    181383.85379512
  -Hartree energ DENC   =   -203585.96225367
  -exchange      EXHF   =         0.00000000
  -V(xc)+E(xc)   XCENC  =      2560.14152226
  PAW double counting   =     67769.43149057   -68035.27050745
  entropy T*S    EENTRO =        -0.02537713
  eigenvalues    EBANDS =     -8041.48736345
  atomic energy  EATOM  =     26089.46230379
  Solvation  Ediel_sol  =       387.49151516
  ---------------------------------------------------
  free energy    TOTEN  =     -1328.70782606 eV

  energy without entropy =    -1328.68244894  energy(sigma->0) =    -1328.69513750


--------------------------------------------------------------------------------------------------------




--------------------------------------- Iteration      1(   4)  ---------------------------------------


    POTLOK:  cpu time   51.1589: real time   51.2720
    SETDIJ:  cpu time    1.2372: real time    1.0417
    EDDIAG:  cpu time  166.1288: real time  138.2874
  RMM-DIIS:  cpu time  934.3979: real time  767.7996
    ORTHCH:  cpu time    9.9021: real time    4.9687
       DOS:  cpu time    0.0032: real time    0.0016
    CHARGE:  cpu time  104.9264: real time  103.7175
    MIXING:  cpu time    0.0364: real time    0.0370
    --------------------------------------------
      LOOP:  cpu time 1267.7909: real time 1067.1256

 eigenvalue-minimisations  : 10690
 total energy-change (2. order) : 0.2412553E-03  (-0.9919970E-04)
 number of electron     570.9999973 magnetization       0.0001706
 augmentation part       22.4682872 magnetization      -0.0012703

 Broyden mixing:
  rms(total) = 0.37514E-02    rms(broyden)= 0.35933E-02
  rms(prec ) = 0.37847E-02
  weight for this iteration     100.00

 eigenvalues of (default mixing * dielectric matrix)
  average eigenvalue GAMMA=   1.2417
  2.3312  1.2319  0.1621

 Free energy of the ion-electron system (eV)
  ---------------------------------------------------
  alpha Z        PSCENC =       143.65704873
  Ewald energy   TEWEN  =    181383.85379512
  -Hartree energ DENC   =   -203585.62977604
  -exchange      EXHF   =         0.00000000
  -V(xc)+E(xc)   XCENC  =      2560.08529083
  PAW double counting   =     67799.81450946   -68065.62796451
  entropy T*S    EENTRO =        -0.02256247
  eigenvalues    EBANDS =     -8041.93572780
  atomic energy  EATOM  =     26089.46230379
  Solvation  Ediel_sol  =       387.63549807
  ---------------------------------------------------
  free energy    TOTEN  =     -1328.70758481 eV

  energy without entropy =    -1328.68502234  energy(sigma->0) =    -1328.69630357


--------------------------------------------------------------------------------------------------------




--------------------------------------- Iteration      1(   5)  ---------------------------------------


    POTLOK:  cpu time   50.3445: real time   50.4567
    SETDIJ:  cpu time    1.2329: real time    1.0374
    EDDIAG:  cpu time  165.6302: real time  137.7752
  RMM-DIIS:  cpu time  917.0129: real time  760.4409
    ORTHCH:  cpu time    9.8839: real time    4.9594
       DOS:  cpu time    0.0034: real time    0.0017
    CHARGE:  cpu time  105.0293: real time  103.8191
    MIXING:  cpu time    0.0366: real time    0.0366
    --------------------------------------------
      LOOP:  cpu time 1249.1736: real time 1058.5271

 eigenvalue-minimisations  : 10267
 total energy-change (2. order) :-0.3353847E-03  (-0.4832032E-04)
 number of electron     570.9999973 magnetization       0.0002195
 augmentation part       22.4688955 magnetization      -0.0057977

 Broyden mixing:
  rms(total) = 0.33987E-02    rms(broyden)= 0.33911E-02
  rms(prec ) = 0.34594E-02
  weight for this iteration     100.00

 eigenvalues of (default mixing * dielectric matrix)
  average eigenvalue GAMMA=   1.0005
  2.3324  1.2889  0.1623  0.2185

 Free energy of the ion-electron system (eV)
  ---------------------------------------------------
  alpha Z        PSCENC =       143.65704873
  Ewald energy   TEWEN  =    181383.85379512
  -Hartree energ DENC   =   -203585.36016597
  -exchange      EXHF   =         0.00000000
  -V(xc)+E(xc)   XCENC  =      2560.08629233
  PAW double counting   =     67802.35155498   -68068.16307274
  entropy T*S    EENTRO =        -0.02269981
  eigenvalues    EBANDS =     -8042.23396311
  atomic energy  EATOM  =     26089.46230379
  Solvation  Ediel_sol  =       387.66098649
  ---------------------------------------------------
  free energy    TOTEN  =     -1328.70792019 eV

  energy without entropy =    -1328.68522039  energy(sigma->0) =    -1328.69657029


--------------------------------------------------------------------------------------------------------




--------------------------------------- Iteration      1(   6)  ---------------------------------------


    POTLOK:  cpu time   45.7578: real time   45.8553
    SETDIJ:  cpu time    1.2383: real time    1.0429
    EDDIAG:  cpu time  166.1263: real time  138.2770
  RMM-DIIS:  cpu time  828.4228: real time  699.1524
    ORTHCH:  cpu time    9.9409: real time    4.9876
       DOS:  cpu time    0.0031: real time    0.0016
    --------------------------------------------
      LOOP:  cpu time 1051.4893: real time  889.3167

 eigenvalue-minimisations  :  8597
 total energy-change (2. order) :-0.7278490E-05  (-0.5108219E-05)
 number of electron     570.9999973 magnetization       0.0002195
 augmentation part       22.4688955 magnetization      -0.0057977

 Free energy of the ion-electron system (eV)
  ---------------------------------------------------
  alpha Z        PSCENC =       143.65704873
  Ewald energy   TEWEN  =    181383.85379512
  -Hartree energ DENC   =   -203585.35707029
  -exchange      EXHF   =         0.00000000
  -V(xc)+E(xc)   XCENC  =      2560.09081920
  PAW double counting   =     67802.47261550   -68068.28413602
  entropy T*S    EENTRO =        -0.02273669
  eigenvalues    EBANDS =     -8042.24216140
  atomic energy  EATOM  =     26089.46230379
  Solvation  Ediel_sol  =       387.66159459
  ---------------------------------------------------
  free energy    TOTEN  =     -1328.70792747 eV

  energy without entropy =    -1328.68519078  energy(sigma->0) =    -1328.69655913


--------------------------------------------------------------------------------------------------------




 average (electrostatic) potential at core
  the test charge radii are     0.7672  0.7089  0.6991  0.7167  0.7215
  (the norm of the test charge is              1.0000)
       1 -38.7141       2 -38.7103       3 -38.7078       4 -38.7120       5 -38.7154
       6 -38.7168       7 -38.7170       8 -38.7162       9 -38.7150      10 -38.7107
      11 -38.7027      12 -38.7055      13 -38.7126      14 -38.7160      15 -38.7169
      16 -38.7165      17 -38.7160      18 -38.7133      19 -38.7057      20 -38.7031
      21 -38.7098      22 -38.7148      23 -38.7167      24 -38.7170      25 -38.7168
      26 -38.7156      27 -38.7123      28 -38.7089      29 -38.7105      30 -38.7143
      31 -38.7164      32 -38.7171      33 -38.7172      34 -38.7168      35 -38.7156
      36 -38.7139      37 -38.7136      38 -38.7150      39 -38.7164      40 -38.7171
      41 -38.7170      42 -38.7170      43 -38.7168      44 -38.7163      45 -38.7160
      46 -38.7162      47 -38.7166      48 -38.7169      49 -38.7160      50 -38.7159
      51 -38.7163      52 -38.7168      53 -38.7170      54 -38.7170      55 -38.7168
      56 -38.7165      57 -38.7145      58 -38.7132      59 -38.7138      60 -38.7156
      61 -38.7168      62 -38.7172      63 -38.7170      64 -38.7161      65 -76.2842
      66 -76.2818      67 -76.2826      68 -76.2855      69 -76.2870      70 -76.2873
      71 -76.2872      72 -76.2862      73 -76.2853      74 -76.2802      75 -76.2743
      76 -76.2817      77 -76.2857      78 -76.2871      79 -76.2871      80 -76.2865
      81 -76.2859      82 -76.2828      83 -76.2717      84 -76.2766      85 -76.2838
      86 -76.2865      87 -76.2871      88 -76.2870      89 -76.2866      90 -76.2853
      91 -76.2800      92 -76.2780      93 -76.2828      94 -76.2860      95 -76.2872
      96 -76.2872      97 -76.2873      98 -76.2866      99 -76.2847     100 -76.2834
     101 -76.2841     102 -76.2861     103 -76.2871     104 -76.2874     105 -76.2874
     106 -76.2871     107 -76.2868     108 -76.2862     109 -76.2861     110 -76.2866
     111 -76.2870     112 -76.2873     113 -76.2869     114 -76.2869     115 -76.2870
     116 -76.2870     117 -76.2871     118 -76.2871     119 -76.2870     120 -76.2869
     121 -76.2853     122 -76.2854     123 -76.2860     124 -76.2869     125 -76.2874
     126 -76.2874     127 -76.2871     128 -76.2863     129 -67.3120     130 -65.3287
     131 -63.5085     132 -91.8677     133 -91.8281     134 -91.8751     135 -91.2317
     136 -91.2281     137 -83.5142     138 -83.5231
 
 
 
 E-fermi :  -6.3164     XC(G=0):  -1.3017     alpha+bet : -1.0975


 spin component 1

 k-point     1 :       0.2500    0.2500    0.0000
  band No.  band energies     occupation 
      1     -35.5644      1.00000
      2     -33.9122      1.00000
      3     -33.2500      1.00000
      4     -33.1711      1.00000
      5     -32.3871      1.00000
      6     -27.9449      1.00000
      7     -25.7339      1.00000
      8     -24.8861      1.00000
      9     -24.8098      1.00000
     10     -24.8070      1.00000
     11     -24.5784      1.00000
     12     -24.5778      1.00000
     13     -24.4267      1.00000
     14     -24.3533      1.00000
     15     -24.3505      1.00000
     16     -24.2036      1.00000
     17     -24.2034      1.00000
     18     -24.1306      1.00000
     19     -24.1299      1.00000
     20     -23.7713      1.00000
     21     -23.7711      1.00000
     22     -23.7021      1.00000
     23     -23.7021      1.00000
     24     -23.5621      1.00000
     25     -23.4971      1.00000
     26     -23.4943      1.00000
     27     -23.3007      1.00000
     28     -23.3001      1.00000
     29     -23.2936      1.00000
     30     -23.2935      1.00000
     31     -23.1083      1.00000
     32     -23.1083      1.00000
     33     -22.9885      1.00000
     34     -22.9884      1.00000
     35     -22.7335      1.00000
     36     -22.7334      1.00000
     37     -22.5841      1.00000
     38     -22.5841      1.00000
     39     -22.4897      1.00000
     40     -22.4893      1.00000
     41     -22.4525      1.00000
     42     -22.4117      1.00000
     43     -22.4090      1.00000
     44     -22.2913      1.00000
     45     -22.2907      1.00000
     46     -22.1592      1.00000
     47     -22.1588      1.00000
     48     -22.1290      1.00000
     49     -22.1289      1.00000
     50     -22.1152      1.00000
     51     -22.1150      1.00000
     52     -21.9775      1.00000
     53     -21.9750      1.00000
     54     -21.9165      1.00000
     55     -21.9164      1.00000
     56     -21.7661      1.00000
     57     -21.7344      1.00000
     58     -21.7343      1.00000
     59     -21.6942      1.00000
     60     -21.6924      1.00000
     61     -21.6897      1.00000
     62     -21.6886      1.00000
     63     -21.5998      1.00000
     64     -21.5994      1.00000
     65     -21.5241      1.00000
     66     -21.5215      1.00000
     67     -21.5054      1.00000
     68     -21.4987      1.00000
     69     -21.3611      1.00000
     70     -21.3585      1.00000
     71     -21.2353      1.00000
     72     -20.7239      1.00000
     73     -18.0065      1.00000
     74     -16.1951      1.00000
     75     -15.8927      1.00000
     76     -15.8239      1.00000
     77     -15.4495      1.00000
     78     -15.3672      1.00000
     79     -15.3671      1.00000
     80     -15.2893      1.00000
     81     -15.2892      1.00000
     82     -15.1762      1.00000
     83     -15.1760      1.00000
     84     -15.1110      1.00000
     85     -15.1085      1.00000
     86     -15.0650      1.00000
     87     -14.9686      1.00000
     88     -14.9593      1.00000
     89     -14.9593      1.00000
     90     -14.7901      1.00000
     91     -14.7876      1.00000
     92     -14.7797      1.00000
     93     -14.7779      1.00000
     94     -14.5562      1.00000
     95     -14.5561      1.00000
     96     -14.5440      1.00000
     97     -14.5431      1.00000
     98     -14.4888      1.00000
     99     -14.4718      1.00000
    100     -14.4402      1.00000
    101     -14.4400      1.00000
    102     -14.4215      1.00000
    103     -14.3342      1.00000
    104     -14.3341      1.00000
    105     -14.2166      1.00000
    106     -14.2162      1.00000
    107     -14.0773      1.00000
    108     -14.0770      1.00000
    109     -13.9083      1.00000
    110     -13.9082      1.00000
    111     -13.8583      1.00000
    112     -13.8563      1.00000
    113     -13.7183      1.00000
    114     -13.5397      1.00000
    115     -13.3275      1.00000
    116     -13.3274      1.00000
    117     -13.3023      1.00000
    118     -13.3011      1.00000
    119     -13.1608      1.00000
    120     -13.1607      1.00000
    121     -13.0402      1.00000
    122     -12.9942      1.00000
    123     -12.9941      1.00000
    124     -12.6560      1.00000
    125     -12.6558      1.00000
    126     -12.6084      1.00000
    127     -12.6067      1.00000
    128     -12.4708      1.00000
    129     -12.4707      1.00000
    130     -12.4463      1.00000
    131     -12.3240      1.00000
    132     -12.2481      1.00000
    133     -12.2268      1.00000
    134     -12.2267      1.00000
    135     -12.1878      1.00000
    136     -12.1444      1.00000
    137     -12.1385      1.00000
    138     -12.1359      1.00000
    139     -12.0121      1.00000
    140     -12.0102      1.00000
    141     -11.8102      1.00000
    142     -11.8100      1.00000
    143     -11.7991      1.00000
    144     -11.7987      1.00000
    145     -11.6900      1.00000
    146     -11.6304      1.00000
    147     -11.6250      1.00000
    148     -11.6250      1.00000
    149     -11.5371      1.00000
    150     -11.5209      1.00000
    151     -11.5165      1.00000
    152     -11.5164      1.00000
    153     -11.4183      1.00000
    154     -11.4168      1.00000
    155     -11.3513      1.00000
    156     -11.3486      1.00000
    157     -11.3480      1.00000
    158     -11.3210      1.00000
    159     -11.3192      1.00000
    160     -11.2231      1.00000
    161     -11.2230      1.00000
    162     -11.1083      1.00000
    163     -11.1072      1.00000
    164     -11.0935      1.00000
    165     -11.0550      1.00000
    166     -11.0549      1.00000
    167     -11.0016      1.00000
    168     -10.9033      1.00000
    169     -10.8041      1.00000
    170     -10.8026      1.00000
    171     -10.7970      1.00000
    172     -10.7968      1.00000
    173     -10.7860      1.00000
    174     -10.7774      1.00000
    175     -10.7251      1.00000
    176     -10.7027      1.00000
    177     -10.7001      1.00000
    178     -10.6282      1.00000
    179     -10.6281      1.00000
    180     -10.6024      1.00000
    181     -10.6005      1.00000
    182     -10.5639      1.00000
    183     -10.5637      1.00000
    184     -10.5383      1.00000
    185     -10.5381      1.00000
    186     -10.5041      1.00000
    187     -10.5016      1.00000
    188     -10.4847      1.00000
    189     -10.4807      1.00000
    190     -10.4806      1.00000
    191     -10.4525      1.00000
    192     -10.4520      1.00000
    193     -10.4411      1.00000
    194     -10.4410      1.00000
    195     -10.3074      1.00000
    196     -10.2625      1.00000
    197     -10.2623      1.00000
    198     -10.0658      1.00000
    199     -10.0533      1.00000
    200     -10.0532      1.00000
    201     -10.0125      1.00000
    202     -10.0109      1.00000
    203     -10.0000      1.00000
    204      -9.9999      1.00000
    205      -9.9177      1.00000
    206      -9.9162      1.00000
    207      -9.9053      1.00000
    208      -9.9035      1.00000
    209      -9.8616      1.00000
    210      -9.8600      1.00000
    211      -9.7720      1.00000
    212      -9.7717      1.00000
    213      -9.7264      1.00000
    214      -9.6711      1.00000
    215      -9.6353      1.00000
    216      -9.6289      1.00000
    217      -9.6047      1.00000
    218      -9.6046      1.00000
    219      -9.5475      1.00000
    220      -9.5330      1.00000
    221      -9.5329      1.00000
    222      -9.3630      1.00000
    223      -9.3618      1.00000
    224      -9.3546      1.00000
    225      -9.3542      1.00000
    226      -9.0951      1.00000
    227      -9.0946      1.00000
    228      -9.0712      1.00000
    229      -9.0707      1.00000
    230      -8.9555      1.00000
    231      -8.9552      1.00000
    232      -8.9416      1.00000
    233      -8.9415      1.00000
    234      -8.9262      1.00000
    235      -8.9258      1.00000
    236      -8.6676      1.00000
    237      -8.6659      1.00000
    238      -8.6466      1.00000
    239      -8.5690      1.00000
    240      -8.5687      1.00000
    241      -8.3634      1.00000
    242      -8.3630      1.00000
    243      -8.3517      1.00000
    244      -8.3516      1.00000
    245      -8.2326      1.00000
    246      -8.2315      1.00000
    247      -8.2135      1.00000
    248      -8.2127      1.00000
    249      -8.1664      1.00000
    250      -8.1049      1.00000
    251      -8.1019      1.00000
    252      -7.9285      1.00000
    253      -7.9275      1.00000
    254      -7.9241      1.00000
    255      -7.9234      1.00000
    256      -7.9126      1.00000
    257      -7.7769      1.00000
    258      -7.7360      1.00000
    259      -7.7353      1.00000
    260      -7.6885      1.00000
    261      -7.6883      1.00000
    262      -7.6567      1.00000
    263      -7.6565      1.00000
    264      -7.4480      1.00000
    265      -7.4450      1.00000
    266      -7.3515      1.00000
    267      -7.3512      1.00000
    268      -7.1167      1.00000
    269      -7.0716      1.00000
    270      -7.0706      1.00000
    271      -7.0245      1.00000
    272      -7.0236      1.00000
    273      -7.0228      1.00000
    274      -7.0208      1.00000
    275      -6.9623      1.00000
    276      -6.8669      1.00000
    277      -6.8653      1.00000
    278      -6.7563      1.00000
    279      -6.7527      1.00000
    280      -6.7210      1.00000
    281      -6.7197      1.00000
    282      -6.5564      1.00000
    283      -6.4948      1.00000
    284      -6.4919      1.00000
    285      -6.3887      0.97957
    286      -6.2846      0.18447
    287      -0.9399      0.00000
    288      -0.9189      0.00000
    289      -0.8408      0.00000
    290      -0.8037      0.00000
    291      -0.7977      0.00000
    292      -0.7971      0.00000
    293      -0.7915      0.00000
    294      -0.7721      0.00000
[...]
      8.79231     13.77897     17.55771        -0.000604     -0.000547      0.007617
     10.04845     15.95460     17.55564        -0.000592     -0.000203      0.007348
      2.51193     -1.45038     17.55389        -0.000355     -0.000480      0.010192
      3.76808      0.72525     17.55328        -0.000849     -0.000545      0.007417
      5.02413      2.90093     17.54938        -0.001228     -0.000607      0.003213
      6.28016      5.07642     17.55100        -0.000293     -0.000126      0.007275
      7.53616      7.25205     17.55500         0.000131      0.000096      0.006417
      8.79217      9.42771     17.55857         0.000110     -0.000735      0.005977
     10.04831     11.60335     17.55884        -0.000165     -0.000380      0.005979
     11.30450     13.77898     17.55615        -0.000267     -0.000264      0.007702
      3.76800     -3.62598     17.55516        -0.000706     -0.000517      0.008261
      5.02408     -1.45028     17.55435        -0.000547     -0.001399      0.011714
      6.28001      0.72524     17.55147         0.000019     -0.000546      0.002431
      7.53625      2.90077     17.55050        -0.000936      0.000319      0.006588
      8.79234      5.07641     17.55230        -0.001108      0.000008      0.007491
     10.04831      7.25206     17.55678        -0.000359     -0.000432      0.006887
     11.30433      9.42770     17.55925         0.000737     -0.000207      0.005974
     12.56051     11.60336     17.55760        -0.000735     -0.000481      0.007134
      5.02395     -5.80165     17.55637         0.000011     -0.000631      0.007422
      6.28013     -3.62597     17.55498        -0.000721     -0.000855      0.007100
      7.53621     -1.45033     17.55289        -0.000685     -0.001048      0.010245
      8.79224      0.72524     17.55100        -0.000079     -0.000091      0.008680
     10.04842      2.90078     17.55177        -0.000643     -0.000110      0.007141
     11.30450      5.07638     17.55508        -0.000844     -0.000206      0.007351
     12.56045      7.25203     17.55836         0.000050     -0.000230      0.006249
     13.81649      9.42767     17.55852         0.000096     -0.000123      0.006564
      6.27995     -7.97734     17.55795         0.000168      0.000000      0.006617
      7.53610     -5.80167     17.55629         0.000074     -0.000651      0.007612
      8.79225     -3.62601     17.55414        -0.000414     -0.000673      0.008245
     10.04835     -1.45041     17.55261         0.000071     -0.000157      0.008113
     11.30448      0.72515     17.55292         0.000039      0.000221      0.007775
     12.56060      2.90074     17.55562        -0.000497     -0.000027      0.006609
     13.81663      5.07636     17.55778        -0.000368     -0.000088      0.006435
     15.07263      7.25201     17.55806        -0.000247     -0.000268      0.007952
      7.53610    -10.15300     17.55792        -0.000226     -0.000082      0.007498
      8.79210     -7.97735     17.55876         0.000576     -0.000005      0.005896
     10.04823     -5.80170     17.55780         0.000243     -0.000363      0.006408
     11.30441     -3.62607     17.55598        -0.000373     -0.000523      0.007214
     12.56054     -1.45047     17.55583        -0.000068     -0.000458      0.006636
     13.81670      0.72511     17.55756        -0.000427     -0.000084      0.006065
     15.07278      2.90074     17.55870        -0.000797     -0.000179      0.006163
     16.32880      5.07637     17.55798        -0.000508     -0.000071      0.007656
      8.79229    -12.32861     17.55690        -0.000284     -0.000284      0.006378
     10.04828    -10.15298     17.55757        -0.000285     -0.000559      0.006959
     11.30428     -7.97736     17.55900         0.000523     -0.000110      0.005922
     12.56040     -5.80174     17.55874         0.000442      0.000119      0.006227
     13.81661     -3.62610     17.55786        -0.000876     -0.000396      0.006831
     15.07276     -1.45049     17.55844        -0.000596      0.000063      0.006586
     16.32888      0.72513     17.55908        -0.000424     -0.000017      0.006336
     17.58498      2.90076     17.55800        -0.000557     -0.000271      0.006614
     10.04850    -14.50420     17.55469        -0.001275     -0.000368      0.006727
     11.30449    -12.32859     17.55427        -0.000630      0.000218      0.006177
     12.56048    -10.15297     17.55584         0.000062      0.000217      0.006894
     13.81650     -7.97733     17.55773         0.000006     -0.000235      0.006805
     15.07262     -5.80171     17.55813        -0.000131     -0.000105      0.007640
     16.32882     -3.62607     17.55799        -0.000609     -0.000549      0.008045
     17.58496     -1.45044     17.55811        -0.000599     -0.000248      0.007016
     18.84110      0.72519     17.55666        -0.000630     -0.000387      0.006876
      5.17438     -0.76265     23.62772         0.000714     -0.000527     -0.007288
      5.05286     -0.47972     22.12384         0.002555     -0.003847      0.010268
      5.67188      0.88503     21.68962         0.008995     -0.003384      0.005912
      6.46126     -0.84492     24.00413        -0.005730     -0.005681     -0.007496
      4.57441     -1.92500     23.95459         0.004550      0.015841     -0.008323
      4.58952      0.21851     24.33905        -0.007827     -0.002236      0.002575
      5.65251     -1.53187     21.48140        -0.003313      0.012266     -0.010001
      3.71796     -0.55163     21.82877         0.004252     -0.004949     -0.005256
      6.90512      0.85655     21.51573        -0.004068     -0.004796     -0.011095
      4.86589      1.82955     21.60468        -0.007408     -0.001845     -0.008999
 -----------------------------------------------------------------------------------
    total drift:                                0.079248      0.006314      0.263635


--------------------------------------------------------------------------------------------------------



  FREE ENERGIE OF THE ION-ELECTRON SYSTEM (eV)
  ---------------------------------------------------
  free  energy   TOTEN  =     -1328.70792747 eV

  energy  without entropy=    -1328.68519078  energy(sigma->0) =    -1328.69655913
 


--------------------------------------------------------------------------------------------------------


    POTLOK:  cpu time   46.0380: real time   45.9393


--------------------------------------------------------------------------------------------------------


 writing wavefunctions
     LOOP+:  cpu time 9905.9101: real time 8585.5975
    4ORBIT:  cpu time    0.0000: real time    0.0000
 


 total charge     
 
# of ion       s       p       d       tot
------------------------------------------
    1        0.744   1.393   0.000   2.137
    2        0.744   1.393   0.000   2.137
    3        0.744   1.393   0.000   2.137
    4        0.744   1.393   0.000   2.137
    5        0.744   1.393   0.000   2.137
    6        0.744   1.393   0.000   2.137
    7        0.744   1.393   0.000   2.137
    8        0.744   1.393   0.000   2.137
    9        0.744   1.393   0.000   2.137
   10        0.744   1.393   0.000   2.137
   11        0.744   1.393   0.000   2.137
   12        0.744   1.393   0.000   2.137
   13        0.744   1.393   0.000   2.137
   14        0.744   1.393   0.000   2.137
   15        0.744   1.393   0.000   2.137
   16        0.744   1.393   0.000   2.137
   17        0.744   1.393   0.000   2.137
   18        0.744   1.393   0.000   2.137
   19        0.744   1.393   0.000   2.137
   20        0.744   1.393   0.000   2.136
   21        0.744   1.393   0.000   2.137
   22        0.744   1.393   0.000   2.137
   23        0.744   1.393   0.000   2.137
   24        0.744   1.393   0.000   2.137
   25        0.744   1.393   0.000   2.137
   26        0.744   1.393   0.000   2.137
   27        0.744   1.393   0.000   2.137
   28        0.744   1.393   0.000   2.137
   29        0.744   1.393   0.000   2.137
   30        0.744   1.393   0.000   2.137
   31        0.744   1.393   0.000   2.137
   32        0.744   1.393   0.000   2.137
   33        0.744   1.393   0.000   2.137
   34        0.744   1.393   0.000   2.137
   35        0.744   1.393   0.000   2.137
   36        0.744   1.393   0.000   2.137
   37        0.744   1.393   0.000   2.137
   38        0.744   1.393   0.000   2.137
   39        0.744   1.393   0.000   2.137
   40        0.744   1.393   0.000   2.137
   41        0.744   1.393   0.000   2.137
   42        0.744   1.393   0.000   2.137
   43        0.744   1.393   0.000   2.137
   44        0.744   1.393   0.000   2.137
   45        0.744   1.393   0.000   2.137
   46        0.744   1.393   0.000   2.137
   47        0.744   1.393   0.000   2.137
   48        0.744   1.393   0.000   2.137
   49        0.744   1.393   0.000   2.137
   50        0.744   1.393   0.000   2.137
   51        0.744   1.393   0.000   2.137
   52        0.744   1.393   0.000   2.137
   53        0.744   1.393   0.000   2.137
   54        0.744   1.393   0.000   2.137
   55        0.744   1.393   0.000   2.137
   56        0.744   1.393   0.000   2.137
   57        0.744   1.393   0.000   2.137
   58        0.744   1.393   0.000   2.137
   59        0.744   1.393   0.000   2.137
   60        0.744   1.393   0.000   2.137
   61        0.744   1.393   0.000   2.137
   62        0.744   1.393   0.000   2.137
   63        0.744   1.393   0.000   2.137
   64        0.744   1.393   0.000   2.137
   65        1.239   2.820   0.000   4.058
   66        1.239   2.820   0.000   4.058
   67        1.239   2.820   0.000   4.058
   68        1.239   2.820   0.000   4.058
   69        1.239   2.820   0.000   4.058
   70        1.239   2.820   0.000   4.058
   71        1.239   2.820   0.000   4.058
   72        1.239   2.820   0.000   4.058
   73        1.239   2.820   0.000   4.058
   74        1.239   2.820   0.000   4.058
   75        1.239   2.820   0.000   4.059
   76        1.239   2.820   0.000   4.058
   77        1.239   2.820   0.000   4.058
   78        1.239   2.820   0.000   4.058
   79        1.239   2.820   0.000   4.058
   80        1.239   2.820   0.000   4.058
   81        1.239   2.820   0.000   4.058
   82        1.239   2.820   0.000   4.058
   83        1.239   2.820   0.000   4.059
   84        1.239   2.820   0.000   4.059
   85        1.239   2.820   0.000   4.058
   86        1.239   2.820   0.000   4.058
   87        1.239   2.820   0.000   4.058
   88        1.239   2.820   0.000   4.058
   89        1.239   2.820   0.000   4.058
   90        1.239   2.820   0.000   4.058
   91        1.239   2.820   0.000   4.058
   92        1.239   2.820   0.000   4.059
   93        1.239   2.820   0.000   4.058
   94        1.239   2.820   0.000   4.058
   95        1.239   2.820   0.000   4.058
   96        1.239   2.820   0.000   4.058
   97        1.239   2.820   0.000   4.058
   98        1.239   2.820   0.000   4.058
   99        1.239   2.820   0.000   4.058
  100        1.239   2.820   0.000   4.058
  101        1.239   2.820   0.000   4.058
  102        1.239   2.820   0.000   4.058
  103        1.239   2.820   0.000   4.058
  104        1.239   2.820   0.000   4.058
  105        1.239   2.820   0.000   4.058
  106        1.239   2.820   0.000   4.058
  107        1.239   2.820   0.000   4.058
  108        1.239   2.820   0.000   4.058
  109        1.239   2.820   0.000   4.058
  110        1.239   2.820   0.000   4.058
  111        1.239   2.820   0.000   4.058
  112        1.239   2.820   0.000   4.058
  113        1.239   2.820   0.000   4.058
  114        1.239   2.820   0.000   4.058
  115        1.239   2.820   0.000   4.058
  116        1.239   2.820   0.000   4.058
  117        1.239   2.820   0.000   4.058
  118        1.239   2.820   0.000   4.058
  119        1.239   2.820   0.000   4.058
  120        1.239   2.820   0.000   4.058
  121        1.239   2.820   0.000   4.058
  122        1.239   2.820   0.000   4.058
  123        1.239   2.820   0.000   4.058
  124        1.239   2.820   0.000   4.058
  125        1.239   2.820   0.000   4.058
  126        1.239   2.820   0.000   4.058
  127        1.239   2.820   0.000   4.058
  128        1.239   2.820   0.000   4.058
  129        0.820   1.557   0.000   2.377
  130        0.837   1.586   0.000   2.423
  131        0.875   1.721   0.000   2.596
  132        1.758   4.414   0.000   6.172
  133        1.757   4.412   0.000   6.169
  134        1.757   4.414   0.000   6.171
  135        1.755   4.402   0.000   6.157
  136        1.755   4.404   0.000   6.159
  137        1.587   3.588   0.000   5.175
  138        1.587   3.589   0.000   5.176
--------------------------------------------------
tot        141.371 303.703   0.000 445.074
 


 magnetization (x)
 
# of ion       s       p       d       tot
------------------------------------------
    1        0.000   0.000   0.000   0.000
    2       -0.000  -0.000   0.000  -0.000
    3       -0.000  -0.000   0.000  -0.000
    4        0.000  -0.000   0.000  -0.000
    5       -0.000   0.000   0.000  -0.000
    6        0.000   0.000   0.000   0.000
    7       -0.000   0.000   0.000   0.000
    8       -0.000   0.000   0.000   0.000
    9       -0.000   0.000   0.000  -0.000
   10       -0.000  -0.000   0.000  -0.000
   11       -0.000  -0.000   0.000  -0.000
   12       -0.000  -0.000   0.000  -0.000
   13       -0.000  -0.000   0.000  -0.000
   14        0.000   0.000   0.000   0.000
   15       -0.000   0.000   0.000   0.000
   16       -0.000   0.000   0.000   0.000
   17       -0.000   0.000   0.000  -0.000
   18       -0.000   0.000   0.000  -0.000
   19       -0.000  -0.000   0.000  -0.000
   20       -0.000  -0.000   0.000  -0.000
   21        0.000  -0.000   0.000  -0.000
   22        0.000   0.000   0.000   0.000
   23       -0.000   0.000   0.000   0.000
   24        0.000   0.000   0.000   0.000
   25       -0.000   0.000   0.000   0.000
   26       -0.000  -0.000   0.000  -0.000
   27       -0.000  -0.000   0.000  -0.000
   28       -0.000  -0.000   0.000  -0.000
   29        0.000  -0.000   0.000  -0.000
   30       -0.000   0.000   0.000   0.000
   31       -0.000   0.000   0.000   0.000
   32       -0.000   0.000   0.000   0.000
   33       -0.000   0.000   0.000   0.000
   34       -0.000   0.000   0.000   0.000
   35       -0.000   0.000   0.000   0.000
   36        0.000  -0.000   0.000  -0.000
   37       -0.000  -0.000   0.000  -0.000
   38       -0.000   0.000   0.000   0.000
   39        0.000   0.000   0.000   0.000
   40        0.000   0.000   0.000   0.000
   41        0.000   0.000   0.000   0.000
   42       -0.000   0.000   0.000   0.000
   43       -0.000   0.000   0.000   0.000
   44       -0.000   0.000   0.000   0.000
   45       -0.000   0.000   0.000   0.000
   46        0.000   0.000   0.000   0.000
   47       -0.000   0.000   0.000   0.000
   48        0.000   0.000   0.000   0.000
   49       -0.000   0.000   0.000   0.000
   50       -0.000   0.000   0.000   0.000
   51       -0.000   0.000   0.000   0.000
   52        0.000   0.000   0.000   0.000
   53       -0.000   0.000   0.000   0.000
   54        0.000   0.000   0.000   0.000
   55        0.000   0.000   0.000   0.000
   56       -0.000   0.000   0.000   0.000
   57        0.000   0.000   0.000   0.000
   58       -0.000  -0.000   0.000  -0.000
   59       -0.000  -0.000   0.000  -0.000
   60       -0.000   0.000   0.000   0.000
   61        0.000   0.000   0.000   0.000
   62       -0.000   0.000   0.000   0.000
   63       -0.000   0.000   0.000   0.000
   64        0.000   0.000   0.000   0.000
   65        0.000   0.000   0.000   0.000
   66        0.000   0.000   0.000   0.000
   67        0.000   0.000   0.000   0.000
   68        0.000   0.000   0.000   0.000
   69       -0.000  -0.000   0.000  -0.000
   70        0.000  -0.000   0.000   0.000
   71        0.000  -0.000   0.000  -0.000
   72       -0.000   0.000   0.000   0.000
   73        0.000   0.000   0.000   0.000
   74        0.000   0.000   0.000   0.000
   75        0.000   0.000   0.000   0.000
   76        0.000   0.000   0.000   0.000
   77        0.000   0.000   0.000   0.000
   78        0.000   0.000   0.000   0.000
   79       -0.000  -0.000   0.000  -0.000
   80        0.000   0.000   0.000   0.000
   81        0.000   0.000   0.000   0.000
   82        0.000   0.000   0.000   0.000
   83        0.000   0.000   0.000   0.000
   84        0.000   0.000   0.000   0.000
   85        0.000   0.000   0.000   0.000
   86       -0.000  -0.000   0.000  -0.000
   87        0.000  -0.000   0.000  -0.000
   88       -0.000  -0.000   0.000  -0.000
   89        0.000   0.000   0.000   0.000
   90        0.000   0.000   0.000   0.000
   91        0.000   0.000   0.000   0.000
   92        0.000   0.000   0.000   0.000
   93        0.000   0.000   0.000   0.000
   94        0.000   0.000   0.000   0.000
   95        0.000  -0.000   0.000  -0.000
   96        0.000  -0.000   0.000  -0.000
   97        0.000  -0.000   0.000  -0.000
   98        0.000  -0.000   0.000  -0.000
   99        0.000   0.000   0.000   0.000
  100        0.000   0.000   0.000   0.000
  101        0.000   0.000   0.000   0.000
  102        0.000   0.000   0.000   0.000
  103       -0.000  -0.000   0.000  -0.000
  104       -0.000  -0.000   0.000  -0.000
  105       -0.000   0.000   0.000   0.000
  106       -0.000  -0.000   0.000  -0.000
  107        0.000  -0.000   0.000  -0.000
  108       -0.000  -0.000   0.000  -0.000
  109        0.000   0.000   0.000   0.000
  110       -0.000   0.000   0.000   0.000
  111       -0.000  -0.000   0.000  -0.000
  112       -0.000  -0.000   0.000  -0.000
  113        0.000  -0.000   0.000  -0.000
  114        0.000   0.000   0.000   0.000
  115       -0.000  -0.000   0.000  -0.000
  116        0.000  -0.000   0.000  -0.000
  117        0.000  -0.000   0.000  -0.000
  118       -0.000  -0.000   0.000  -0.000
  119       -0.000  -0.000   0.000  -0.000
  120        0.000   0.000   0.000   0.000
  121        0.000   0.000   0.000   0.000
  122        0.000   0.000   0.000   0.000
  123       -0.000  -0.000   0.000  -0.000
  124        0.000   0.000   0.000   0.000
  125       -0.000  -0.000   0.000  -0.000
  126        0.000  -0.000   0.000  -0.000
  127        0.000   0.000   0.000   0.000
  128        0.000   0.000   0.000   0.000
  129        0.000  -0.000   0.000  -0.000
  130       -0.000  -0.000   0.000  -0.000
  131       -0.000  -0.000   0.000  -0.000
  132        0.000   0.000   0.000   0.000
  133       -0.000   0.000   0.000   0.000
  134        0.000   0.000   0.000   0.000
  135        0.000   0.000   0.000   0.000
  136        0.000   0.000   0.000   0.000
  137        0.000   0.004   0.000   0.004
  138        0.000   0.004   0.000   0.004
--------------------------------------------------
tot          0.000   0.008   0.000   0.008
 

 total amount of memory used by VASP MPI-rank0  1926194. kBytes
=======================================================================

   base      :      30000. kBytes
   nonlr-proj:      63777. kBytes
   fftplans  :      68224. kBytes
   grid      :    1141764. kBytes
   one-center:        847. kBytes
   wavefun   :     621582. kBytes
 
  
  
 General timing and accounting informations for this job:
 ========================================================
  
                  Total CPU time used (sec):    11905.599
                            User time (sec):    10898.460
                          System time (sec):     1007.139
                         Elapsed time (sec):    10197.355
  
                   Maximum memory used (kb):     3607276.
                   Average memory used (kb):           0.
  
                          Minor page faults:      7489294
                          Major page faults:            0
                 Voluntary context switches:        99978
