 vasp.5.4.4.18Apr17-6-g9f103f2a35 (build May 01 2020 14:57:12) complex          
  
 executed on             LinuxIFC date 2020.10.08  20:28:18
 running on   72 total cores
 distrk:  each k-point on   24 cores,    3 groups
 distr:  one band on NCORES_PER_BAND=   1 cores,   24 groups


--------------------------------------------------------------------------------------------------------


 INCAR:
 POTCAR:    PAW_PBE B 06Sep2000                   
 POTCAR:    PAW_PBE N 08Apr2002                   
 POTCAR:    PAW_PBE C 08Apr2002                   
 POTCAR:    PAW_PBE F 08Apr2002                   
 POTCAR:    PAW_PBE O 08Apr2002                   

 ----------------------------------------------------------------------------- 
|                                                                             |
|           W    W    AA    RRRRR   N    N  II  N    N   GGGG   !!!           |
|           W    W   A  A   R    R  NN   N  II  NN   N  G    G  !!!           |
|           W    W  A    A  R    R  N N  N  II  N N  N  G       !!!           |
|           W WW W  AAAAAA  RRRRR   N  N N  II  N  N N  G  GGG   !            |
|           WW  WW  A    A  R   R   N   NN  II  N   NN  G    G                |
|           W    W  A    A  R    R  N    N  II  N    N   GGGG   !!!           |
|                                                                             |
|      For optimal performance we recommend to set                            |
|        NCORE= 4 - approx SQRT( number of cores)                             |
|      NCORE specifies how many cores store one orbital (NPAR=cpu/NCORE).     |
|      This setting can  greatly improve the performance of VASP for DFT.     |
|      The default,   NCORE=1            might be grossly inefficient         |
|      on modern multi-core architectures or massively parallel machines.     |
|      Do your own testing !!!!                                               |
|      Unfortunately you need to use the default for GW and RPA calculations. |
|      (for HF NCORE is supported but not extensively tested yet)             |
|                                                                             |
 ----------------------------------------------------------------------------- 


 ----------------------------------------------------------------------------- 
|                                                                             |
|           W    W    AA    RRRRR   N    N  II  N    N   GGGG   !!!           |
|           W    W   A  A   R    R  NN   N  II  NN   N  G    G  !!!           |
|           W    W  A    A  R    R  N N  N  II  N N  N  G       !!!           |
|           W WW W  AAAAAA  RRRRR   N  N N  II  N  N N  G  GGG   !            |
|           WW  WW  A    A  R   R   N   NN  II  N   NN  G    G                |
|           W    W  A    A  R    R  N    N  II  N    N   GGGG   !!!           |
|                                                                             |
|      You have enabled k-point parallelism (KPAR>1).                         |
|      This developmental code was originally  written by Paul Kent at ORNL,  |
|      and carefully double checked in Vienna.                                |
|      GW as well as linear response parallelism added by Martijn Marsman     |
|      and Georg Kresse.                                                      |
|      Carefully verify results versus KPAR=1.                                |
|      Report problems to Paul Kent and Vienna.                               |
|                                                                             |
 ----------------------------------------------------------------------------- 

 POTCAR:    PAW_PBE B 06Sep2000                   
   VRHFIN =B: s2p1                                                              
   LEXCH  = PE                                                                  
   EATOM  =    71.1703 eV,    5.2309 Ry                                         
                                                                                
   TITEL  = PAW_PBE B 06Sep2000                                                 
   LULTRA =        F    use ultrasoft PP ?                                      
   IUNSCR =        1    unscreen: 0-lin 1-nonlin 2-no                           
   RPACOR =    1.200    partial core radius                                     
   POMASS =   10.811; ZVAL   =    3.000    mass and valenz                      
   RCORE  =    1.700    outmost cutoff radius                                   
   RWIGS  =    1.710; RWIGS  =    0.905    wigner-seitz radius (au A)           
   ENMAX  =  318.614; ENMIN  =  238.960 eV                                      
   ICORE  =        2    local potential                                         
   LCOR   =        T    correct aug charges                                     
   LPAW   =        T    paw PP                                                  
   EAUG   =  535.514                                                            
   DEXC   =    0.000                                                            
   RMAX   =    1.732    core radius for proj-oper                               
   RAUG   =    1.300    factor for augmentation sphere                          
   RDEP   =    1.757    radius for radial grids                                 
   RDEPT  =    1.436    core radius for aug-charge                              
                                                                                
   Atomic configuration                                                         
    4 entries                                                                   
     n  l   j            E        occ.                                          
     1  0  0.50      -180.5896   2.0000                                         
     2  0  0.50        -9.4431   2.0000                                         
     2  1  0.50        -3.6068   1.0000                                         
     3  2  1.50        -4.0817   0.0000                                         
   Description                                                                  
     l       E           TYP  RCUT    TYP  RCUT                                 
     0     -9.4430752     23  1.500                                             
     0      0.8675899     23  1.500                                             
     1     -3.6067955     23  1.700                                             
     1      6.1086146     23  1.700                                             
     2     -4.0817478      7  1.700                                             
  local pseudopotential read in
  partial core-charges read in
  partial kinetic energy density read in
  atomic valenz-charges read in
  non local Contribution for L=           0  read in
    real space projection operators read in
  non local Contribution for L=           0  read in
    real space projection operators read in
  non local Contribution for L=           1  read in
    real space projection operators read in
  non local Contribution for L=           1  read in
    real space projection operators read in
    PAW grid and wavefunctions read in
 
   number of l-projection  operators is LMAX  =           4
   number of lm-projection operators is LMMAX =           8
 
 POTCAR:    PAW_PBE N 08Apr2002                   
   VRHFIN =N: s2p3                                                              
   LEXCH  = PE                                                                  
   EATOM  =   264.5486 eV,   19.4438 Ry                                         
                                                                                
   TITEL  = PAW_PBE N 08Apr2002                                                 
   LULTRA =        F    use ultrasoft PP ?                                      
   IUNSCR =        1    unscreen: 0-lin 1-nonlin 2-no                           
   RPACOR =    1.200    partial core radius                                     
   POMASS =   14.001; ZVAL   =    5.000    mass and valenz                      
   RCORE  =    1.500    outmost cutoff radius                                   
   RWIGS  =    1.400; RWIGS  =    0.741    wigner-seitz radius (au A)           
   ENMAX  =  400.000; ENMIN  =  300.000 eV                                      
   ICORE  =        2    local potential                                         
   LCOR   =        T    correct aug charges                                     
   LPAW   =        T    paw PP                                                  
   EAUG   =  627.112                                                            
   DEXC   =    0.000                                                            
   RMAX   =    1.529    core radius for proj-oper                               
   RAUG   =    1.300    factor for augmentation sphere                          
   RDEP   =    1.514    radius for radial grids                                 
   RDEPT  =    1.338    core radius for aug-charge                              
                                                                                
   Atomic configuration                                                         
    4 entries                                                                   
     n  l   j            E        occ.                                          
     1  0  0.50      -384.7179   2.0000                                         
     2  0  0.50       -18.5828   2.0000                                         
     2  1  0.50        -7.0898   3.0000                                         
     3  2  1.50        -6.8029   0.0000                                         
   Description                                                                  
     l       E           TYP  RCUT    TYP  RCUT                                 
     0    -18.5828119     23  1.200                                             
     0    -13.5018863     23  1.200                                             
     1     -7.0897853     23  1.500                                             
     1      9.5240782     23  1.500                                             
     2     -6.8029130      7  1.500                                             
  local pseudopotential read in
  partial core-charges read in
  partial kinetic energy density read in
  atomic valenz-charges read in
  non local Contribution for L=           0  read in
    real space projection operators read in
  non local Contribution for L=           0  read in
    real space projection operators read in
  non local Contribution for L=           1  read in
    real space projection operators read in
  non local Contribution for L=           1  read in
    real space projection operators read in
    PAW grid and wavefunctions read in
 
   number of l-projection  operators is LMAX  =           4
   number of lm-projection operators is LMMAX =           8
 
 POTCAR:    PAW_PBE C 08Apr2002                   
   VRHFIN =C: s2p2                                                              
   LEXCH  = PE                                                                  
   EATOM  =   147.1560 eV,   10.8157 Ry                                         
                                                                                
   TITEL  = PAW_PBE C 08Apr2002                                                 
   LULTRA =        F    use ultrasoft PP ?                                      
   IUNSCR =        1    unscreen: 0-lin 1-nonlin 2-no                           
   RPACOR =    1.200    partial core radius                                     
   POMASS =   12.011; ZVAL   =    4.000    mass and valenz                      
   RCORE  =    1.500    outmost cutoff radius                                   
   RWIGS  =    1.630; RWIGS  =    0.863    wigner-seitz radius (au A)           
   ENMAX  =  400.000; ENMIN  =  300.000 eV                                      
   ICORE  =        2    local potential                                         
   LCOR   =        T    correct aug charges                                     
   LPAW   =        T    paw PP                                                  
   EAUG   =  644.873                                                            
   DEXC   =    0.000                                                            
   RMAX   =    1.529    core radius for proj-oper                               
   RAUG   =    1.300    factor for augmentation sphere                          
   RDEP   =    1.501    radius for radial grids                                 
   RDEPT  =    1.300    core radius for aug-charge                              
                                                                                
   Atomic configuration                                                         
    4 entries                                                                   
     n  l   j            E        occ.                                          
     1  0  0.50      -273.3789   2.0000                                         
     2  0  0.50       -13.7508   2.0000                                         
     2  1  0.50        -5.2854   2.0000                                         
     3  2  1.50        -5.4423   0.0000                                         
   Description                                                                  
     l       E           TYP  RCUT    TYP  RCUT                                 
     0    -13.7508458     23  1.200                                             
     0     -8.2022199     23  1.200                                             
     1     -5.2854383     23  1.500                                             
     1     34.0145650     23  1.500                                             
     2     -5.4423304      7  1.500                                             
  local pseudopotential read in
  partial core-charges read in
  partial kinetic energy density read in
  atomic valenz-charges read in
  non local Contribution for L=           0  read in
    real space projection operators read in
  non local Contribution for L=           0  read in
    real space projection operators read in
  non local Contribution for L=           1  read in
    real space projection operators read in
  non local Contribution for L=           1  read in
    real space projection operators read in
    PAW grid and wavefunctions read in
 
   number of l-projection  operators is LMAX  =           4
   number of lm-projection operators is LMMAX =           8
 
 POTCAR:    PAW_PBE F 08Apr2002                   
   VRHFIN =F: s2p5                                                              
   LEXCH  = PE                                                                  
   EATOM  =   659.6475 eV,   48.4827 Ry                                         
                                                                                
   TITEL  = PAW_PBE F 08Apr2002                                                 
   LULTRA =        F    use ultrasoft PP ?                                      
   IUNSCR =        1    unscreen: 0-lin 1-nonlin 2-no                           
   RPACOR =    1.200    partial core radius                                     
   POMASS =   18.998; ZVAL   =    7.000    mass and valenz                      
   RCORE  =    1.520    outmost cutoff radius                                   
   RWIGS  =    1.500; RWIGS  =    0.794    wigner-seitz radius (au A)           
   ENMAX  =  400.000; ENMIN  =  300.000 eV                                      
   ICORE  =        2    local potential                                         
   LCOR   =        T    correct aug charges                                     
   LPAW   =        T    paw PP                                                  
   EAUG   =  613.614                                                            
   RMAX   =    1.555    core radius for proj-oper                               
   RAUG   =    1.300    factor for augmentation sphere                          
   RDEP   =    1.539    radius for radial grids                                 
   RDEPT  =    1.299    core radius for aug-charge                              
                                                                                
   Atomic configuration                                                         
    4 entries                                                                   
     n  l   j            E        occ.                                          
     1  0  0.50      -663.3661   2.0000                                         
     2  0  0.50       -29.8995   2.0000                                         
     2  1  0.50       -11.1114   5.0000                                         
     3  2  1.50       -10.8847   0.0000                                         
   Description                                                                  
     l       E           TYP  RCUT    TYP  RCUT                                 
     0    -29.8995018     23  1.200                                             
     0     -9.5240782     23  1.200                                             
     1    -11.1113914     23  1.520                                             
     1      1.3605826     23  1.520                                             
     2    -10.8846608      7  1.500                                             
  local pseudopotential read in
  partial core-charges read in
  partial kinetic energy density read in
  atomic valenz-charges read in
  non local Contribution for L=           0  read in
    real space projection operators read in
  non local Contribution for L=           0  read in
    real space projection operators read in
  non local Contribution for L=           1  read in
    real space projection operators read in
  non local Contribution for L=           1  read in
    real space projection operators read in
    PAW grid and wavefunctions read in
 
   number of l-projection  operators is LMAX  =           4
   number of lm-projection operators is LMMAX =           8
 
 POTCAR:    PAW_PBE O 08Apr2002                   
   VRHFIN =O: s2p4                                                              
   LEXCH  = PE                                                                  
   EATOM  =   432.3788 eV,   31.7789 Ry                                         
                                                                                
   TITEL  = PAW_PBE O 08Apr2002                                                 
   LULTRA =        F    use ultrasoft PP ?                                      
   IUNSCR =        1    unscreen: 0-lin 1-nonlin 2-no                           
   RPACOR =    1.200    partial core radius                                     
   POMASS =   16.000; ZVAL   =    6.000    mass and valenz                      
   RCORE  =    1.520    outmost cutoff radius                                   
   RWIGS  =    1.550; RWIGS  =    0.820    wigner-seitz radius (au A)           
   ENMAX  =  400.000; ENMIN  =  300.000 eV                                      
   ICORE  =        2    local potential                                         
   LCOR   =        T    correct aug charges                                     
   LPAW   =        T    paw PP                                                  
   EAUG   =  605.392                                                            
   DEXC   =    0.000                                                            
   RMAX   =    1.553    core radius for proj-oper                               
   RAUG   =    1.300    factor for augmentation sphere                          
   RDEP   =    1.550    radius for radial grids                                 
   RDEPT  =    1.329    core radius for aug-charge                              
                                                                                
   Atomic configuration                                                         
    4 entries                                                                   
     n  l   j            E        occ.                                          
     1  0  0.50      -514.6923   2.0000                                         
     2  0  0.50       -23.9615   2.0000                                         
     2  1  0.50        -9.0305   4.0000                                         
     3  2  1.50        -9.5241   0.0000                                         
   Description                                                                  
     l       E           TYP  RCUT    TYP  RCUT                                 
     0    -23.9615318     23  1.200                                             
     0     -9.5240782     23  1.200                                             
     1     -9.0304911     23  1.520                                             
     1      8.1634956     23  1.520                                             
     2     -9.5240782      7  1.500                                             
  local pseudopotential read in
  partial core-charges read in
  partial kinetic energy density read in
  kinetic energy density of atom read in
  atomic valenz-charges read in
  non local Contribution for L=           0  read in
    real space projection operators read in
  non local Contribution for L=           0  read in
    real space projection operators read in
  non local Contribution for L=           1  read in
    real space projection operators read in
  non local Contribution for L=           1  read in
    real space projection operators read in
    PAW grid and wavefunctions read in
 
   number of l-projection  operators is LMAX  =           4
   number of lm-projection operators is LMMAX =           8
 
 Optimization of the real space projectors (new method)

 maximal supplied QI-value         = 22.11
 optimisation between [QCUT,QGAM] = [ 11.94, 23.88] = [ 39.92,159.67] Ry 
 Optimized for a Real-space Cutoff    1.18 Angstroem

   l    n(q)    QCUT    max X(q) W(low)/X(q) W(high)/X(q)  e(spline) 
   0      8    11.939    53.033    0.11E-03    0.34E-03    0.60E-07
   0      8    11.939    34.740    0.11E-03    0.34E-03    0.59E-07
   1      8    11.939    30.949    0.22E-03    0.20E-03    0.17E-06
   1      8    11.939    19.518    0.20E-03    0.18E-03    0.16E-06
 Optimization of the real space projectors (new method)

 maximal supplied QI-value         = 25.13
 optimisation between [QCUT,QGAM] = [ 11.81, 23.88] = [ 39.08,159.64] Ry 
 Optimized for a Real-space Cutoff    1.41 Angstroem

   l    n(q)    QCUT    max X(q) W(low)/X(q) W(high)/X(q)  e(spline) 
   0     10    11.813    79.467    0.48E-04    0.30E-04    0.67E-06
   0     10    11.813    66.151    0.47E-04    0.30E-04    0.67E-06
   1     10    11.813    20.169    0.11E-03    0.17E-03    0.11E-05
   1     10    11.813    14.454    0.11E-03    0.17E-03    0.11E-05
 Optimization of the real space projectors (new method)

 maximal supplied QI-value         = 25.13
 optimisation between [QCUT,QGAM] = [ 11.81, 23.88] = [ 39.08,159.64] Ry 
 Optimized for a Real-space Cutoff    1.18 Angstroem

   l    n(q)    QCUT    max X(q) W(low)/X(q) W(high)/X(q)  e(spline) 
   0      8    11.813   115.676    0.10E-03    0.16E-03    0.35E-06
   0      8    11.813    87.132    0.10E-03    0.16E-03    0.35E-06
   1      8    11.813     4.429    0.16E-03    0.13E-04    0.22E-06
   1      8    11.813     2.733    0.13E-03    0.10E-04    0.18E-06
 Optimization of the real space projectors (new method)

 maximal supplied QI-value         = 24.76
 optimisation between [QCUT,QGAM] = [ 11.88, 24.01] = [ 39.54,161.47] Ry 
 Optimized for a Real-space Cutoff    1.18 Angstroem

   l    n(q)    QCUT    max X(q) W(low)/X(q) W(high)/X(q)  e(spline) 
   0      8    11.883    14.049    0.56E-04    0.86E-04    0.22E-06
   0      8    11.883     8.945    0.81E-04    0.11E-03    0.30E-06
   1      8    11.883     7.086    0.16E-03    0.15E-04    0.31E-06
   1      8    11.883     6.747    0.15E-03    0.14E-04    0.28E-06
 Optimization of the real space projectors (new method)

 maximal supplied QI-value         = 24.76
 optimisation between [QCUT,QGAM] = [ 11.88, 24.01] = [ 39.54,161.47] Ry 
 Optimized for a Real-space Cutoff    1.18 Angstroem

   l    n(q)    QCUT    max X(q) W(low)/X(q) W(high)/X(q)  e(spline) 
   0      8    11.883    20.381    0.86E-04    0.11E-03    0.31E-06
   0      8    11.883    15.268    0.94E-04    0.12E-03    0.33E-06
   1      8    11.883     5.964    0.19E-03    0.18E-04    0.33E-06
   1      8    11.883     5.382    0.17E-03    0.20E-04    0.29E-06
  PAW_PBE B 06Sep2000                   :
 energy of atom  1       EATOM=  -71.1703
 kinetic energy error for atom=    0.0009 (will be added to EATOM!!)
  PAW_PBE N 08Apr2002                   :
 energy of atom  2       EATOM= -264.5486
 kinetic energy error for atom=    0.0116 (will be added to EATOM!!)
  PAW_PBE C 08Apr2002                   :
 energy of atom  3       EATOM= -147.1560
 kinetic energy error for atom=    0.0066 (will be added to EATOM!!)
  PAW_PBE F 08Apr2002                   :
 energy of atom  4       EATOM= -659.6475
 kinetic energy error for atom=    0.0296 (will be added to EATOM!!)
  PAW_PBE O 08Apr2002                   :
 energy of atom  5       EATOM= -432.3788
 kinetic energy error for atom=    0.0194 (will be added to EATOM!!)
 
 
 POSCAR: B N C F O                               
  positions in direct lattice
  velocities in cartesian coordinates

 METAGGA = SCAN     LMAXTAU =  6    LMIXTAU =  F

 exchange correlation table for  LEXCH =        8
   RHO(1)=    0.500       N(1)  =     2000
   RHO(2)=  100.500       N(2)  =     4000
 


--------------------------------------------------------------------------------------------------------


 ion  position               nearest neighbor table
   1  0.083  0.042  0.502-  65 1.45  72 1.45  73 1.45
   2  0.083  0.167  0.502-  66 1.45  65 1.45  74 1.45
   3  0.083  0.292  0.502-  67 1.45  66 1.45  75 1.45
   4  0.083  0.417  0.502-  67 1.45  76 1.45  68 1.45
   5  0.083  0.542  0.502-  77 1.45  68 1.45  69 1.45
   6  0.083  0.667  0.502-  69 1.45  70 1.45  78 1.45
   7  0.083  0.792  0.502-  79 1.45  70 1.45  71 1.45
   8  0.083  0.917  0.502-  72 1.45  80 1.45  71 1.45
   9  0.208  0.042  0.502-  81 1.45  80 1.45  73 1.45
  10  0.208  0.167  0.502-  73 1.45  82 1.45  74 1.45
  11  0.208  0.292  0.502-  75 1.45  83 1.45  74 1.45
  12  0.208  0.417  0.501-  75 1.45  84 1.45  76 1.45
  13  0.208  0.542  0.502-  76 1.45  85 1.45  77 1.45
  14  0.208  0.667  0.502-  77 1.45  86 1.45  78 1.45
  15  0.208  0.792  0.502-  78 1.45  87 1.45  79 1.45
  16  0.208  0.917  0.502-  79 1.45  88 1.45  80 1.45
  17  0.333  0.042  0.502-  89 1.45  88 1.45  81 1.45
  18  0.333  0.167  0.502-  90 1.45  81 1.45  82 1.45
  19  0.333  0.292  0.502-  91 1.45  83 1.45  82 1.45
  20  0.333  0.417  0.502-  84 1.45  92 1.45  83 1.45
  21  0.333  0.542  0.502-  84 1.45  93 1.45  85 1.45
  22  0.333  0.667  0.502-  85 1.45  94 1.45  86 1.45
  23  0.333  0.792  0.502-  86 1.45  87 1.45  95 1.45
  24  0.333  0.917  0.502-  87 1.45  96 1.45  88 1.45
  25  0.458  0.042  0.502-  96 1.45  97 1.45  89 1.45
  26  0.458  0.167  0.502-  98 1.45  89 1.45  90 1.45
  27  0.458  0.292  0.502-  99 1.45  90 1.45  91 1.45
  28  0.458  0.417  0.502-  92 1.45 100 1.45  91 1.45
  29  0.458  0.542  0.502-  93 1.45  92 1.45 101 1.45
  30  0.458  0.667  0.502-  93 1.45 102 1.45  94 1.45
  31  0.458  0.792  0.502-  94 1.45 103 1.45  95 1.45
  32  0.458  0.917  0.502-  95 1.45  96 1.45 104 1.45
  33  0.583  0.042  0.502- 104 1.45  97 1.45 105 1.45
  34  0.583  0.167  0.502-  97 1.45  98 1.45 106 1.45
  35  0.583  0.292  0.502- 107 1.45  99 1.45  98 1.45
  36  0.583  0.417  0.502-  99 1.45 108 1.45 100 1.45
  37  0.583  0.542  0.502- 100 1.45 101 1.45 109 1.45
  38  0.583  0.667  0.502- 101 1.45 110 1.45 102 1.45
  39  0.583  0.792  0.502- 102 1.45 111 1.45 103 1.45
  40  0.583  0.917  0.502- 103 1.45 112 1.45 104 1.45
  41  0.708  0.042  0.502- 112 1.45 113 1.45 105 1.45
  42  0.708  0.167  0.502- 105 1.45 106 1.45 114 1.45
  43  0.708  0.292  0.502- 106 1.45 107 1.45 115 1.45
  44  0.708  0.417  0.502- 107 1.45 108 1.45 116 1.45
  45  0.708  0.542  0.502- 108 1.45 117 1.45 109 1.45
  46  0.708  0.667  0.502- 109 1.45 118 1.45 110 1.45
  47  0.708  0.792  0.502- 110 1.45 119 1.45 111 1.45
  48  0.708  0.917  0.502- 111 1.45 120 1.45 112 1.45
  49  0.833  0.042  0.502- 121 1.45 120 1.45 113 1.45
  50  0.833  0.167  0.502- 122 1.45 114 1.45 113 1.45
  51  0.833  0.292  0.502- 114 1.45 115 1.45 123 1.45
  52  0.833  0.417  0.502- 115 1.45 116 1.45 124 1.45
  53  0.833  0.542  0.502- 116 1.45 125 1.45 117 1.45
  54  0.833  0.667  0.502- 117 1.45 126 1.45 118 1.45
  55  0.833  0.792  0.502- 118 1.45 127 1.45 119 1.45
  56  0.833  0.917  0.502- 119 1.45 120 1.45 128 1.45
  57  0.958  0.042  0.502- 121 1.45  65 1.45 128 1.45
  58  0.958  0.167  0.502- 121 1.45 122 1.45  66 1.45
  59  0.958  0.292  0.502-  67 1.45 122 1.45 123 1.45
  60  0.958  0.417  0.502-  68 1.45 124 1.45 123 1.45
  61  0.958  0.542  0.502- 124 1.45  69 1.45 125 1.45
  62  0.958  0.667  0.502- 125 1.45  70 1.45 126 1.45
  63  0.958  0.792  0.502-  71 1.45 127 1.45 126 1.45
  64  0.958  0.917  0.502- 127 1.45 128 1.45  72 1.45
  65  0.042  0.083  0.502-   2 1.45   1 1.45  57 1.45
  66  0.042  0.208  0.502-   2 1.45   3 1.45  58 1.45
  67  0.042  0.333  0.502-  59 1.45   4 1.45   3 1.45
  68  0.042  0.458  0.502-  60 1.45   5 1.45   4 1.45
  69  0.042  0.583  0.502-   6 1.45  61 1.45   5 1.45
  70  0.042  0.708  0.502-  62 1.45   7 1.45   6 1.45
  71  0.042  0.833  0.502-  63 1.45   7 1.45   8 1.45
  72  0.042  0.958  0.502-   1 1.45  64 1.45   8 1.45
  73  0.167  0.083  0.502-  10 1.45   1 1.45   9 1.45
  74  0.167  0.208  0.502-  10 1.45  11 1.45   2 1.45
  75  0.167  0.333  0.501-  11 1.45  12 1.45   3 1.45
  76  0.167  0.458  0.501-  13 1.45   4 1.45  12 1.45
  77  0.167  0.583  0.502-  14 1.45   5 1.45  13 1.45
  78  0.167  0.708  0.502-  15 1.45   6 1.45  14 1.45
  79  0.167  0.833  0.502-   7 1.45  15 1.45  16 1.45
  80  0.167  0.958  0.502-   9 1.45  16 1.45   8 1.45
  81  0.292  0.083  0.502-  18 1.45   9 1.45  17 1.45
  82  0.292  0.208  0.502-  10 1.45  19 1.45  18 1.45
  83  0.292  0.333  0.502-  11 1.45  19 1.45  20 1.45
  84  0.292  0.458  0.501-  20 1.45  21 1.45  12 1.45
  85  0.292  0.583  0.502-  22 1.45  13 1.45  21 1.45
  86  0.292  0.708  0.502-  23 1.45  14 1.45  22 1.45
  87  0.292  0.833  0.502-  24 1.45  15 1.45  23 1.45
  88  0.292  0.958  0.502-  17 1.45  16 1.45  24 1.45
  89  0.417  0.083  0.502-  17 1.45  26 1.45  25 1.45
  90  0.417  0.208  0.502-  18 1.45  27 1.45  26 1.45
  91  0.417  0.333  0.502-  19 1.45  28 1.45  27 1.45
  92  0.417  0.458  0.502-  20 1.45  28 1.45  29 1.45
  93  0.417  0.583  0.502-  30 1.45  21 1.45  29 1.45
  94  0.417  0.708  0.502-  31 1.45  22 1.45  30 1.45
  95  0.417  0.833  0.502-  32 1.45  23 1.45  31 1.45
  96  0.417  0.958  0.502-  25 1.45  24 1.45  32 1.45
  97  0.542  0.083  0.502-  34 1.45  25 1.45  33 1.45
  98  0.542  0.208  0.502-  26 1.45  34 1.45  35 1.45
  99  0.542  0.333  0.502-  27 1.45  36 1.45  35 1.45
 100  0.542  0.458  0.502-  37 1.45  28 1.45  36 1.45
 101  0.542  0.583  0.502-  38 1.45  37 1.45  29 1.45
 102  0.542  0.708  0.502-  39 1.45  38 1.45  30 1.45
 103  0.542  0.833  0.502-  40 1.45  31 1.45  39 1.45
 104  0.542  0.958  0.502-  33 1.45  40 1.45  32 1.45
 105  0.667  0.083  0.502-  42 1.45  33 1.45  41 1.45
 106  0.667  0.208  0.502-  43 1.45  42 1.45  34 1.45
 107  0.667  0.333  0.502-  44 1.45  35 1.45  43 1.45
 108  0.667  0.458  0.502-  45 1.45  36 1.45  44 1.45
 109  0.667  0.583  0.502-  46 1.45  45 1.45  37 1.45
 110  0.667  0.708  0.502-  47 1.45  38 1.45  46 1.45
 111  0.667  0.833  0.502-  48 1.45  39 1.45  47 1.45
 112  0.667  0.958  0.502-  41 1.45  40 1.45  48 1.45
 113  0.792  0.083  0.502-  41 1.45  50 1.45  49 1.45
 114  0.792  0.208  0.502-  51 1.45  50 1.45  42 1.45
 115  0.792  0.333  0.502-  52 1.45  51 1.45  43 1.45
 116  0.792  0.458  0.502-  53 1.45  52 1.45  44 1.45
 117  0.792  0.583  0.502-  54 1.45  45 1.45  53 1.45
 118  0.792  0.708  0.502-  55 1.45  46 1.45  54 1.45
 119  0.792  0.833  0.502-  47 1.45  56 1.45  55 1.45
 120  0.792  0.958  0.502-  48 1.45  56 1.45  49 1.45
 121  0.917  0.083  0.502-  58 1.45  49 1.45  57 1.45
 122  0.917  0.208  0.502-  50 1.45  59 1.45  58 1.45
 123  0.917  0.333  0.502-  51 1.45  60 1.45  59 1.45
 124  0.917  0.458  0.502-  61 1.45  60 1.45  52 1.45
 125  0.917  0.583  0.502-  62 1.45  53 1.45  61 1.45
 126  0.917  0.708  0.502-  54 1.45  62 1.45  63 1.45
 127  0.917  0.833  0.502-  55 1.45  64 1.45  63 1.45
 128  0.917  0.958  0.502-  64 1.45  56 1.45  57 1.45
 129  0.279  0.235  0.675- 132 1.34 134 1.34 133 1.34 130 1.54
 130  0.265  0.237  0.632- 136 1.36 135 1.37 129 1.54 131 1.55
 131  0.257  0.307  0.620- 138 1.25 137 1.25 130 1.55
 132  0.346  0.297  0.686- 129 1.34
 133  0.283  0.172  0.685- 129 1.34
 134  0.222  0.235  0.695- 129 1.34
 135  0.325  0.238  0.614- 130 1.37
 136  0.201  0.170  0.624- 130 1.36
 137  0.318  0.368  0.614- 131 1.25
 138  0.190  0.296  0.617- 131 1.25
 

IMPORTANT INFORMATION: All symmetrisations will be switched off!
NOSYMM: (Re-)initialisation of all symmetry stuff for point group C_1.

 
 
 KPOINTS: K-Point Grid                            

Automatic generation of k-mesh.
Space group operators:
 irot       det(A)        alpha          n_x          n_y          n_z        tau_x        tau_y        tau_z
    1     1.000000     0.000001     1.000000     0.000000     0.000000     0.000000     0.000000     0.000000
 
 Subroutine IBZKPT returns following result:
 ===========================================
 
 Found      6 irreducible k-points:
 
 Following reciprocal coordinates:
            Coordinates               Weight
  0.250000  0.250000  0.000000     16.000000
  0.500000 -0.250000  0.000000     16.000000
  0.250000  0.500000  0.000000     16.000000
 -0.250000  0.250000  0.000000     16.000000
 -0.000000  0.250000  0.000000     16.000000
  0.250000 -0.000000  0.000000     16.000000
 
 Following cartesian coordinates:
            Coordinates               Weight
  0.024879  0.000000  0.000000     16.000000
  0.012439 -0.021546  0.000000     16.000000
  0.037318  0.007182  0.000000     16.000000
  0.000000  0.014364  0.000000     16.000000
  0.012439  0.007182  0.000000     16.000000
  0.012439 -0.007182  0.000000     16.000000
 


--------------------------------------------------------------------------------------------------------




 Dimension of arrays:
   k-points           NKPTS =      6   k-points in BZ     NKDIM =      6   number of bands    NBANDS=    432
   number of dos      NEDOS =   1200   number of ions     NIONS =    138
   non local maximal  LDIM  =      4   non local SUM 2l+1 LMDIM =      8
   total plane-waves  NPLWV = ******
   max r-space proj   IRMAX =   6620   max aug-charges    IRDMAX=   9003
   dimension x,y,z NGX =   160 NGY =  160 NGZ =  270
   dimension x,y,z NGXF=   320 NGYF=  320 NGZF=  540
   support grid    NGXF=   320 NGYF=  320 NGZF=  540
   ions per type =              64  64   3   5   2
   NGX,Y,Z   is equivalent  to a cutoff of  13.24, 13.24, 12.82 a.u.
   NGXF,Y,Z  is equivalent  to a cutoff of  26.47, 26.47, 25.65 a.u.

 SYSTEM =  hBN                                     
 POSCAR =  B N C F O                               

 Startparameter for this run:
   NWRITE =      2    write-flag & timer
   PREC   = accura    normal or accurate (medium, high low for compatibility)
   ISTART =      1    job   : 0-new  1-cont  2-samecut
   ICHARG =      0    charge: 1-file 2-atom 10-const
   ISPIN  =      2    spin polarized calculation?
   LNONCOLLINEAR =      F non collinear calculations
   LSORBIT =      F    spin-orbit coupling
   INIWAV =      1    electr: 0-lowe 1-rand  2-diag
   LASPH  =      T    aspherical Exc in radial PAW
   METAGGA=      F    non-selfconsistent MetaGGA calc.

 Electronic Relaxation 1
   ENCUT  =  550.0 eV  40.42 Ry    6.36 a.u.  38.43 38.43 66.93*2*pi/ulx,y,z
   ENINI  =  550.0     initial cutoff
   ENAUG  =  644.9 eV  augmentation charge cutoff
   NELM   =    500;   NELMIN=  2; NELMDL=  0     # of ELM steps 
   EDIFF  = 0.1E-04   stopping-criterion for ELM
   LREAL  =      T    real-space projection
   NLSPLINE    = F    spline interpolate recip. space projectors
   LCOMPAT=      F    compatible to vasp.4.4
   GGA_COMPAT  = T    GGA compatible to vasp.4.4-vasp.4.6
   LMAXPAW     = -100 max onsite density
   LMAXMIX     =    2 max onsite mixed and CHGCAR
   VOSKOWN=      0    Vosko Wilk Nusair interpolation
   ROPT   =   -0.00025  -0.00025  -0.00025  -0.00025
   ROPT   =   -0.00025
 Ionic relaxation
   EDIFFG = -.2E-01   stopping-criterion for IOM
   NSW    =      0    number of steps for IOM
   NBLOCK =      1;   KBLOCK =      1    inner block; outer block 
   IBRION =     -1    ionic relax: 0-MD 1-quasi-New 2-CG
   NFREE  =      1    steps in history (QN), initial steepest desc. (CG)
   ISIF   =      2    stress and relaxation
   IWAVPR =     10    prediction:  0-non 1-charg 2-wave 3-comb
   ISYM   =      0    0-nonsym 1-usesym 2-fastsym
   LCORR  =      T    Harris-Foulkes like correction to forces

   POTIM  = 0.5000    time-step for ionic-motion
   TEIN   =    0.0    initial temperature
   TEBEG  =    0.0;   TEEND  =   0.0 temperature during run
   SMASS  =  -3.00    Nose mass-parameter (am)
   estimated Nose-frequenzy (Omega)   =  0.10E-29 period in steps =****** mass=  -0.923E-26a.u.
   SCALEE = 1.0000    scale energy and forces
   NPACO  =    256;   APACO  = 16.0  distance and # of slots for P.C.
   PSTRESS=    0.0 pullay stress

  Mass of Ions in am
   POMASS =  10.81 14.00 12.01 19.00 16.00
  Ionic Valenz
   ZVAL   =   3.00  5.00  4.00  7.00  6.00
  Atomic Wigner-Seitz radii
   RWIGS  =  -1.00 -1.00 -1.00 -1.00 -1.00
  virtual crystal weights 
   VCA    =   1.00  1.00  1.00  1.00  1.00
   NELECT =     569.0000    total number of electrons
   NUPDOWN=      -1.0000    fix difference up-down

 DOS related values:
   EMIN   = -10.00;   EMAX   =  5.00  energy-range for DOS
   EFERMI =   0.00
   ISMEAR =     0;   SIGMA  =   0.05  broadening in eV -4-tet -1-fermi 0-gaus

 Electronic relaxation 2 (details)
   IALGO  =     68    algorithm
   LDIAG  =      T    sub-space diagonalisation (order eigenvalues)
   LSUBROT=      F    optimize rotation matrix (better conditioning)
   TURBO    =      0    0=normal 1=particle mesh
   IRESTART =      0    0=no restart 2=restart with 2 vectors
   NREBOOT  =      0    no. of reboots
   NMIN     =      0    reboot dimension
   EREF     =   0.00    reference energy to select bands
   IMIX   =      4    mixing-type and parameters
     AMIX     =   0.40;   BMIX     =  1.00
     AMIX_MAG =   1.60;   BMIX_MAG =  1.00
     AMIN     =   0.10
     WC   =   100.;   INIMIX=   1;  MIXPRE=   1;  MAXMIX= -45

 Intra band minimization:
   WEIMIN = 0.0000     energy-eigenvalue tresh-hold
   EBREAK =  0.58E-08  absolut break condition
   DEPER  =   0.30     relativ break condition  

   TIME   =   0.40     timestep for ELM

  volume/ion in A,a.u.               =      88.72       598.69
  Fermi-wavevector in a.u.,A,eV,Ry     =   0.588597  1.112288  4.713695  0.346447
  Thomas-Fermi vector in A             =   1.635924
 
 Write flags
   LWAVE        =      T    write WAVECAR
   LDOWNSAMPLE  =      F    k-point downsampling of WAVECAR
   LCHARG       =      T    write CHGCAR
   LVTOT        =      F    write LOCPOT, total local potential
   LVHAR        =      T    write LOCPOT, Hartree potential only
   LELF         =      F    write electronic localiz. function (ELF)
   LORBIT       =     11    0 simple, 1 ext, 2 COOP (PROOUT), +10 PAW based schemes


 Dipole corrections
   LMONO  =      F    monopole corrections only (constant potential shift)
   LDIPOL =      F    correct potential (dipole corrections)
   IDIPOL =      0    1-x, 2-y, 3-z, 4-all directions 
   EPSILON=  1.0000000 bulk dielectric constant

 Exchange correlation treatment:
   GGA     =    --    GGA type
   LEXCH   =     8    internal setting for exchange type
   VOSKOWN=      0    Vosko Wilk Nusair interpolation
   LHFCALC =     F    Hartree Fock is set to
   LHFONE  =     F    Hartree Fock one center treatment
   AEXX    =    0.0000 exact exchange contribution

 Linear response parameters
   LEPSILON=     F    determine dielectric tensor
   LRPA    =     F    only Hartree local field effects (RPA)
   LNABLA  =     F    use nabla operator in PAW spheres
   LVEL    =     F    velocity operator in full k-point grid
   LINTERFAST=   F  fast interpolation
   KINTER  =     0    interpolate to denser k-point grid
   CSHIFT  =0.1000    complex shift for real part using Kramers Kronig
   OMEGAMAX=  -1.0    maximum frequency
   DEG_THRESHOLD= 0.2000000E-02 threshold for treating states as degnerate
   RTIME   =   -0.100 relaxation time in fs
  (WPLASMAI=    0.000 imaginary part of plasma frequency in eV, 0.658/RTIME)
   DFIELD  = 0.0000000 0.0000000 0.0000000 field for delta impulse in time
 
 Orbital magnetization related:
   ORBITALMAG=     F  switch on orbital magnetization
   LCHIMAG   =     F  perturbation theory with respect to B field
   DQ        =  0.001000  dq finite difference perturbation B field
   LLRAUG    =     F  two centre corrections for induced B field

 Solvation model:
   LSOL    =     T         switch on solvation model
   EB_K    = 78.400000     relative permittivity of the bulk solvent
   SIGMA_K =  0.600000     width of the dielectric cavity
   NC_K    =  0.002500     cutoff charge density
   TAU     =  0.000000     cavity surface tension
   LAMBDA_D_K    =  3.040000     Debye length in Angstroms
   LRHOB     =     F     write boundcharge  density
   LRHOION     =     F     write ioniccharge density



--------------------------------------------------------------------------------------------------------


 Static calculation
 charge density and potential will be updated during run
 spin polarized calculation
 RMM-DIIS sequential band-by-band and
  variant of blocked Davidson during initial phase
 perform sub-space diagonalisation
    before iterative eigenvector-optimisation
 modified Broyden-mixing scheme, WC =      100.0
 initial mixing is a Kerker type mixing with AMIX =  0.4000 and BMIX =      1.0000
 Hartree-type preconditioning will be used
 using additional bands          147
 real space projection scheme for non local part
 use partial core corrections
 calculate Harris-corrections to forces 
   (improved forces if not selfconsistent)
 use gradient corrections 
 use of overlap-Matrix (Vanderbilt PP)
 Gauss-broadening in eV      SIGMA  =   0.05


--------------------------------------------------------------------------------------------------------


  energy-cutoff  :      550.00
  volume of cell :    12242.83
      direct lattice vectors                 reciprocal lattice vectors
    10.048700000-17.405000000  0.000000000     0.049757680 -0.028727377  0.000000000
    10.048700000 17.405000000  0.000000000     0.049757680  0.028727377  0.000000000
     0.000000000  0.000000000 35.000000000     0.000000000  0.000000000  0.028571429

  length of vectors
    20.097522153 20.097522153 35.000000000     0.057455104  0.057455104  0.028571429


 
 old parameters found on file WAVECAR:
  energy-cutoff  :      550.00
  volume of cell :    12242.83
      direct lattice vectors                 reciprocal lattice vectors
    10.048700000-17.405000000  0.000000000     0.049757680 -0.028727377  0.000000000
    10.048700000 17.405000000  0.000000000     0.049757680  0.028727377  0.000000000
     0.000000000  0.000000000 35.000000000     0.000000000  0.000000000  0.028571429

  length of vectors

 
 k-points in units of 2pi/SCALE and weight: K-Point Grid                            
   0.02487884  0.00000000  0.00000000       0.167
   0.01243942 -0.02154553  0.00000000       0.167
   0.03731826  0.00718184  0.00000000       0.167
   0.00000000  0.01436369  0.00000000       0.167
   0.01243942  0.00718184  0.00000000       0.167
   0.01243942 -0.00718184  0.00000000       0.167
 
 k-points in reciprocal lattice and weights: K-Point Grid                            
   0.25000000  0.25000000  0.00000000       0.167
   0.50000000 -0.25000000  0.00000000       0.167
   0.25000000  0.50000000  0.00000000       0.167
  -0.25000000  0.25000000  0.00000000       0.167
  -0.00000000  0.25000000  0.00000000       0.167
   0.25000000 -0.00000000  0.00000000       0.167
 
 position of ions in fractional coordinates (direct lattice) 
   0.08331617  0.04165112  0.50159165
   0.08330844  0.16664913  0.50157937
   0.08331212  0.29165018  0.50151947
   0.08331646  0.41664873  0.50152466
   0.08331851  0.54165084  0.50159196
   0.08331301  0.66664625  0.50166126
   0.08331344  0.79164717  0.50166946
   0.08331668  0.91665033  0.50162077
   0.20831994  0.04165060  0.50160586
   0.20831384  0.16664620  0.50159049
   0.20830840  0.29165915  0.50153708
   0.20831558  0.41665137  0.50149852
   0.20831555  0.54164745  0.50153022
   0.20831539  0.66664827  0.50161613
   0.20831220  0.79164595  0.50167506
   0.20831412  0.91664757  0.50164416
   0.33331700  0.04164743  0.50162264
   0.33332306  0.16664843  0.50162051
   0.33332577  0.29166065  0.50158330
   0.33331575  0.41665502  0.50153785
   0.33331584  0.54164833  0.50150793
   0.33331505  0.66664699  0.50157361
   0.33331259  0.79164578  0.50165538
   0.33331244  0.91664523  0.50166739
   0.45831284  0.04164441  0.50164862
   0.45831797  0.16664742  0.50161437
   0.45832345  0.29165452  0.50159534
   0.45831610  0.41665360  0.50155160
   0.45831376  0.54164824  0.50152175
   0.45831471  0.66664597  0.50156399
   0.45831376  0.79164549  0.50163219
   0.45831246  0.91664427  0.50167300
   0.58331282  0.04164388  0.50167238
   0.58331293  0.16664425  0.50164655
   0.58331646  0.29164866  0.50161424
   0.58331714  0.41665110  0.50158023
   0.58331400  0.54164743  0.50156045
   0.58331655  0.66664818  0.50158660
   0.58331462  0.79164571  0.50163560
   0.58331423  0.91664497  0.50166886
   0.70831492  0.04164554  0.50165325
   0.70831343  0.16664521  0.50165794
   0.70831321  0.29164464  0.50165932
   0.70831412  0.41664606  0.50163784
   0.70831647  0.54164835  0.50161848
   0.70831514  0.66664604  0.50162922
   0.70831605  0.79164648  0.50165688
   0.70831578  0.91664607  0.50166284
   0.83331772  0.04164921  0.50161326
   0.83331651  0.16664998  0.50160340
   0.83331490  0.29164753  0.50163306
   0.83331400  0.41664542  0.50166212
   0.83331371  0.54164475  0.50166725
   0.83331505  0.66664636  0.50166727
   0.83331579  0.79164702  0.50166528
   0.83331625  0.91664779  0.50164447
   0.95831819  0.04165153  0.50159127
   0.95831356  0.16664810  0.50156279
   0.95831553  0.29164940  0.50155841
   0.95831848  0.41665088  0.50160322
   0.95831391  0.54164551  0.50165521
   0.95831361  0.66664578  0.50168028
   0.95831559  0.79164819  0.50166317
   0.95831666  0.91664935  0.50162253
   0.04165183  0.08331929  0.50157185
   0.04164762  0.20831716  0.50153436
   0.04164671  0.33331663  0.50150623
   0.04165086  0.45831789  0.50155466
   0.04164778  0.58331403  0.50162768
   0.04164705  0.70831348  0.50166827
   0.04164901  0.83331600  0.50164085
   0.04165073  0.95831796  0.50159194
   0.16665236  0.08331898  0.50158076
   0.16665224  0.20832102  0.50157667
   0.16664538  0.33331904  0.50147460
   0.16664882  0.45831708  0.50149023
   0.16665027  0.58331672  0.50156274
   0.16664680  0.70831337  0.50164841
   0.16664685  0.83331380  0.50165992
   0.16665079  0.95831772  0.50160469
   0.29165279  0.08331913  0.50160260
   0.29165048  0.20832178  0.50161452
   0.29164214  0.33331108  0.50155539
   0.29164845  0.45831573  0.50148033
   0.29164908  0.58331546  0.50151112
   0.29164788  0.70831408  0.50160392
   0.29164589  0.83331238  0.50166870
   0.29164797  0.95831451  0.50163264
   0.41664923  0.08331435  0.50160907
   0.41665234  0.20831879  0.50160344
   0.41665138  0.33331836  0.50156256
   0.41664552  0.45831483  0.50150281
   0.41664884  0.58331599  0.50150565
   0.41664832  0.70831405  0.50157583
   0.41664649  0.83331202  0.50165028
   0.41664620  0.95831143  0.50165782
   0.54164674  0.08331129  0.50164870
   0.54164965  0.20831443  0.50160645
   0.54165313  0.33331808  0.50157718
   0.54164906  0.45831622  0.50153791
   0.54164862  0.58331568  0.50153063
   0.54164918  0.70831446  0.50158263
   0.54164779  0.83331259  0.50163673
   0.54164674  0.95831121  0.50166597
   0.66664729  0.08331204  0.50165720
   0.66664697  0.20831192  0.50165113
   0.66664912  0.33331351  0.50162845
   0.66665071  0.45831589  0.50159511
   0.66664889  0.58331437  0.50158622
   0.66664984  0.70831440  0.50161637
   0.66664868  0.83331308  0.50165065
   0.66664825  0.95831248  0.50165853
   0.79164917  0.08331511  0.50160471
   0.79164767  0.20831444  0.50162231
   0.79164721  0.33331287  0.50165229
   0.79164814  0.45831259  0.50165318
   0.79164945  0.58331396  0.50164508
   0.79164899  0.70831381  0.50165199
   0.79164948  0.83331429  0.50165691
   0.79164972  0.95831495  0.50163474
   0.91665018  0.08331614  0.50157167
   0.91664795  0.20831600  0.50155351
   0.91664859  0.33331662  0.50158452
   0.91664802  0.45831356  0.50163509
   0.91664745  0.58331247  0.50166554
   0.91664846  0.70831413  0.50166816
   0.91664939  0.83331546  0.50164427
   0.91665053  0.95831670  0.50160357
   0.27941994  0.23534801  0.67533855
   0.26530014  0.23719387  0.63231800
   0.25698740  0.30659899  0.61974625
   0.34575014  0.29733166  0.68573845
   0.28300644  0.17232263  0.68465278
   0.22204524  0.23458927  0.69540620
   0.32539428  0.23771126  0.61382986
   0.20068440  0.16960461  0.62368655
   0.31800919  0.36808857  0.61406059
   0.19038944  0.29555829  0.61695992
 
 position of ions in cartesian coordinates  (Angst):
   1.25575883 -0.72518020 17.55570791
   2.51174863  1.45054462 17.55527798
   3.76788364  3.62612397 17.55318145
   5.02400023  5.80164825 17.55336308
   6.28012953  7.97727421 17.55571861
   7.53611559 10.15291492 17.55814408
   8.79221664 12.32854863 17.55843122
  10.04836856 14.50417213 17.55672685
   2.51187898 -2.90087983 17.55620495
   3.76786096 -0.72522529 17.55566699
   5.02402397  1.45071979 17.55379773
   6.28010538  3.62608444 17.55244815
   7.53615320  5.80164162 17.55355756
   8.79224733  7.97728370 17.55656458
  10.04827943 10.15292388 17.55862725
  11.30440251 12.32854381 17.55754550
   3.76790507 -5.07650890 17.55679228
   5.02406349 -2.90097185 17.55671771
   6.28030107 -0.72518131 17.55541567
   7.53623133  1.45052006 17.55382468
   8.79225253  3.62602701 17.55277753
  10.04831853  5.80164244 17.55507652
  11.30436921  7.97728910 17.55793832
  12.56044960 10.15290724 17.55835868
   5.02392043 -7.25211412 17.55770180
   6.28008970 -5.07652589 17.55650296
   7.53630361 -2.90087265 17.55583691
   8.79230804 -0.72513585 17.55430614
  10.04831820  1.45043662 17.55326115
  11.30439229  3.62600558 17.55473976
  12.56046549  5.80163889 17.55712669
  13.81652770  7.97726506 17.55855511
   6.28000241 -9.42774791 17.55853346
   7.53609469 -7.25211842 17.55762941
   8.79226199 -5.07647796 17.55649824
  10.04838085 -2.90082229 17.55530811
  11.30439994 -0.72520669 17.55461565
  12.56052061  1.45038704 17.55553088
  13.81656387  3.62600274 17.55724616
  15.07264000  5.80162152 17.55841012
   7.53612775-11.60338054 17.55786372
   8.79219686 -9.42773541 17.55802801
  10.04827646 -7.25211659 17.55807633
  11.30438737 -5.07648266 17.55732446
  12.56052152 -2.90085873 17.55664677
  13.81657242 -0.72525073 17.55702286
  15.07267342  1.45036615 17.55799077
  16.32875411  3.62598869 17.55819948
   8.79228022-13.77899036 17.55646404
  10.04836319-11.60333093 17.55611895
  11.30441002 -9.42772062 17.55715724
  12.56046718 -7.25211658 17.55817406
  13.81654515 -5.07649826 17.55835361
  15.07266220 -2.90086850 17.55835448
  16.32876377 -0.72524498 17.55828470
  17.58486369  1.45038551 17.55755655
  10.04839575-15.95458328 17.55569440
  11.30440223-13.77893748 17.55469755
  12.56052262-11.60332408 17.55454434
  13.81665459 -9.42772450 17.55611286
  15.07264215 -7.25211346 17.55793240
  16.32872942 -5.07647864 17.55880967
  17.58486107 -2.90084618 17.55821082
  18.84097103 -0.72521954 17.55678850
   1.25579738  0.72522214 17.55501462
   2.51182107  2.90088340 17.55370243
   3.76789409  5.07651486 17.55271801
   5.02403597  7.25208973 17.55441304
   6.28005375  9.42770121 17.55696892
   7.53612845 11.60332925 17.55838945
   8.79226085 13.77896393 17.55742992
  10.04838537 15.95459316 17.55571793
   2.51188707 -1.45041749 17.55532667
   3.76799375  0.72524520 17.55518352
   5.02399248  2.90095509 17.55161097
   6.28009488  5.07648603 17.55215795
   7.53619330  7.25207941 17.55469577
   8.79221223  9.42770668 17.55769424
  10.04830455 11.60333837 17.55809725
  11.30447112 13.77896289 17.55616410
   3.76798039 -3.62604727 17.55609085
   5.02407128 -1.45033592 17.55650830
   6.27996751  0.72524790 17.55443876
   7.53616497  2.90084398 17.55181167
   8.79225620  5.07645324 17.55288932
  10.04831782  7.25207521 17.55613721
  11.30436813  9.42770519 17.55840452
  12.56049792 11.60333111 17.55714238
   5.02398405 -5.80169351 17.55631758
   6.28014745 -3.62604536 17.55612046
   7.53622097 -1.45041129 17.55468961
   8.79221409  0.72525421 17.55259840
  10.04834658  2.90084170 17.55269792
  11.30440941  5.07644206 17.55515401
  12.56045804  7.25206364 17.55775988
  13.81653677  9.42768332 17.55802359
   6.28001576 -7.97732858 17.55770457
   7.53616407 -5.80169952 17.55622576
   8.79232320 -3.62607151 17.55520118
  10.04835119 -1.45040808 17.55382683
  11.30442874  0.72521511 17.55357201
  12.56050965  2.90080924 17.55539209
  13.81656434  5.07642577 17.55728558
  15.07262748  7.25204509 17.55830909
   7.53611636-10.15294994 17.55800210
   8.79219938 -7.97732148 17.55778941
  10.04832455 -5.80170630 17.55699586
  11.30445184 -3.62606765 17.55582899
  12.56050573 -1.45043730 17.55551764
  13.81660312  0.72517157 17.55657309
  15.07266569  2.90079380 17.55777263
  16.32874287  5.07641580 17.55804853
   8.79225357-12.32855444 17.55616475
  10.04831919-10.15291482 17.55678092
  11.30438639 -7.97730918 17.55783024
  12.56048034 -5.80170529 17.55786119
  13.81659483 -3.62607916 17.55757781
  15.07267618 -1.45044884 17.55781966
  16.32877341  0.72517589 17.55799201
  17.58486994  2.90080836 17.55721594
  10.04836163-14.50417899 17.55500855
  11.30442520-12.32851765 17.55437299
  12.56052540-10.15289284 17.55545824
  13.81657648 -7.97731134 17.55722825
  15.07264730 -5.80169538 17.55829383
  16.32876157 -3.62605908 17.55838545
  17.58487176 -1.45042718 17.55754957
  18.84098320  0.72519984 17.55612512
   5.17274870 -0.76707201 23.63684910
   5.04941157 -0.48918966 22.13112987
   5.66331055  0.86348969 21.69111885
   6.46213611 -0.84272361 24.00084560
   4.57546519 -1.92645170 23.96284725
   4.58858311  0.21832886 24.33921702
   5.65847868 -1.52612285 21.48404512
   3.72092320 -0.54094365 21.82902925
   6.89439052  0.87163160 21.49212065
   4.88314301  1.83046384 21.59359722
 


--------------------------------------------------------------------------------------------------------


 k-point  1 :   0.2500 0.2500 0.0000  plane waves:  358590
 k-point  2 :   0.5000-0.2500 0.0000  plane waves:  358584
 k-point  3 :   0.2500 0.5000 0.0000  plane waves:  358584
 k-point  4 :  -0.2500 0.2500 0.0000  plane waves:  358603
 k-point  5 :  -0.0000 0.2500 0.0000  plane waves:  358599
 k-point  6 :   0.2500-0.0000 0.0000  plane waves:  358599

 maximum and minimum number of plane-waves per node :    358603   358584

 maximum number of plane-waves:    358603
 maximum index in each direction: 
   IXMAX=   38   IYMAX=   38   IZMAX=   66
   IXMIN=  -38   IYMIN=  -38   IZMIN=  -66


 serial   3D FFT for wavefunctions
 parallel 3D FFT for charge:
    minimum data exchange during FFTs selected (reduces bandwidth)


 total amount of memory used by VASP MPI-rank0  2733408. kBytes
=======================================================================

   base      :      30000. kBytes
   nonlr-proj:      63781. kBytes
   fftplans  :     108234. kBytes
   grid      :    1287382. kBytes
   one-center:        847. kBytes
   wavefun   :    1243164. kBytes
 
     INWAV:  cpu time  136.0254: real time  136.6871
 Broyden mixing: mesh for mixing (old mesh)
   NGX = 77   NGY = 77   NGZ =133
  (NGX  =320   NGY  =320   NGZ  =540)
  gives a total of 788557 points

 charge density for first step will be calculated from the start-wavefunctions


--------------------------------------------------------------------------------------------------------


 Maximum index for non-local projection operator         6396
 Maximum index for augmentation-charges          435 (set IRDMAX)


--------------------------------------------------------------------------------------------------------


 initial charge from wavefunction
 First call to EWALD:  gamma=   0.077
 Maximum number of real-space cells 3x 3x 2
 Maximum number of reciprocal cells 2x 2x 4

    FEWALD:  cpu time    0.0114: real time    0.0105


--------------------------------------- Iteration      1(   1)  ---------------------------------------


    POTLOK:  cpu time  129.4067: real time  129.4913
    SETDIJ:  cpu time    1.3742: real time    0.9714
     EDDAV:  cpu time  558.3546: real time  423.7133
       DOS:  cpu time    0.0064: real time    0.0036
    CHARGE:  cpu time   73.3520: real time   71.0888
    MIXING:  cpu time    0.2087: real time    0.2092
    --------------------------------------------
      LOOP:  cpu time  762.7027: real time  625.4777

 eigenvalue-minimisations  : 10464
 total energy-change (2. order) :-0.1315665E+04  (-0.6739966E-02)
 number of electron     568.9999970 magnetization       0.3075103
 augmentation part       22.4033078 magnetization       0.0690384

 Broyden mixing:
  rms(total) = 0.17706E-01    rms(broyden)= 0.17681E-01
  rms(prec ) = 0.17934E-01
  weight for this iteration     100.00

 Free energy of the ion-electron system (eV)
  ---------------------------------------------------
  alpha Z        PSCENC =       143.65704873
  Ewald energy   TEWEN  =    181401.89245616
  -Hartree energ DENC   =   -202312.06594143
  -exchange      EXHF   =         0.00000000
  -V(xc)+E(xc)   XCENC  =      2553.10327150
  PAW double counting   =     67504.10700935   -67769.63078562
  entropy T*S    EENTRO =        -0.03161930
  eigenvalues    EBANDS =     -8220.65908983
  atomic energy  EATOM  =     26089.46230379
  Solvation  Ediel_sol  =      -705.49980708
  ---------------------------------------------------
  free energy    TOTEN  =     -1315.66515373 eV

  energy without entropy =    -1315.63353443  energy(sigma->0) =    -1315.64934408


--------------------------------------------------------------------------------------------------------




--------------------------------------- Iteration      1(   2)  ---------------------------------------


    POTLOK:  cpu time   99.7895: real time  100.0036
    SETDIJ:  cpu time    0.9444: real time    0.7424
    EDDIAG:  cpu time  109.8375: real time   91.3897
  RMM-DIIS:  cpu time  731.3027: real time  616.2106
    ORTHCH:  cpu time    6.0809: real time    3.0569
       DOS:  cpu time    0.2118: real time    0.1061
    CHARGE:  cpu time   80.6387: real time   78.6211
    MIXING:  cpu time    0.2085: real time    0.2089
    --------------------------------------------
      LOOP:  cpu time 1029.0140: real time  890.3394

 eigenvalue-minimisations  : 10782
 total energy-change (2. order) :-0.2201562E-03  (-0.1416915E-03)
 number of electron     568.9999970 magnetization       0.3070869
 augmentation part       22.4055914 magnetization       0.1039788

 Broyden mixing:
  rms(total) = 0.33943E-01    rms(broyden)= 0.33908E-01
  rms(prec ) = 0.34767E-01
  weight for this iteration     100.00

 eigenvalues of (default mixing * dielectric matrix)
  average eigenvalue GAMMA=   0.2111
  0.2111

 Free energy of the ion-electron system (eV)
  ---------------------------------------------------
  alpha Z        PSCENC =       143.65704873
  Ewald energy   TEWEN  =    181401.89245616
  -Hartree energ DENC   =   -202312.05516484
  -exchange      EXHF   =         0.00000000
  -V(xc)+E(xc)   XCENC  =      2553.14363482
  PAW double counting   =     67536.73047663   -67802.22977245
  entropy T*S    EENTRO =        -0.02966991
  eigenvalues    EBANDS =     -8220.85955348
  atomic energy  EATOM  =     26089.46230379
  Solvation  Ediel_sol  =      -705.37713334
  ---------------------------------------------------
  free energy    TOTEN  =     -1315.66537388 eV

  energy without entropy =    -1315.63570398  energy(sigma->0) =    -1315.65053893


--------------------------------------------------------------------------------------------------------




--------------------------------------- Iteration      1(   3)  ---------------------------------------


    POTLOK:  cpu time  117.7083: real time  117.9688
    SETDIJ:  cpu time    0.9527: real time    0.7510
    EDDIAG:  cpu time  109.9992: real time   91.3846
  RMM-DIIS:  cpu time  748.7582: real time  623.5495
    ORTHCH:  cpu time    6.0812: real time    3.0516
       DOS:  cpu time    0.2086: real time    0.1046
    CHARGE:  cpu time   96.0508: real time   93.9889
    MIXING:  cpu time    0.2047: real time    0.2052
    --------------------------------------------
      LOOP:  cpu time 1079.9637: real time  931.0041

 eigenvalue-minimisations  : 10985
 total energy-change (2. order) : 0.1180951E-02  (-0.1084854E-03)
 number of electron     568.9999970 magnetization       0.3070700
 augmentation part       22.4013573 magnetization       0.0751577

 Broyden mixing:
  rms(total) = 0.88457E-02    rms(broyden)= 0.87946E-02
  rms(prec ) = 0.88621E-02
  weight for this iteration     100.00

 eigenvalues of (default mixing * dielectric matrix)
  average eigenvalue GAMMA=   1.1393
  2.0463  0.2322

 Free energy of the ion-electron system (eV)
  ---------------------------------------------------
  alpha Z        PSCENC =       143.65704873
  Ewald energy   TEWEN  =    181401.89245616
  -Hartree energ DENC   =   -202311.98189007
  -exchange      EXHF   =         0.00000000
  -V(xc)+E(xc)   XCENC  =      2553.15453281
  PAW double counting   =     67541.56865323   -67807.06518763
  entropy T*S    EENTRO =        -0.03125103
  eigenvalues    EBANDS =     -8220.91495955
  atomic energy  EATOM  =     26089.46230379
  Solvation  Ediel_sol  =      -705.40589937
  ---------------------------------------------------
  free energy    TOTEN  =     -1315.66419293 eV

  energy without entropy =    -1315.63294190  energy(sigma->0) =    -1315.64856742


--------------------------------------------------------------------------------------------------------




--------------------------------------- Iteration      1(   4)  ---------------------------------------


    POTLOK:  cpu time  101.8040: real time  102.0255
    SETDIJ:  cpu time    1.2001: real time    0.8712
    EDDIAG:  cpu time  109.9382: real time   91.4215
  RMM-DIIS:  cpu time  636.8806: real time  524.8149
    ORTHCH:  cpu time    6.1282: real time    3.0769
       DOS:  cpu time    0.1570: real time    0.0786
    CHARGE:  cpu time   73.1944: real time   70.9837
    MIXING:  cpu time    0.2102: real time    0.2107
    --------------------------------------------
      LOOP:  cpu time  929.5128: real time  793.4830

 eigenvalue-minimisations  : 10872
 total energy-change (2. order) :-0.1210075E-02  (-0.7020039E-04)
 number of electron     568.9999970 magnetization       0.3075369
 augmentation part       22.3961614 magnetization       0.0421171

 Broyden mixing:
  rms(total) = 0.34423E-01    rms(broyden)= 0.34379E-01
  rms(prec ) = 0.35524E-01
  weight for this iteration     100.00

 eigenvalues of (default mixing * dielectric matrix)
  average eigenvalue GAMMA=   0.9957
  2.3364  0.3254  0.3254

 Free energy of the ion-electron system (eV)
  ---------------------------------------------------
  alpha Z        PSCENC =       143.65704873
  Ewald energy   TEWEN  =    181401.89245616
  -Hartree energ DENC   =   -202311.50246733
  -exchange      EXHF   =         0.00000000
  -V(xc)+E(xc)   XCENC  =      2553.11080625
  PAW double counting   =     67578.65331870   -67844.12141430
  entropy T*S    EENTRO =        -0.03296440
  eigenvalues    EBANDS =     -8221.47310978
  atomic energy  EATOM  =     26089.46230379
  Solvation  Ediel_sol  =      -705.31138083
  ---------------------------------------------------
  free energy    TOTEN  =     -1315.66540301 eV

  energy without entropy =    -1315.63243861  energy(sigma->0) =    -1315.64892081


--------------------------------------------------------------------------------------------------------




--------------------------------------- Iteration      1(   5)  ---------------------------------------


    POTLOK:  cpu time  103.3657: real time  103.5932
    SETDIJ:  cpu time    0.9489: real time    0.7472
    EDDIAG:  cpu time  109.9483: real time   91.3209
  RMM-DIIS:  cpu time  589.9773: real time  488.6266
    ORTHCH:  cpu time    6.1226: real time    3.0731
       DOS:  cpu time    0.1660: real time    0.0832
    CHARGE:  cpu time   73.2272: real time   71.0144
    MIXING:  cpu time    0.2094: real time    0.2099
    --------------------------------------------
      LOOP:  cpu time  883.9653: real time  758.6684

 eigenvalue-minimisations  :  9767
 total energy-change (2. order) : 0.5057330E-04  (-0.1453552E-03)
 number of electron     568.9999970 magnetization       0.3073252
 augmentation part       22.4035591 magnetization       0.1009905

 Broyden mixing:
  rms(total) = 0.24375E-01    rms(broyden)= 0.24262E-01
  rms(prec ) = 0.25084E-01
  weight for this iteration     100.00

 eigenvalues of (default mixing * dielectric matrix)
  average eigenvalue GAMMA=   0.9446
  2.3636  0.8040  0.3054  0.3054

 Free energy of the ion-electron system (eV)
  ---------------------------------------------------
  alpha Z        PSCENC =       143.65704873
  Ewald energy   TEWEN  =    181401.89245616
  -Hartree energ DENC   =   -202311.46011048
  -exchange      EXHF   =         0.00000000
  -V(xc)+E(xc)   XCENC  =      2553.08082787
  PAW double counting   =     67582.41730613   -67847.88207754
  entropy T*S    EENTRO =        -0.02984079
  eigenvalues    EBANDS =     -8221.56357791
  atomic energy  EATOM  =     26089.46230379
  Solvation  Ediel_sol  =      -705.23968839
  ---------------------------------------------------
  free energy    TOTEN  =     -1315.66535243 eV

  energy without entropy =    -1315.63551165  energy(sigma->0) =    -1315.65043204


--------------------------------------------------------------------------------------------------------




--------------------------------------- Iteration      1(   6)  ---------------------------------------


    POTLOK:  cpu time  104.4238: real time  104.6490
    SETDIJ:  cpu time    0.9476: real time    0.7461
    EDDIAG:  cpu time  109.8620: real time   91.3663
  RMM-DIIS:  cpu time  634.8266: real time  522.4348
    ORTHCH:  cpu time    6.1333: real time    3.0788
       DOS:  cpu time    0.1502: real time    0.0753
    CHARGE:  cpu time   73.2851: real time   71.1061
    MIXING:  cpu time    0.2157: real time    0.2162
    --------------------------------------------
      LOOP:  cpu time  929.8443: real time  793.6727

 eigenvalue-minimisations  : 10756
 total energy-change (2. order) : 0.3097346E-03  (-0.1805767E-03)
 number of electron     568.9999970 magnetization       0.3073736
 augmentation part       22.4012826 magnetization       0.0790746

 Broyden mixing:
  rms(total) = 0.33110E-02    rms(broyden)= 0.32706E-02
  rms(prec ) = 0.33632E-02
  weight for this iteration     100.00

 eigenvalues of (default mixing * dielectric matrix)
  average eigenvalue GAMMA=   0.9803
  2.4704  1.3378  0.4924  0.3004  0.3004

 Free energy of the ion-electron system (eV)
  ---------------------------------------------------
  alpha Z        PSCENC =       143.65704873
  Ewald energy   TEWEN  =    181401.89245616
  -Hartree energ DENC   =   -202311.32019260
  -exchange      EXHF   =         0.00000000
  -V(xc)+E(xc)   XCENC  =      2553.10200248
  PAW double counting   =     67583.47733128   -67848.94186491
  entropy T*S    EENTRO =        -0.03105643
  eigenvalues    EBANDS =     -8221.71017045
  atomic energy  EATOM  =     26089.46230379
  Solvation  Ediel_sol  =      -705.25290075
  ---------------------------------------------------
  free energy    TOTEN  =     -1315.66504270 eV

  energy without entropy =    -1315.63398626  energy(sigma->0) =    -1315.64951448


--------------------------------------------------------------------------------------------------------




--------------------------------------- Iteration      1(   7)  ---------------------------------------


    POTLOK:  cpu time   96.2522: real time   96.4604
    SETDIJ:  cpu time    0.9369: real time    0.7354
    EDDIAG:  cpu time  109.9914: real time   91.4044
  RMM-DIIS:  cpu time  559.1821: real time  462.2571
    ORTHCH:  cpu time    6.1403: real time    3.0815
       DOS:  cpu time    0.1557: real time    0.0781
    CHARGE:  cpu time   73.1713: real time   70.9916
    MIXING:  cpu time    0.2226: real time    0.2231
    --------------------------------------------
      LOOP:  cpu time  846.0525: real time  725.2316

 eigenvalue-minimisations  :  8913
 total energy-change (2. order) :-0.1931789E-03  (-0.1638736E-04)
 number of electron     568.9999970 magnetization       0.3073959
 augmentation part       22.4012571 magnetization       0.0776776

 Broyden mixing:
  rms(total) = 0.15086E-02    rms(broyden)= 0.14990E-02
  rms(prec ) = 0.15470E-02
  weight for this iteration     100.00

 eigenvalues of (default mixing * dielectric matrix)
  average eigenvalue GAMMA=   0.9751
  2.5467  1.4281  0.2987  0.2987  0.6391  0.6391

 Free energy of the ion-electron system (eV)
  ---------------------------------------------------
  alpha Z        PSCENC =       143.65704873
  Ewald energy   TEWEN  =    181401.89245616
  -Hartree energ DENC   =   -202311.26894223
  -exchange      EXHF   =         0.00000000
  -V(xc)+E(xc)   XCENC  =      2553.09324202
  PAW double counting   =     67584.28691290   -67849.75139121
  entropy T*S    EENTRO =        -0.03113687
  eigenvalues    EBANDS =     -8221.76582823
  atomic energy  EATOM  =     26089.46230379
  Solvation  Ediel_sol  =      -705.23990094
  ---------------------------------------------------
  free energy    TOTEN  =     -1315.66523588 eV

  energy without entropy =    -1315.63409901  energy(sigma->0) =    -1315.64966744


--------------------------------------------------------------------------------------------------------




--------------------------------------- Iteration      1(   8)  ---------------------------------------


    POTLOK:  cpu time   92.3251: real time   92.5223
    SETDIJ:  cpu time    0.9505: real time    0.7487
    EDDIAG:  cpu time  109.8680: real time   91.3739
  RMM-DIIS:  cpu time  526.3107: real time  433.5725
    ORTHCH:  cpu time    6.0670: real time    3.0449
       DOS:  cpu time    0.2368: real time    0.1187
    CHARGE:  cpu time   73.4716: real time   71.1794
    MIXING:  cpu time    0.2195: real time    0.2200
    --------------------------------------------
      LOOP:  cpu time  809.4493: real time  692.7803

 eigenvalue-minimisations  :  8235
 total energy-change (2. order) :-0.6193910E-04  (-0.4439971E-05)
 number of electron     568.9999970 magnetization       0.3074190
 augmentation part       22.4011414 magnetization       0.0768026

 Broyden mixing:
  rms(total) = 0.47427E-03    rms(broyden)= 0.46736E-03
  rms(prec ) = 0.48736E-03
  weight for this iteration     100.00

 eigenvalues of (default mixing * dielectric matrix)
  average eigenvalue GAMMA=   0.9713
  2.5978  1.3304  1.0787  0.2989  0.2989  0.5973  0.5973

 Free energy of the ion-electron system (eV)
  ---------------------------------------------------
  alpha Z        PSCENC =       143.65704873
  Ewald energy   TEWEN  =    181401.89245616
  -Hartree energ DENC   =   -202311.26613929
  -exchange      EXHF   =         0.00000000
  -V(xc)+E(xc)   XCENC  =      2553.09345258
  PAW double counting   =     67584.59395625   -67850.05867542
  entropy T*S    EENTRO =        -0.03118652
  eigenvalues    EBANDS =     -8221.77119237
  atomic energy  EATOM  =     26089.46230379
  Solvation  Ediel_sol  =      -705.23732173
  ---------------------------------------------------
  free energy    TOTEN  =     -1315.66529782 eV

  energy without entropy =    -1315.63411130  energy(sigma->0) =    -1315.64970456


--------------------------------------------------------------------------------------------------------




--------------------------------------- Iteration      1(   9)  ---------------------------------------


    POTLOK:  cpu time   89.2128: real time   89.4029
    SETDIJ:  cpu time    1.4307: real time    1.0276
    EDDIAG:  cpu time  109.9336: real time   91.3748
  RMM-DIIS:  cpu time  516.0912: real time  428.0045
    ORTHCH:  cpu time    6.0810: real time    3.0513
       DOS:  cpu time    0.2217: real time    0.1111
    CHARGE:  cpu time   73.1807: real time   71.0677
    MIXING:  cpu time    0.2263: real time    0.2268
    --------------------------------------------
      LOOP:  cpu time  796.3779: real time  684.2667

 eigenvalue-minimisations  :  7990
 total energy-change (2. order) :-0.2391035E-04  (-0.1441348E-05)
 number of electron     568.9999970 magnetization       0.3074493
 augmentation part       22.4011018 magnetization       0.0767340

 Broyden mixing:
  rms(total) = 0.31097E-03    rms(broyden)= 0.31010E-03
  rms(prec ) = 0.32637E-03
  weight for this iteration     100.00

 eigenvalues of (default mixing * dielectric matrix)
  average eigenvalue GAMMA=   1.0256
  2.6898  1.5537  1.5537  0.2988  0.2988  0.6523  0.6523  0.5058

 Free energy of the ion-electron system (eV)
  ---------------------------------------------------
  alpha Z        PSCENC =       143.65704873
  Ewald energy   TEWEN  =    181401.89245616
  -Hartree energ DENC   =   -202311.27530589
  -exchange      EXHF   =         0.00000000
  -V(xc)+E(xc)   XCENC  =      2553.09381568
  PAW double counting   =     67584.64502357   -67850.10995623
  entropy T*S    EENTRO =        -0.03119240
  eigenvalues    EBANDS =     -8221.76309503
  atomic energy  EATOM  =     26089.46230379
  Solvation  Ediel_sol  =      -705.23642011
  ---------------------------------------------------
  free energy    TOTEN  =     -1315.66532173 eV

  energy without entropy =    -1315.63412933  energy(sigma->0) =    -1315.64972553


--------------------------------------------------------------------------------------------------------




--------------------------------------- Iteration      1(  10)  ---------------------------------------


    POTLOK:  cpu time   87.7736: real time   87.9612
    SETDIJ:  cpu time    1.1335: real time    0.8392
    EDDIAG:  cpu time  109.9975: real time   91.4913
  RMM-DIIS:  cpu time  503.3760: real time  415.1714
    ORTHCH:  cpu time    6.0830: real time    3.0538
       DOS:  cpu time    0.2250: real time    0.1127
    --------------------------------------------
      LOOP:  cpu time  708.5885: real time  598.6296

 eigenvalue-minimisations  :  7765
 total energy-change (2. order) :-0.6769376E-05  (-0.5761940E-06)
 number of electron     568.9999970 magnetization       0.3074493
 augmentation part       22.4011018 magnetization       0.0767340

 Free energy of the ion-electron system (eV)
  ---------------------------------------------------
  alpha Z        PSCENC =       143.65704873
  Ewald energy   TEWEN  =    181401.89245616
  -Hartree energ DENC   =   -202311.28490754
  -exchange      EXHF   =         0.00000000
  -V(xc)+E(xc)   XCENC  =      2553.09437000
  PAW double counting   =     67584.65628098   -67850.12147180
  entropy T*S    EENTRO =        -0.03119551
  eigenvalues    EBANDS =     -8221.75441999
  atomic energy  EATOM  =     26089.46230379
  Solvation  Ediel_sol  =      -705.23579331
  ---------------------------------------------------
  free energy    TOTEN  =     -1315.66532850 eV

  energy without entropy =    -1315.63413299  energy(sigma->0) =    -1315.64973074


--------------------------------------------------------------------------------------------------------




 average (electrostatic) potential at core
  the test charge radii are     0.7672  0.7089  0.6991  0.7167  0.7215
  (the norm of the test charge is              1.0000)
       1 -39.0606       2 -39.0612       3 -39.0587       4 -39.0585       5 -39.0594
       6 -39.0599       7 -39.0598       8 -39.0598       9 -39.0610      10 -39.0642
      11 -39.0617      12 -39.0582      13 -39.0587      14 -39.0596      15 -39.0598
      16 -39.0598      17 -39.0601      18 -39.0625      19 -39.0630      20 -39.0594
      21 -39.0583      22 -39.0593      23 -39.0598      24 -39.0598      25 -39.0598
      26 -39.0601      27 -39.0604      28 -39.0593      29 -39.0584      30 -39.0590
      31 -39.0597      32 -39.0599      33 -39.0599      34 -39.0598      35 -39.0595
      36 -39.0591      37 -39.0589      38 -39.0592      39 -39.0597      40 -39.0599
      41 -39.0599      42 -39.0599      43 -39.0598      44 -39.0597      45 -39.0595
      46 -39.0597      47 -39.0598      48 -39.0599      49 -39.0595      50 -39.0596
      51 -39.0597      52 -39.0599      53 -39.0599      54 -39.0599      55 -39.0599
      56 -39.0597      57 -39.0596      58 -39.0592      59 -39.0589      60 -39.0595
      61 -39.0599      62 -39.0599      63 -39.0599      64 -39.0597      65 -76.6650
      66 -76.6647      67 -76.6637      68 -76.6646      69 -76.6650      70 -76.6649
      71 -76.6647      72 -76.6645      73 -76.6672      74 -76.6706      75 -76.6651
      76 -76.6637      77 -76.6647      78 -76.6650      79 -76.6647      80 -76.6645
      81 -76.6658      82 -76.6714      83 -76.6695      84 -76.6640      85 -76.6643
      86 -76.6650      87 -76.6649      88 -76.6647      89 -76.6644      90 -76.6659
      91 -76.6664      92 -76.6640      93 -76.6636      94 -76.6647      95 -76.6650
      96 -76.6647      97 -76.6648      98 -76.6647      99 -76.6642     100 -76.6639
     101 -76.6641     102 -76.6646     103 -76.6649     104 -76.6649     105 -76.6651
     106 -76.6649     107 -76.6647     108 -76.6645     109 -76.6646     110 -76.6649
     111 -76.6650     112 -76.6649     113 -76.6649     114 -76.6649     115 -76.6650
     116 -76.6649     117 -76.6650     118 -76.6650     119 -76.6649     120 -76.6647
     121 -76.6642     122 -76.6647     123 -76.6647     124 -76.6649     125 -76.6650
     126 -76.6649     127 -76.6648     128 -76.6646     129 -67.5035     130 -65.7438
     131 -64.1982     132 -92.0048     133 -91.9771     134 -92.0074     135 -91.5365
     136 -91.5395     137 -84.4495     138 -84.4468
 
 
 
 E-fermi :  -6.7296     XC(G=0):  -1.2892     alpha+bet : -1.0967


 spin component 1

 k-point     1 :       0.2500    0.2500    0.0000
  band No.  band energies     occupation 
      1     -35.7349      1.00000
      2     -34.2566      1.00000
      3     -33.4092      1.00000
      4     -33.3430      1.00000
      5     -32.7345      1.00000
      6     -28.8809      1.00000
      7     -26.5615      1.00000
      8     -25.2266      1.00000
      9     -25.1493      1.00000
     10     -25.1488      1.00000
     11     -24.9194      1.00000
     12     -24.9189      1.00000
     13     -24.7681      1.00000
     14     -24.6937      1.00000
     15     -24.6932      1.00000
[...]
      8.79226     13.77896     17.55743        -0.000505     -0.000320      0.006483
     10.04839     15.95459     17.55572        -0.000286     -0.000229      0.007020
      2.51189     -1.45042     17.55533        -0.000042      0.000024      0.008167
      3.76799      0.72525     17.55518         0.000201     -0.000547      0.009079
      5.02399      2.90096     17.55161        -0.000323     -0.000771      0.007473
      6.28009      5.07649     17.55216        -0.000531     -0.000313      0.006592
      7.53619      7.25208     17.55470        -0.000399     -0.000163      0.006493
      8.79221      9.42771     17.55769        -0.000170     -0.000152      0.005862
     10.04830     11.60334     17.55810        -0.000167     -0.000235      0.005906
     11.30447     13.77896     17.55616        -0.000497     -0.000152      0.007252
      3.76798     -3.62605     17.55609        -0.000704     -0.000058      0.007445
      5.02407     -1.45034     17.55651        -0.000429     -0.000265      0.009368
      6.27997      0.72525     17.55444        -0.000574     -0.000622      0.006497
      7.53616      2.90084     17.55181        -0.000456     -0.000581      0.009209
      8.79226      5.07645     17.55289        -0.000246     -0.000053      0.007113
     10.04832      7.25208     17.55614         0.000013     -0.000229      0.006754
     11.30437      9.42771     17.55840        -0.000122     -0.000178      0.005133
     12.56050     11.60333     17.55714        -0.000343     -0.000377      0.006758
      5.02398     -5.80169     17.55632        -0.000234     -0.000237      0.007714
      6.28015     -3.62605     17.55612        -0.000687     -0.000012      0.006830
      7.53622     -1.45041     17.55469        -0.000813      0.000044      0.008676
      8.79221      0.72525     17.55260        -0.000533     -0.000234      0.009933
     10.04835      2.90084     17.55270        -0.000451     -0.000385      0.007029
     11.30441      5.07644     17.55515        -0.000126     -0.000272      0.006578
     12.56046      7.25206     17.55776        -0.000152     -0.000150      0.005662
     13.81654      9.42768     17.55802        -0.000161     -0.000206      0.006041
      6.28002     -7.97733     17.55770        -0.000265     -0.000211      0.006042
      7.53616     -5.80170     17.55623        -0.000322     -0.000253      0.007563
      8.79232     -3.62607     17.55520        -0.000437     -0.000157      0.006996
     10.04835     -1.45041     17.55383        -0.000257     -0.000278      0.007663
     11.30443      0.72522     17.55357        -0.000241     -0.000402      0.007502
     12.56051      2.90081     17.55539        -0.000346     -0.000128      0.006534
     13.81656      5.07643     17.55729        -0.000163     -0.000047      0.006575
     15.07263      7.25205     17.55831        -0.000180     -0.000191      0.006202
      7.53612    -10.15295     17.55800        -0.000374     -0.000339      0.005708
      8.79220     -7.97732     17.55779        -0.000343     -0.000356      0.005878
     10.04832     -5.80171     17.55700        -0.000246     -0.000129      0.006374
     11.30445     -3.62607     17.55583        -0.000358     -0.000238      0.006940
     12.56051     -1.45044     17.55552        -0.000199     -0.000281      0.006817
     13.81660      0.72517     17.55657        -0.000245     -0.000212      0.006377
     15.07267      2.90079     17.55777        -0.000022     -0.000169      0.005645
     16.32874      5.07642     17.55805        -0.000246     -0.000101      0.005703
      8.79225    -12.32855     17.55616        -0.000324     -0.000152      0.007973
     10.04832    -10.15291     17.55678        -0.000403     -0.000264      0.006439
     11.30439     -7.97731     17.55783        -0.000310     -0.000222      0.005460
     12.56048     -5.80171     17.55786        -0.000255     -0.000056      0.005910
     13.81659     -3.62608     17.55758        -0.000306     -0.000153      0.006120
     15.07268     -1.45045     17.55782        -0.000308     -0.000153      0.005657
     16.32877      0.72518     17.55799        -0.000294     -0.000089      0.005271
     17.58487      2.90081     17.55722        -0.000595     -0.000100      0.005953
     10.04836    -14.50418     17.55501        -0.000636      0.000066      0.006828
     11.30443    -12.32852     17.55437        -0.000147     -0.000478      0.007058
     12.56053    -10.15289     17.55546        -0.000399     -0.000381      0.006668
     13.81658     -7.97731     17.55723        -0.000184      0.000091      0.006224
     15.07265     -5.80170     17.55829        -0.000120     -0.000099      0.006122
     16.32876     -3.62606     17.55839        -0.000278     -0.000265      0.006076
     17.58487     -1.45043     17.55755        -0.000443     -0.000308      0.005929
     18.84098      0.72520     17.55613        -0.000340      0.000021      0.006995
      5.17275     -0.76707     23.63685         0.005434      0.013471      0.000006
      5.04941     -0.48919     22.13113        -0.003221     -0.005517     -0.012922
      5.66331      0.86349     21.69112        -0.008678     -0.011093     -0.005453
      6.46214     -0.84272     24.00085         0.012716     -0.006901      0.002316
      4.57547     -1.92645     23.96285         0.005302      0.007212     -0.020056
      4.58858      0.21833     24.33922        -0.014020      0.010710      0.010387
      5.65848     -1.52612     21.48405        -0.006127      0.003469     -0.007813
      3.72092     -0.54094     21.82903         0.003526     -0.000411     -0.008102
      6.89439      0.87163     21.49212         0.008793     -0.012420     -0.014792
      4.88314      1.83046     21.59360        -0.009289      0.002203     -0.005467
 -----------------------------------------------------------------------------------
    total drift:                                0.089638     -0.000567      0.315106


--------------------------------------------------------------------------------------------------------



  FREE ENERGIE OF THE ION-ELECTRON SYSTEM (eV)
  ---------------------------------------------------
  free  energy   TOTEN  =     -1315.66532850 eV

  energy  without entropy=    -1315.63413299  energy(sigma->0) =    -1315.64973074
 


--------------------------------------------------------------------------------------------------------


    POTLOK:  cpu time   88.2301: real time   88.0135


--------------------------------------------------------------------------------------------------------


 writing wavefunctions
     LOOP+:  cpu time10968.1544: real time 9338.9923
    4ORBIT:  cpu time    0.0000: real time    0.0000
 


 total charge     
 
# of ion       s       p       d       tot
------------------------------------------
    1        0.743   1.391   0.000   2.135
    2        0.743   1.391   0.000   2.135
    3        0.743   1.391   0.000   2.135
    4        0.743   1.391   0.000   2.135
    5        0.743   1.391   0.000   2.135
    6        0.743   1.391   0.000   2.135
    7        0.743   1.391   0.000   2.135
    8        0.743   1.391   0.000   2.135
    9        0.743   1.391   0.000   2.135
   10        0.743   1.392   0.000   2.135
   11        0.743   1.392   0.000   2.135
   12        0.743   1.391   0.000   2.135
   13        0.743   1.391   0.000   2.135
   14        0.743   1.391   0.000   2.135
   15        0.743   1.391   0.000   2.135
   16        0.743   1.391   0.000   2.135
   17        0.743   1.391   0.000   2.135
   18        0.743   1.391   0.000   2.135
   19        0.743   1.392   0.000   2.135
   20        0.743   1.391   0.000   2.135
   21        0.743   1.391   0.000   2.135
   22        0.743   1.391   0.000   2.135
   23        0.743   1.391   0.000   2.135
   24        0.743   1.391   0.000   2.135
   25        0.743   1.391   0.000   2.135
   26        0.743   1.391   0.000   2.135
   27        0.743   1.391   0.000   2.135
   28        0.743   1.391   0.000   2.135
   29        0.743   1.391   0.000   2.135
   30        0.743   1.391   0.000   2.135
   31        0.743   1.391   0.000   2.135
   32        0.743   1.391   0.000   2.135
   33        0.743   1.391   0.000   2.135
   34        0.743   1.391   0.000   2.135
   35        0.743   1.391   0.000   2.135
   36        0.743   1.391   0.000   2.135
   37        0.743   1.391   0.000   2.135
   38        0.743   1.391   0.000   2.135
   39        0.743   1.391   0.000   2.135
   40        0.743   1.391   0.000   2.135
   41        0.743   1.391   0.000   2.135
   42        0.743   1.391   0.000   2.135
   43        0.743   1.391   0.000   2.135
   44        0.743   1.391   0.000   2.135
   45        0.743   1.391   0.000   2.135
   46        0.743   1.391   0.000   2.135
   47        0.743   1.391   0.000   2.135
   48        0.743   1.391   0.000   2.135
   49        0.743   1.391   0.000   2.135
   50        0.743   1.391   0.000   2.135
   51        0.743   1.391   0.000   2.135
   52        0.743   1.391   0.000   2.135
   53        0.743   1.391   0.000   2.135
   54        0.743   1.391   0.000   2.135
   55        0.743   1.391   0.000   2.135
   56        0.743   1.391   0.000   2.135
   57        0.743   1.391   0.000   2.135
   58        0.743   1.391   0.000   2.135
   59        0.743   1.391   0.000   2.135
   60        0.743   1.391   0.000   2.135
   61        0.743   1.391   0.000   2.135
   62        0.743   1.391   0.000   2.135
   63        0.743   1.391   0.000   2.135
   64        0.743   1.391   0.000   2.135
   65        1.240   2.815   0.000   4.055
   66        1.240   2.815   0.000   4.055
   67        1.240   2.815   0.000   4.055
   68        1.240   2.815   0.000   4.055
   69        1.240   2.815   0.000   4.055
   70        1.240   2.815   0.000   4.055
   71        1.240   2.815   0.000   4.055
   72        1.240   2.815   0.000   4.055
   73        1.240   2.815   0.000   4.055
   74        1.240   2.815   0.000   4.054
   75        1.240   2.815   0.000   4.055
   76        1.240   2.815   0.000   4.055
   77        1.240   2.815   0.000   4.055
   78        1.240   2.815   0.000   4.055
   79        1.240   2.815   0.000   4.055
   80        1.240   2.815   0.000   4.055
   81        1.240   2.815   0.000   4.055
   82        1.240   2.815   0.000   4.054
   83        1.240   2.815   0.000   4.054
   84        1.240   2.815   0.000   4.055
   85        1.240   2.815   0.000   4.055
   86        1.240   2.815   0.000   4.055
   87        1.240   2.815   0.000   4.055
   88        1.240   2.815   0.000   4.055
   89        1.240   2.815   0.000   4.055
   90        1.240   2.815   0.000   4.055
   91        1.240   2.815   0.000   4.055
   92        1.240   2.815   0.000   4.055
   93        1.240   2.815   0.000   4.055
   94        1.240   2.815   0.000   4.055
   95        1.240   2.815   0.000   4.055
   96        1.240   2.815   0.000   4.055
   97        1.240   2.815   0.000   4.055
   98        1.240   2.815   0.000   4.055
   99        1.240   2.815   0.000   4.055
  100        1.240   2.815   0.000   4.055
  101        1.240   2.815   0.000   4.055
  102        1.240   2.815   0.000   4.055
  103        1.240   2.815   0.000   4.055
  104        1.240   2.815   0.000   4.055
  105        1.240   2.815   0.000   4.055
  106        1.240   2.815   0.000   4.055
  107        1.240   2.815   0.000   4.055
  108        1.240   2.815   0.000   4.055
  109        1.240   2.815   0.000   4.055
  110        1.240   2.815   0.000   4.055
  111        1.240   2.815   0.000   4.055
  112        1.240   2.815   0.000   4.055
  113        1.240   2.815   0.000   4.055
  114        1.240   2.815   0.000   4.055
  115        1.240   2.815   0.000   4.055
  116        1.240   2.815   0.000   4.055
  117        1.240   2.815   0.000   4.055
  118        1.240   2.815   0.000   4.055
  119        1.240   2.815   0.000   4.055
  120        1.240   2.815   0.000   4.055
  121        1.240   2.815   0.000   4.055
  122        1.240   2.815   0.000   4.055
  123        1.240   2.815   0.000   4.055
  124        1.240   2.815   0.000   4.055
  125        1.240   2.815   0.000   4.055
  126        1.240   2.815   0.000   4.055
  127        1.240   2.815   0.000   4.055
  128        1.240   2.815   0.000   4.055
  129        0.819   1.561   0.000   2.380
  130        0.835   1.598   0.000   2.433
  131        0.878   1.727   0.000   2.605
  132        1.758   4.414   0.000   6.172
  133        1.758   4.412   0.000   6.170
  134        1.758   4.413   0.000   6.171
  135        1.756   4.402   0.000   6.157
  136        1.756   4.403   0.000   6.159
  137        1.593   3.550   0.000   5.144
  138        1.593   3.551   0.000   5.144
--------------------------------------------------
tot        141.433 303.231   0.000 444.663
 


 magnetization (x)
 
# of ion       s       p       d       tot
------------------------------------------
    1       -0.000  -0.000   0.000  -0.000
    2       -0.000  -0.000   0.000  -0.000
    3       -0.000  -0.000   0.000  -0.000
    4       -0.000  -0.000   0.000  -0.000
    5       -0.000  -0.000   0.000  -0.000
    6        0.000   0.000   0.000   0.000
    7        0.000   0.000   0.000   0.000
    8        0.000   0.000   0.000   0.000
    9       -0.000  -0.000   0.000  -0.000
   10       -0.000  -0.000   0.000  -0.000
   11       -0.000  -0.000   0.000  -0.000
   12       -0.000  -0.000   0.000  -0.000
   13       -0.000  -0.000   0.000  -0.000
   14       -0.000  -0.000   0.000  -0.000
   15        0.000   0.000   0.000   0.000
   16        0.000   0.000   0.000   0.000
   17        0.000   0.000   0.000   0.000
   18       -0.000  -0.000   0.000  -0.000
   19       -0.000  -0.000   0.000  -0.000
   20       -0.000  -0.000   0.000  -0.000
   21       -0.000  -0.000   0.000  -0.000
   22       -0.000  -0.000   0.000  -0.000
   23        0.000   0.000   0.000   0.000
   24        0.000   0.000   0.000   0.000
   25        0.000   0.000   0.000   0.000
   26        0.000   0.000   0.000   0.000
   27        0.000  -0.000   0.000   0.000
   28       -0.000   0.000   0.000   0.000
   29       -0.000  -0.000   0.000  -0.000
   30       -0.000  -0.000   0.000  -0.000
   31        0.000   0.000   0.000   0.000
   32        0.000   0.000   0.000   0.000
   33        0.000   0.000   0.000   0.000
   34        0.000   0.000   0.000   0.000
   35        0.000   0.000   0.000   0.000
   36        0.000   0.000   0.000   0.000
   37        0.000   0.000   0.000   0.000
   38        0.000   0.000   0.000   0.000
   39        0.000   0.000   0.000   0.000
   40        0.000   0.000   0.000   0.000
   41        0.000   0.000   0.000   0.000
   42        0.000   0.000   0.000   0.000
   43        0.000   0.000   0.000   0.000
   44        0.000   0.000   0.000   0.000
   45        0.000   0.000   0.000   0.000
   46        0.000   0.000   0.000   0.000
   47        0.000   0.000   0.000   0.000
   48        0.000   0.000   0.000   0.000
   49       -0.000  -0.000   0.000  -0.000
   50       -0.000  -0.000   0.000  -0.000
   51        0.000  -0.000   0.000  -0.000
   52        0.000   0.000   0.000   0.000
   53        0.000   0.000   0.000   0.000
   54        0.000   0.000   0.000   0.000
   55        0.000   0.000   0.000   0.000
   56        0.000   0.000   0.000   0.000
   57       -0.000  -0.000   0.000  -0.000
   58       -0.000  -0.000   0.000  -0.000
   59       -0.000  -0.000   0.000  -0.000
   60       -0.000  -0.000   0.000  -0.000
   61        0.000   0.000   0.000   0.000
   62        0.000   0.000   0.000   0.000
   63        0.000   0.000   0.000   0.000
   64        0.000   0.000   0.000   0.000
   65        0.000   0.000   0.000   0.000
   66        0.000   0.000   0.000   0.000
   67        0.000   0.000   0.000   0.000
   68        0.000   0.000   0.000   0.000
   69        0.000   0.000   0.000   0.000
   70       -0.000  -0.000   0.000  -0.000
   71       -0.000  -0.000   0.000  -0.000
   72        0.000   0.000   0.000   0.000
   73        0.000   0.000   0.000   0.000
   74        0.000   0.000   0.000   0.000
   75        0.000   0.000   0.000   0.000
   76        0.000   0.000   0.000   0.000
   77        0.000   0.000   0.000   0.000
   78       -0.000  -0.000   0.000  -0.000
   79       -0.000  -0.000   0.000  -0.000
   80       -0.000  -0.000   0.000  -0.000
   81        0.000   0.000   0.000   0.000
   82        0.000   0.000   0.000   0.000
   83       -0.000   0.000   0.000   0.000
   84        0.000   0.000   0.000   0.000
   85        0.000   0.000   0.000   0.000
   86        0.000  -0.000   0.000  -0.000
   87       -0.000  -0.000   0.000  -0.000
   88       -0.000  -0.000   0.000  -0.000
   89       -0.000  -0.000   0.000  -0.000
   90        0.000   0.000   0.000   0.000
   91       -0.000  -0.000   0.000  -0.000
   92        0.000   0.000   0.000   0.000
   93        0.000   0.000   0.000   0.000
   94        0.000   0.000   0.000   0.000
   95       -0.000  -0.000   0.000  -0.000
   96       -0.000  -0.000   0.000  -0.000
   97       -0.000  -0.000   0.000  -0.000
   98       -0.000  -0.000   0.000  -0.000
   99       -0.000  -0.000   0.000  -0.000
  100       -0.000  -0.000   0.000  -0.000
  101        0.000   0.000   0.000   0.000
  102       -0.000  -0.000   0.000  -0.000
  103       -0.000  -0.000   0.000  -0.000
  104       -0.000  -0.000   0.000  -0.000
  105       -0.000  -0.000   0.000  -0.000
  106       -0.000  -0.000   0.000  -0.000
  107       -0.000  -0.000   0.000  -0.000
  108       -0.000  -0.000   0.000  -0.000
  109       -0.000  -0.000   0.000  -0.000
  110       -0.000  -0.000   0.000  -0.000
  111       -0.000  -0.000   0.000  -0.000
  112       -0.000  -0.000   0.000  -0.000
  113        0.000   0.000   0.000   0.000
  114        0.000   0.000   0.000   0.000
  115       -0.000  -0.000   0.000  -0.000
  116       -0.000  -0.000   0.000  -0.000
  117       -0.000  -0.000   0.000  -0.000
  118       -0.000  -0.000   0.000  -0.000
  119       -0.000  -0.000   0.000  -0.000
  120       -0.000  -0.000   0.000  -0.000
  121        0.000   0.000   0.000   0.000
  122        0.000   0.000   0.000   0.000
  123        0.000   0.000   0.000   0.000
  124       -0.000  -0.000   0.000  -0.000
  125       -0.000  -0.000   0.000  -0.000
  126       -0.000  -0.000   0.000  -0.000
  127       -0.000  -0.000   0.000  -0.000
  128        0.000   0.000   0.000   0.000
  129       -0.000  -0.000   0.000  -0.000
  130       -0.001  -0.002   0.000  -0.002
  131       -0.002  -0.010   0.000  -0.011
  132        0.000   0.000   0.000   0.000
  133       -0.000  -0.000   0.000  -0.000
  134        0.000   0.000   0.000   0.000
  135        0.000   0.003   0.000   0.003
  136        0.000   0.003   0.000   0.004
  137        0.002   0.133   0.000   0.134
  138        0.002   0.130   0.000   0.131
--------------------------------------------------
tot          0.001   0.258   0.000   0.259
 

 total amount of memory used by VASP MPI-rank0  2733408. kBytes
=======================================================================

   base      :      30000. kBytes
   nonlr-proj:      63781. kBytes
   fftplans  :     108234. kBytes
   grid      :    1287382. kBytes
   one-center:        847. kBytes
   wavefun   :    1243164. kBytes
 
  
  
 General timing and accounting informations for this job:
 ========================================================
  
                  Total CPU time used (sec):    13046.184
                            User time (sec):    11975.708
                          System time (sec):     1070.475
                         Elapsed time (sec):    10881.768
  
                   Maximum memory used (kb):     4989228.
                   Average memory used (kb):           0.
  
                          Minor page faults:     22925741
                          Major page faults:            0
                 Voluntary context switches:        89675
