Job started on c497-121.stampede2.tacc.utexas.edu at Fri May 21 02:00:06 CDT 2021
TACC:  Starting up job 7740859 
TACC:  Starting parallel tasks... 
 running on   48 total cores
 distrk:  each k-point on   48 cores,    1 groups
 distr:  one band on   12 cores,    4 groups
 using from now: INCAR     
 vasp.5.4.4.18Apr17-6-g9f103f2a35 (build May 01 2020 14:57:12) complex          
  
 POSCAR found type information on POSCAR  C  F  O 
 POSCAR found :  3 types and      10 ions
 scaLAPACK will be used

 ----------------------------------------------------------------------------- 
|                                                                             |
|  ADVICE TO THIS USER RUNNING 'VASP/VAMP'   (HEAR YOUR MASTER'S VOICE ...):  |
|                                                                             |
|      You have switched on vdW-DFT.                                          |
|      This routine was written and supplied by Jiri Klimes.                  |
|      We recommed that you carefully read and cite the following             |
|      publication                                                            |
|      J. Klimes, D.R. Bowler, A. Michelides                                  |
|        J. Phys.: Cond Matt. 22 022201 (2010)                                |
|      J. Klimes, D.R. Bowler, A. Michelides                                  |
|        Phys. Rev. B. 83, 195131 (2011)                                      |
|      and references therein.                                                |
|                                                                             |
 ----------------------------------------------------------------------------- 

 LDA part: xc-table for Pade appr. of Perdew
 found WAVECAR, reading the header
 POSCAR, INCAR and KPOINTS ok, starting setup
 FFT: planning ...
 reading WAVECAR
 the WAVECAR file was read successfully
 initial charge from wavefunction
 entering main loop
       N       E                     dE             d eps       ncg     rms          rms(c)
SOL:   1  -0.17672E+01    0.00000E+00   -0.17672E+01   110
  FERMI_SHIFT =   1.357062823615751E-002
Total rVV10 correction in eV:      1.6356036    60.1474804
DAV:   1    -0.793063085525E+02   -0.79306E+02   -0.57106E+01   216   0.427E+01    0.584E+00
SOL:   2  -0.17983E+01    0.00000E+00   -0.17983E+01    99
  FERMI_SHIFT =   1.357040637616416E-002
Total rVV10 correction in eV:      1.6380509    60.2029319
RMM:   2    -0.780453386591E+02    0.12610E+01   -0.42861E+00   176   0.102E+01    0.339E+00
SOL:   3  -0.18558E+01    0.00000E+00   -0.18558E+01    99
  FERMI_SHIFT =   1.357259874289080E-002
Total rVV10 correction in eV:      1.6392167    60.2426722
RMM:   3    -0.776925924068E+02    0.35275E+00   -0.35598E+00   178   0.619E+00    0.147E+00
SOL:   4  -0.18460E+01    0.00000E+00   -0.18460E+01    93
  FERMI_SHIFT =   1.357259116345988E-002
Total rVV10 correction in eV:      1.6386417    60.2372386
RMM:   4    -0.776627271748E+02    0.29865E-01   -0.13321E-01   178   0.182E+00    0.813E-01
SOL:   5  -0.18286E+01    0.00000E+00   -0.18286E+01    95
  FERMI_SHIFT =   1.357258331660985E-002
Total rVV10 correction in eV:      1.6380697    60.2265774
RMM:   5    -0.776594721518E+02    0.32550E-02   -0.22243E-01   176   0.182E+00    0.475E-01
SOL:   6  -0.18326E+01    0.00000E+00   -0.18326E+01    92
  FERMI_SHIFT =   1.357258331592653E-002
Total rVV10 correction in eV:      1.6384285    60.2252254
RMM:   6    -0.776544042172E+02    0.50679E-02   -0.67695E-02   176   0.102E+00    0.237E-01
SOL:   7  -0.18170E+01    0.00000E+00   -0.18170E+01    94
  FERMI_SHIFT =   1.357077771786569E-002
Total rVV10 correction in eV:      1.6382374    60.2117204
RMM:   7    -0.776583908773E+02   -0.39867E-02   -0.10009E-02   176   0.522E-01    0.101E-01
SOL:   8  -0.18107E+01    0.00000E+00   -0.18107E+01    88
  FERMI_SHIFT =   1.357076753223041E-002
Total rVV10 correction in eV:      1.6381149    60.2057212
RMM:   8    -0.776596651186E+02   -0.12742E-02   -0.50994E-03   176   0.304E-01    0.783E-02
SOL:   9  -0.17935E+01    0.00000E+00   -0.17935E+01    92
  FERMI_SHIFT =   1.357225416041694E-002
Total rVV10 correction in eV:      1.6379375    60.1855196
RMM:   9    -0.776627973763E+02   -0.31323E-02   -0.85511E-03   176   0.401E-01    0.797E-02
SOL:  10  -0.17929E+01    0.00000E+00   -0.17929E+01    78
  FERMI_SHIFT =   1.357225416050156E-002
Total rVV10 correction in eV:      1.6379132    60.1846344
RMM:  10    -0.776629518915E+02   -0.15452E-03   -0.63198E-04   178   0.135E-01    0.598E-02
SOL:  11  -0.17858E+01    0.00000E+00   -0.17858E+01    86
  FERMI_SHIFT =   1.357226438183698E-002
Total rVV10 correction in eV:      1.6377955    60.1747968
RMM:  11    -0.776643367694E+02   -0.13849E-02   -0.15532E-03   176   0.182E-01    0.243E-02
SOL:  12  -0.17824E+01    0.00000E+00   -0.17824E+01    81
  FERMI_SHIFT =   1.357073923283469E-002
Total rVV10 correction in eV:      1.6377467    60.1691311
RMM:  12    -0.776651184658E+02   -0.78170E-03   -0.37436E-04   179   0.109E-01    0.268E-02
SOL:  13  -0.17791E+01    0.00000E+00   -0.17791E+01    82
  FERMI_SHIFT =   1.357228283708334E-002
Total rVV10 correction in eV:      1.6376779    60.1619508
RMM:  13    -0.776661629314E+02   -0.10445E-02   -0.32768E-04   178   0.100E-01    0.108E-02
SOL:  14  -0.17772E+01    0.00000E+00   -0.17772E+01    79
  FERMI_SHIFT =   1.357229139571384E-002
Total rVV10 correction in eV:      1.6376237    60.1573982
RMM:  14    -0.776667243156E+02   -0.56138E-03   -0.11675E-04   169   0.743E-02    0.122E-02
SOL:  15  -0.17764E+01    0.00000E+00   -0.17764E+01    78
  FERMI_SHIFT =   1.357049105503555E-002
Total rVV10 correction in eV:      1.6375877    60.1542581
RMM:  15    -0.776670988866E+02   -0.37457E-03   -0.60876E-05   160   0.516E-02    0.710E-03
SOL:  16  -0.17761E+01    0.00000E+00   -0.17761E+01    76
  FERMI_SHIFT =   1.357049904094110E-002
Total rVV10 correction in eV:      1.6375609    60.1513582
RMM:  16    -0.776674303139E+02   -0.33143E-03   -0.35514E-05   137   0.387E-02    0.314E-03
SOL:  17  -0.17761E+01    0.00000E+00   -0.17761E+01    71
  FERMI_SHIFT =   1.357252184676133E-002
Total rVV10 correction in eV:      1.6375495    60.1503160
RMM:  17    -0.776675457570E+02   -0.11544E-03   -0.14356E-05   118   0.297E-02    0.335E-03
SOL:  18  -0.17761E+01    0.00000E+00   -0.17761E+01    71
  FERMI_SHIFT =   1.357252870202832E-002
Total rVV10 correction in eV:      1.6375361    60.1493750
RMM:  18    -0.776676454348E+02   -0.99678E-04   -0.87309E-06   116   0.260E-02    0.254E-03
SOL:  19  -0.17761E+01    0.00000E+00   -0.17761E+01    71
  FERMI_SHIFT =   1.357046834247444E-002
Total rVV10 correction in eV:      1.6375227    60.1486173
RMM:  19    -0.776677175237E+02   -0.72089E-04   -0.71406E-06   116   0.211E-02    0.481E-04
SOL:  20  -0.17762E+01    0.00000E+00   -0.17762E+01    66
  FERMI_SHIFT =   1.357255252351366E-002
Total rVV10 correction in eV:      1.6375150    60.1482658
RMM:  20    -0.776677476879E+02   -0.30164E-04   -0.49507E-06   116   0.182E-02    0.128E-03
SOL:  21  -0.17762E+01    0.00000E+00   -0.17762E+01    65
  FERMI_SHIFT =   1.357078825928160E-002
Total rVV10 correction in eV:      1.6375076    60.1479480
RMM:  21    -0.776677715303E+02   -0.23842E-04   -0.35110E-06   116   0.161E-02    0.698E-04
SOL:  22  -0.17762E+01    0.00000E+00   -0.17762E+01    61
  FERMI_SHIFT =   1.357218203923011E-002
Total rVV10 correction in eV:      1.6375045    60.1478147
RMM:  22    -0.776677804381E+02   -0.89078E-05   -0.23954E-06   116   0.132E-02
Total rVV10 correction in eV:      1.6374949    60.1474805
SOL:  23  -0.17762E+01    0.00000E+00   -0.17762E+01    58
  FERMI_SHIFT =   1.357212154523822E-002
Total rVV10 correction in eV:      1.6375014    60.1476998
   1 F= -.77667780E+02 E0= -.77667780E+02  d E =-.776678E+02  mag=    -0.0000
 curvature:   0.00 expect dE= 0.000E+00 dE for cont linesearch  0.000E+00
 trial: gam= 0.00000 g(F)=  0.195E+00 g(S)=  0.000E+00 ort = 0.000E+00 (trialstep = 0.100E+01)
 search vector abs. value=  0.195E+00
 bond charge predicted
       N       E                     dE             d eps       ncg     rms          rms(c)
SOL:  24  -0.17931E+01    0.00000E+00   -0.17931E+01    98
  FERMI_SHIFT =   1.357091611109201E-002
Total rVV10 correction in eV:      1.6355522    60.1478529
DAV:   1    -0.772379317806E+02    0.42984E+00   -0.67929E+01   256   0.468E+01    0.241E+00
SOL:  25  -0.17770E+01    0.00000E+00   -0.17770E+01    94
  FERMI_SHIFT =   1.357187595338213E-002
Total rVV10 correction in eV:      1.6365743    60.1614317
RMM:   2    -0.775605740301E+02   -0.32264E+00   -0.23308E+00   176   0.792E+00    0.118E+00
SOL:  26  -0.17702E+01    0.00000E+00   -0.17702E+01    90
  FERMI_SHIFT =   1.357200767487801E-002
Total rVV10 correction in eV:      1.6366729    60.1597576
RMM:   3    -0.775349488380E+02    0.25625E-01   -0.63597E-02   176   0.127E+00    0.676E-01
SOL:  27  -0.17673E+01    0.00000E+00   -0.17673E+01    90
  FERMI_SHIFT =   1.357204417079855E-002
Total rVV10 correction in eV:      1.6365623    60.1518570
RMM:   4    -0.775398409583E+02   -0.48921E-02   -0.61506E-02   176   0.105E+00    0.166E-01
SOL:  28  -0.17716E+01    0.00000E+00   -0.17716E+01    84
  FERMI_SHIFT =   1.357202581077269E-002
Total rVV10 correction in eV:      1.6366316    60.1512556
RMM:   5    -0.775399403592E+02   -0.99401E-04   -0.25784E-03   178   0.258E-01    0.804E-02
SOL:  29  -0.17769E+01    0.00000E+00   -0.17769E+01    85
  FERMI_SHIFT =   1.357101115229042E-002
Total rVV10 correction in eV:      1.6366562    60.1506469
RMM:   6    -0.775405860664E+02   -0.64571E-03   -0.25245E-03   176   0.198E-01    0.559E-02
SOL:  30  -0.17777E+01    0.00000E+00   -0.17777E+01    80
  FERMI_SHIFT =   1.357101115231291E-002
Total rVV10 correction in eV:      1.6366386    60.1502997
RMM:   7    -0.775408514500E+02   -0.26538E-03   -0.69866E-04   176   0.125E-01    0.188E-02
SOL:  31  -0.17798E+01    0.00000E+00   -0.17798E+01    79
  FERMI_SHIFT =   1.357102806516497E-002
Total rVV10 correction in eV:      1.6366494    60.1500526
RMM:   8    -0.775410034498E+02   -0.15200E-03   -0.56897E-05   160   0.497E-02    0.950E-03
SOL:  32  -0.17820E+01    0.00000E+00   -0.17820E+01    79
  FERMI_SHIFT =   1.357104504048351E-002
Total rVV10 correction in eV:      1.6366651    60.1496818
RMM:   9    -0.775411899410E+02   -0.18649E-03   -0.79936E-05   168   0.491E-02    0.875E-03
SOL:  33  -0.17839E+01    0.00000E+00   -0.17839E+01    77
  FERMI_SHIFT =   1.357106217818987E-002
Total rVV10 correction in eV:      1.6366691    60.1493375
RMM:  10    -0.775413318401E+02   -0.14190E-03   -0.22989E-05   122   0.392E-02    0.584E-03
SOL:  34  -0.17854E+01    0.00000E+00   -0.17854E+01    76
  FERMI_SHIFT =   1.357107886814454E-002
Total rVV10 correction in eV:      1.6366665    60.1490037
RMM:  11    -0.775414421740E+02   -0.11033E-03   -0.27123E-05   129   0.346E-02    0.252E-03
SOL:  35  -0.17868E+01    0.00000E+00   -0.17868E+01    74
  FERMI_SHIFT =   1.357109444030030E-002
Total rVV10 correction in eV:      1.6366598    60.1485877
RMM:  12    -0.775415608786E+02   -0.11870E-03   -0.16514E-05   119   0.297E-02    0.285E-03
SOL:  36  -0.17873E+01    0.00000E+00   -0.17873E+01    69
  FERMI_SHIFT =   1.357110953006410E-002
Total rVV10 correction in eV:      1.6366557    60.1484033
RMM:  13    -0.775416018285E+02   -0.40950E-04   -0.10043E-05   117   0.256E-02    0.158E-03
SOL:  37  -0.17876E+01    0.00000E+00   -0.17876E+01    67
  FERMI_SHIFT =   1.357112452649653E-002
Total rVV10 correction in eV:      1.6366492    60.1481621
RMM:  14    -0.775416460711E+02   -0.44243E-04   -0.81576E-06   117   0.227E-02    0.544E-04
SOL:  38  -0.17877E+01    0.00000E+00   -0.17877E+01    65
  FERMI_SHIFT =   1.357187594092987E-002
Total rVV10 correction in eV:      1.6366432    60.1479841
RMM:  15    -0.775416736445E+02   -0.27573E-04   -0.53372E-06   116   0.190E-02    0.635E-04
SOL:  39  -0.17878E+01    0.00000E+00   -0.17878E+01    61
  FERMI_SHIFT =   1.357114022725547E-002
Total rVV10 correction in eV:      1.6366387    60.1478529
RMM:  16    -0.775416884300E+02   -0.14785E-04   -0.37723E-06   116   0.159E-02    0.318E-04
SOL:  40  -0.17878E+01    0.00000E+00   -0.17878E+01    62
  FERMI_SHIFT =   1.357186167759736E-002
Total rVV10 correction in eV:      1.6366337    60.1476926
RMM:  17    -0.775417039075E+02   -0.15478E-04   -0.31374E-06   116   0.146E-02    0.538E-04
SOL:  41  -0.17879E+01    0.00000E+00   -0.17879E+01    60
  FERMI_SHIFT =   1.357187594092807E-002
Total rVV10 correction in eV:      1.6366324    60.1476461
RMM:  18    -0.775417080080E+02   -0.41005E-05   -0.18780E-06   116   0.116E-02
Total rVV10 correction in eV:      1.6366287    60.1474797
SOL:  42  -0.17879E+01    0.00000E+00   -0.17879E+01    54
  FERMI_SHIFT =   1.357189060436964E-002
Total rVV10 correction in eV:      1.6366318    60.1476142
   2 F= -.77541708E+02 E0= -.77541708E+02  d E =0.126072E+00  mag=     0.0000
 trial-energy change:    0.126072  1 .order    0.141649   -0.195000    0.478298
 step:   0.3198(harm=  0.2896)  dis= 0.00977  next Energy=   -77.699472 (dE=-0.317E-01)
 bond charge predicted
       N       E                     dE             d eps       ncg     rms          rms(c)
SOL:  43  -0.17764E+01    0.00000E+00   -0.17764E+01    96
  FERMI_SHIFT =   1.357215131549405E-002
Total rVV10 correction in eV:      1.6379680    60.1477238
DAV:   1    -0.776603235259E+02   -0.11862E+00   -0.31017E+01   176   0.314E+01    0.167E+00
SOL:  44  -0.17844E+01    0.00000E+00   -0.17844E+01    91
  FERMI_SHIFT =   1.357084370516301E-002
Total rVV10 correction in eV:      1.6377669    60.1578389
RMM:   2    -0.777145880263E+02   -0.54265E-01   -0.11856E+00   176   0.575E+00    0.825E-01
SOL:  45  -0.17898E+01    0.00000E+00   -0.17898E+01    88
  FERMI_SHIFT =   1.357214633246273E-002
Total rVV10 correction in eV:      1.6377007    60.1583079
RMM:   3    -0.776998418248E+02    0.14746E-01   -0.28687E-02   178   0.850E-01    0.521E-01
SOL:  46  -0.17957E+01    0.00000E+00   -0.17957E+01    90
  FERMI_SHIFT =   1.357088121434752E-002
Total rVV10 correction in eV:      1.6374586    60.1549762
RMM:   4    -0.776999393413E+02   -0.97517E-04   -0.60513E-02   176   0.923E-01    0.223E-01
SOL:  47  -0.17933E+01    0.00000E+00   -0.17933E+01    83
  FERMI_SHIFT =   1.357212958747661E-002
Total rVV10 correction in eV:      1.6373762    60.1547079
RMM:   5    -0.776987113624E+02    0.12280E-02   -0.21457E-03   176   0.266E-01    0.127E-01
SOL:  48  -0.17881E+01    0.00000E+00   -0.17881E+01    85
  FERMI_SHIFT =   1.357213307157118E-002
Total rVV10 correction in eV:      1.6372679    60.1532784
RMM:   6    -0.776989936632E+02   -0.28230E-03   -0.93682E-03   176   0.357E-01    0.994E-02
SOL:  49  -0.17882E+01    0.00000E+00   -0.17882E+01    80
  FERMI_SHIFT =   1.357087533378776E-002
Total rVV10 correction in eV:      1.6372865    60.1529256
RMM:   7    -0.776989269545E+02    0.66709E-04   -0.97335E-04   176   0.151E-01    0.178E-02
SOL:  50  -0.17866E+01    0.00000E+00   -0.17866E+01    78
  FERMI_SHIFT =   1.357213833684684E-002
Total rVV10 correction in eV:      1.6372772    60.1522894
RMM:   8    -0.776990469108E+02   -0.11996E-03   -0.18634E-04   178   0.733E-02    0.865E-03
SOL:  51  -0.17855E+01    0.00000E+00   -0.17855E+01    75
  FERMI_SHIFT =   1.357086898260582E-002
Total rVV10 correction in eV:      1.6372645    60.1517462
RMM:   9    -0.776991094181E+02   -0.62507E-04   -0.30362E-05   125   0.383E-02    0.430E-03
SOL:  52  -0.17834E+01    0.00000E+00   -0.17834E+01    77
  FERMI_SHIFT =   1.357086642978686E-002
Total rVV10 correction in eV:      1.6372421    60.1506317
RMM:  10    -0.776992197811E+02   -0.11036E-03   -0.60183E-05   153   0.443E-02    0.681E-03
SOL:  53  -0.17824E+01    0.00000E+00   -0.17824E+01    74
  FERMI_SHIFT =   1.357086443939151E-002
Total rVV10 correction in eV:      1.6372368    60.1499842
RMM:  11    -0.776992632315E+02   -0.43450E-04   -0.21957E-05   122   0.339E-02    0.263E-03
SOL:  54  -0.17814E+01    0.00000E+00   -0.17814E+01    74
  FERMI_SHIFT =   1.357214820918323E-002
Total rVV10 correction in eV:      1.6372299    60.1491813
RMM:  12    -0.776993074055E+02   -0.44174E-04   -0.19925E-05   122   0.312E-02    0.202E-03
SOL:  55  -0.17810E+01    0.00000E+00   -0.17810E+01    69
  FERMI_SHIFT =   1.357085995858337E-002
Total rVV10 correction in eV:      1.6372255    60.1488306
RMM:  13    -0.776993271790E+02   -0.19774E-04   -0.93750E-06   116   0.258E-02    0.124E-03
SOL:  56  -0.17807E+01    0.00000E+00   -0.17807E+01    68
  FERMI_SHIFT =   1.357085736210145E-002
Total rVV10 correction in eV:      1.6372205    60.1484270
RMM:  14    -0.776993490865E+02   -0.21907E-04   -0.46424E-06   116   0.174E-02    0.781E-04
SOL:  57  -0.17806E+01    0.00000E+00   -0.17806E+01    65
  FERMI_SHIFT =   1.357085580473566E-002
Total rVV10 correction in eV:      1.6372179    60.1481112
RMM:  15    -0.776993662585E+02   -0.17172E-04   -0.36044E-06   116   0.164E-02    0.346E-04
SOL:  58  -0.17805E+01    0.00000E+00   -0.17805E+01    61
  FERMI_SHIFT =   1.357215368876991E-002
Total rVV10 correction in eV:      1.6372159    60.1479166
RMM:  16    -0.776993762303E+02   -0.99718E-05   -0.33365E-06   116   0.159E-02
Total rVV10 correction in eV:      1.6372060    60.1474801
SOL:  59  -0.17805E+01    0.00000E+00   -0.17805E+01    61
  FERMI_SHIFT =   1.357085468504882E-002
Total rVV10 correction in eV:      1.6372129    60.1477292
   3 F= -.77699376E+02 E0= -.77699376E+02  d E =-.315958E-01  mag=    -0.0000
 curvature:  -0.14 expect dE=-0.654E-02 dE for cont linesearch -0.408E-06
 trial: gam= 0.23586 g(F)=  0.453E-01 g(S)=  0.000E+00 ort =-0.742E-03 (trialstep = 0.864E+00)
 search vector abs. value=  0.557E-01
 bond charge predicted
       N       E                     dE             d eps       ncg     rms          rms(c)
SOL:  60  -0.17834E+01    0.00000E+00   -0.17834E+01    92
  FERMI_SHIFT =   1.357138631308122E-002
Total rVV10 correction in eV:      1.6361548    60.1477867
DAV:   1    -0.776292495688E+02    0.70117E-01   -0.10114E+01   224   0.179E+01    0.856E-01
SOL:  61  -0.17854E+01    0.00000E+00   -0.17854E+01    87
  FERMI_SHIFT =   1.357140478954882E-002
Total rVV10 correction in eV:      1.6364422    60.1528828
RMM:   2    -0.777027765833E+02   -0.73527E-01   -0.39058E-01   176   0.314E+00    0.494E-01
SOL:  62  -0.17867E+01    0.00000E+00   -0.17867E+01    84
  FERMI_SHIFT =   1.357141613781976E-002
Total rVV10 correction in eV:      1.6364071    60.1527154
RMM:   3    -0.777007327810E+02    0.20438E-02   -0.83293E-03   178   0.455E-01    0.336E-01
SOL:  63  -0.17907E+01    0.00000E+00   -0.17907E+01    88
  FERMI_SHIFT =   1.357152748921120E-002
Total rVV10 correction in eV:      1.6362395    60.1488976
RMM:   4    -0.777028671364E+02   -0.21344E-02   -0.13428E-02   176   0.545E-01    0.118E-01
SOL:  64  -0.17918E+01    0.00000E+00   -0.17918E+01    80
  FERMI_SHIFT =   1.357147226153535E-002
Total rVV10 correction in eV:      1.6362837    60.1490679
RMM:   5    -0.777025403455E+02    0.32679E-03   -0.55166E-04   176   0.127E-01    0.678E-02
SOL:  65  -0.17935E+01    0.00000E+00   -0.17935E+01    82
  FERMI_SHIFT =   1.357145263672449E-002
Total rVV10 correction in eV:      1.6363211    60.1490634
RMM:   6    -0.777024554487E+02    0.84897E-04   -0.16801E-03   176   0.150E-01    0.297E-02
SOL:  66  -0.17941E+01    0.00000E+00   -0.17941E+01    79
  FERMI_SHIFT =   1.357155888692707E-002
Total rVV10 correction in eV:      1.6363027    60.1490524
RMM:   7    -0.777024667933E+02   -0.11345E-04   -0.13415E-04   172   0.614E-02    0.104E-02
SOL:  67  -0.17959E+01    0.00000E+00   -0.17959E+01    81
  FERMI_SHIFT =   1.357156326929107E-002
Total rVV10 correction in eV:      1.6363058    60.1490642
RMM:   8    -0.777025103315E+02   -0.43538E-04   -0.39029E-05   138   0.409E-02    0.330E-03
SOL:  68  -0.17963E+01    0.00000E+00   -0.17963E+01    72
  FERMI_SHIFT =   1.357144377639044E-002
Total rVV10 correction in eV:      1.6363056    60.1489869
RMM:   9    -0.777025561523E+02   -0.45821E-04   -0.22835E-05   122   0.352E-02    0.310E-03
SOL:  69  -0.17976E+01    0.00000E+00   -0.17976E+01    78
  FERMI_SHIFT =   1.357156751350627E-002
Total rVV10 correction in eV:      1.6363025    60.1487451
RMM:  10    -0.777026598108E+02   -0.10366E-03   -0.31296E-05   126   0.365E-02    0.242E-03
SOL:  70  -0.17984E+01    0.00000E+00   -0.17984E+01    76
  FERMI_SHIFT =   1.357143956579002E-002
Total rVV10 correction in eV:      1.6362988    60.1485628
RMM:  11    -0.777026967485E+02   -0.36938E-04   -0.24148E-05   124   0.338E-02    0.133E-03
SOL:  71  -0.17987E+01    0.00000E+00   -0.17987E+01    70
  FERMI_SHIFT =   1.357157174546622E-002
Total rVV10 correction in eV:      1.6362945    60.1482781
RMM:  12    -0.777027435505E+02   -0.46802E-04   -0.17405E-05   121   0.289E-02    0.187E-03
SOL:  72  -0.17989E+01    0.00000E+00   -0.17989E+01    69
  FERMI_SHIFT =   1.357143532805724E-002
Total rVV10 correction in eV:      1.6362922    60.1480677
RMM:  13    -0.777027733486E+02   -0.29798E-04   -0.10908E-05   120   0.237E-02    0.937E-04
SOL:  73  -0.17989E+01    0.00000E+00   -0.17989E+01    62
  FERMI_SHIFT =   1.357143532805888E-002
Total rVV10 correction in eV:      1.6362913    60.1479840
RMM:  14    -0.777027823424E+02   -0.89938E-05   -0.55441E-06   116   0.186E-02
Total rVV10 correction in eV:      1.6362811    60.1474800
SOL:  74  -0.17989E+01    0.00000E+00   -0.17989E+01    67
  FERMI_SHIFT =   1.357157597428982E-002
Total rVV10 correction in eV:      1.6362879    60.1477776
   4 F= -.77702782E+02 E0= -.77702782E+02  d E =-.340611E-02  mag=     0.0000
 trial-energy change:   -0.003406  1 .order   -0.002834   -0.038944    0.033276
 step:   0.4760(harm=  0.4659)  dis= 0.01132  next Energy=   -77.710201 (dE=-0.108E-01)
 bond charge predicted
       N       E                     dE             d eps       ncg     rms          rms(c)
SOL:  75  -0.17976E+01    0.00000E+00   -0.17976E+01    89
  FERMI_SHIFT =   1.357114945691770E-002
Total rVV10 correction in eV:      1.6367689    60.1477978
DAV:   1    -0.776996032386E+02    0.31701E-02   -0.20260E+00   188   0.799E+00    0.398E-01
SOL:  76  -0.17966E+01    0.00000E+00   -0.17966E+01    84
  FERMI_SHIFT =   0.000000000000000E+000
Total rVV10 correction in eV:      1.6367585    60.1499576
RMM:   2    -0.777104277612E+02   -0.10825E-01   -0.81272E-02   176   0.147E+00    0.221E-01
SOL:  77  -0.17961E+01    0.00000E+00   -0.17961E+01    81
  FERMI_SHIFT =   1.357114058176148E-002
Total rVV10 correction in eV:      1.6367669    60.1497724
RMM:   3    -0.777098949517E+02    0.53281E-03   -0.18460E-03   178   0.217E-01    0.150E-01
SOL:  78  -0.17944E+01    0.00000E+00   -0.17944E+01    85
  FERMI_SHIFT =   1.357182996134448E-002
Total rVV10 correction in eV:      1.6367428    60.1482564
RMM:   4    -0.777102362662E+02   -0.34131E-03   -0.34319E-03   176   0.267E-01    0.612E-02
SOL:  79  -0.17940E+01    0.00000E+00   -0.17940E+01    76
  FERMI_SHIFT =   1.357117278477096E-002
Total rVV10 correction in eV:      1.6367250    60.1483228
RMM:   5    -0.777101489513E+02    0.87315E-04   -0.13969E-04   170   0.670E-02    0.371E-02
SOL:  80  -0.17932E+01    0.00000E+00   -0.17932E+01    79
  FERMI_SHIFT =   1.357184671505207E-002
Total rVV10 correction in eV:      1.6367021    60.1482881
RMM:   6    -0.777101310476E+02    0.17904E-04   -0.49162E-04   172   0.826E-02    0.156E-02
SOL:  81  -0.17929E+01    0.00000E+00   -0.17929E+01    75
  FERMI_SHIFT =   1.357116083958762E-002
Total rVV10 correction in eV:      1.6367104    60.1482692
RMM:   7    -0.777101352820E+02   -0.42344E-05   -0.37436E-05   146   0.358E-02
Total rVV10 correction in eV:      1.6366950    60.1474798
SOL:  82  -0.17921E+01    0.00000E+00   -0.17921E+01    77
  FERMI_SHIFT =   1.357115829933045E-002
Total rVV10 correction in eV:      1.6367095    60.1482586
   5 F= -.77710135E+02 E0= -.77710135E+02  d E =-.107591E-01  mag=    -0.0000
 curvature:  -0.29 expect dE=-0.240E-02 dE for cont linesearch -0.194E-09
 trial: gam= 0.17665 g(F)=  0.832E-02 g(S)=  0.000E+00 ort =-0.613E-05 (trialstep = 0.786E+00)
 search vector abs. value=  0.101E-01
 bond charge predicted
       N       E                     dE             d eps       ncg     rms          rms(c)
SOL:  83  -0.17940E+01    0.00000E+00   -0.17940E+01    91
  FERMI_SHIFT =   1.357195356300048E-002
Total rVV10 correction in eV:      1.6364160    60.1482677
DAV:   1    -0.777074174518E+02    0.27136E-02   -0.16604E+00   224   0.716E+00    0.270E-01
SOL:  84  -0.17926E+01    0.00000E+00   -0.17926E+01    83
  FERMI_SHIFT =   1.357105484233589E-002
Total rVV10 correction in eV:      1.6364803    60.1499337
RMM:   2    -0.777130870513E+02   -0.56696E-02   -0.52483E-02   176   0.130E+00    0.130E-01
SOL:  85  -0.17913E+01    0.00000E+00   -0.17913E+01    80
  FERMI_SHIFT =   1.357195620506421E-002
Total rVV10 correction in eV:      1.6364656    60.1496578
RMM:   3    -0.777129969208E+02    0.90130E-04   -0.10715E-03   176   0.179E-01    0.838E-02
SOL:  86  -0.17890E+01    0.00000E+00   -0.17890E+01    83
  FERMI_SHIFT =   1.357105286241583E-002
Total rVV10 correction in eV:      1.6364310    60.1487057
RMM:   4    -0.777135586829E+02   -0.56176E-03   -0.86165E-04   176   0.169E-01    0.221E-02
SOL:  87  -0.17887E+01    0.00000E+00   -0.17887E+01    77
  FERMI_SHIFT =   1.357195455160670E-002
Total rVV10 correction in eV:      1.6364360    60.1486900
RMM:   5    -0.777135612399E+02   -0.25570E-05   -0.59798E-05   156   0.444E-02
Total rVV10 correction in eV:      1.6364166    60.1474800
SOL:  88  -0.17882E+01    0.00000E+00   -0.17882E+01    78
  FERMI_SHIFT =   1.357105286244323E-002
Total rVV10 correction in eV:      1.6364367    60.1486438
   6 F= -.77713561E+02 E0= -.77713561E+02  d E =-.342596E-02  mag=    -0.0000
 trial-energy change:   -0.003426  1 .order   -0.003449   -0.006543   -0.000356
 step:   0.8316(harm=  0.8316)  dis= 0.00578  next Energy=   -77.713595 (dE=-0.346E-02)
 bond charge predicted
       N       E                     dE             d eps       ncg     rms          rms(c)
SOL:  89  -0.17883E+01    0.00000E+00   -0.17883E+01    77
  FERMI_SHIFT =   1.357104775901039E-002
Total rVV10 correction in eV:      1.6364198    60.1486440
DAV:   1    -0.777135704957E+02   -0.11813E-04   -0.57088E-03   256   0.419E-01    0.170E-02
SOL:  90  -0.17879E+01    0.00000E+00   -0.17879E+01    74
  FERMI_SHIFT =   1.357104775920936E-002
Total rVV10 correction in eV:      1.6364199    60.1486747
RMM:   2    -0.777135939038E+02   -0.23408E-04   -0.19874E-04   176   0.854E-02    0.933E-03
SOL:  91  -0.17875E+01    0.00000E+00   -0.17875E+01    73
  FERMI_SHIFT =   1.357195978138220E-002
Total rVV10 correction in eV:      1.6364179    60.1486240
RMM:   3    -0.777136025058E+02   -0.86020E-05   -0.99745E-06   116   0.266E-02
Total rVV10 correction in eV:      1.6363958    60.1474800
SOL:  92  -0.17869E+01    0.00000E+00   -0.17869E+01    76
  FERMI_SHIFT =   1.357104890902652E-002
Total rVV10 correction in eV:      1.6364145    60.1484929
   7 F= -.77713603E+02 E0= -.77713603E+02  d E =-.346722E-02  mag=    -0.0000
 curvature:  -0.50 expect dE=-0.462E-02 dE for cont linesearch -0.774E-06
 trial: gam= 1.07627 g(F)=  0.918E-02 g(S)=  0.000E+00 ort = 0.124E-03 (trialstep = 0.379E+00)
 search vector abs. value=  0.211E-01
 bond charge predicted
       N       E                     dE             d eps       ncg     rms          rms(c)
SOL:  93  -0.17875E+01    0.00000E+00   -0.17875E+01    88
  FERMI_SHIFT =   1.357104887576960E-002
Total rVV10 correction in eV:      1.6362105    60.1484981
DAV:   1    -0.777121611512E+02    0.14328E-02   -0.10053E+00   224   0.569E+00    0.176E-01
SOL:  94  -0.17874E+01    0.00000E+00   -0.17874E+01    82
  FERMI_SHIFT =   1.357104892093630E-002
Total rVV10 correction in eV:      1.6362507    60.1495184
RMM:   2    -0.777158284630E+02   -0.36673E-02   -0.31367E-02   176   0.101E+00    0.871E-02
SOL:  95  -0.17873E+01    0.00000E+00   -0.17873E+01    79
  FERMI_SHIFT =   1.357195946914569E-002
Total rVV10 correction in eV:      1.6362412    60.1492399
RMM:   3    -0.777157334218E+02    0.95041E-04   -0.60386E-04   177   0.129E-01    0.614E-02
SOL:  96  -0.17874E+01    0.00000E+00   -0.17874E+01    82
  FERMI_SHIFT =   1.357105059648342E-002
Total rVV10 correction in eV:      1.6362177    60.1483127
RMM:   4    -0.777161304293E+02   -0.39701E-03   -0.44188E-04   176   0.129E-01    0.118E-02
SOL:  97  -0.17876E+01    0.00000E+00   -0.17876E+01    74
  FERMI_SHIFT =   1.357104981837681E-002
Total rVV10 correction in eV:      1.6362183    60.1482078
RMM:   5    -0.777161525579E+02   -0.22129E-04   -0.34690E-05   135   0.429E-02    0.662E-03
SOL:  98  -0.17879E+01    0.00000E+00   -0.17879E+01    76
  FERMI_SHIFT =   1.357104892088984E-002
Total rVV10 correction in eV:      1.6362191    60.1481173
RMM:   6    -0.777161686005E+02   -0.16043E-04   -0.30954E-05   132   0.389E-02    0.319E-03
SOL:  99  -0.17880E+01    0.00000E+00   -0.17880E+01    69
  FERMI_SHIFT =   1.357104892089162E-002
Total rVV10 correction in eV:      1.6362180    60.1480763
RMM:   7    -0.777161744736E+02   -0.58731E-05   -0.24269E-05   129   0.367E-02
Total rVV10 correction in eV:      1.6362033    60.1474802
SOL: 100  -0.17882E+01    0.00000E+00   -0.17882E+01    72
  FERMI_SHIFT =   1.357196150751289E-002
Total rVV10 correction in eV:      1.6362155    60.1479946
   8 F= -.77716174E+02 E0= -.77716174E+02  d E =-.257197E-02  mag=    -0.0000
 trial-energy change:   -0.002572  1 .order   -0.002501   -0.003532   -0.001469
 step:   0.5838(harm=  0.6492)  dis= 0.00623  next Energy=   -77.716582 (dE=-0.298E-02)
 bond charge predicted
       N       E                     dE             d eps       ncg     rms          rms(c)
SOL: 101  -0.17885E+01    0.00000E+00   -0.17885E+01    85
  FERMI_SHIFT =   1.357105174123266E-002
Total rVV10 correction in eV:      1.6361049    60.1479964
DAV:   1    -0.777155580236E+02    0.61058E-03   -0.29318E-01   224   0.307E+00    0.948E-02
SOL: 102  -0.17886E+01    0.00000E+00   -0.17886E+01    79
  FERMI_SHIFT =   1.357195850723947E-002
Total rVV10 correction in eV:      1.6361261    60.1485280
RMM:   2    -0.777165479341E+02   -0.98991E-03   -0.91920E-03   176   0.553E-01    0.468E-02
SOL: 103  -0.17886E+01    0.00000E+00   -0.17886E+01    76
  FERMI_SHIFT =   1.357195850737367E-002
Total rVV10 correction in eV:      1.6361213    60.1484014
RMM:   3    -0.777165287993E+02    0.19135E-04   -0.18280E-04   172   0.742E-02    0.330E-02
SOL: 104  -0.17890E+01    0.00000E+00   -0.17890E+01    79
  FERMI_SHIFT =   1.357195882251655E-002
Total rVV10 correction in eV:      1.6361088    60.1479590
RMM:   4    -0.777166825594E+02   -0.15376E-03   -0.14598E-04   170   0.774E-02    0.654E-03
SOL: 105  -0.17892E+01    0.00000E+00   -0.17892E+01    72
  FERMI_SHIFT =   1.357105133149566E-002
Total rVV10 correction in eV:      1.6361096    60.1479156
RMM:   5    -0.777166895333E+02   -0.69740E-05   -0.17059E-05   122   0.319E-02
Total rVV10 correction in eV:      1.6361013    60.1474802
SOL: 106  -0.17895E+01    0.00000E+00   -0.17895E+01    74
  FERMI_SHIFT =   1.357105091837113E-002
Total rVV10 correction in eV:      1.6361103    60.1478699
   9 F= -.77716690E+02 E0= -.77716690E+02  d E =-.308703E-02  mag=    -0.0000
 curvature:  -0.69 expect dE=-0.131E-02 dE for cont linesearch -0.325E-04
 ZBRENT: extrapolating
 opt :   0.6545  next Energy=   -77.716725 (dE=-0.312E-02)
 bond charge predicted
       N       E                     dE             d eps       ncg     rms          rms(c)
SOL: 107  -0.17896E+01    0.00000E+00   -0.17896E+01    80
  FERMI_SHIFT =   1.357105266015507E-002
Total rVV10 correction in eV:      1.6360720    60.1478702
DAV:   1    -0.777165907353E+02    0.91824E-04   -0.35132E-02   224   0.106E+00    0.325E-02
SOL: 108  -0.17897E+01    0.00000E+00   -0.17897E+01    74
  FERMI_SHIFT =   1.357105265981970E-002
Total rVV10 correction in eV:      1.6360777    60.1480227
RMM:   2    -0.777167023499E+02   -0.11161E-03   -0.11386E-03   176   0.198E-01    0.167E-02
SOL: 109  -0.17898E+01    0.00000E+00   -0.17898E+01    72
  FERMI_SHIFT =   1.357105265975206E-002
Total rVV10 correction in eV:      1.6360758    60.1479782
RMM:   3    -0.777167014210E+02    0.92895E-06   -0.29161E-05   133   0.362E-02
Total rVV10 correction in eV:      1.6360616    60.1474803
SOL: 110  -0.17901E+01    0.00000E+00   -0.17901E+01    75
  FERMI_SHIFT =   1.357105312709439E-002
Total rVV10 correction in eV:      1.6360708    60.1478167
  10 F= -.77716701E+02 E0= -.77716701E+02  d E =-.309892E-02  mag=     0.0000
 curvature:  -0.75 expect dE=-0.171E-02 dE for cont linesearch -0.192E-06
 trial: gam= 0.27755 g(F)=  0.228E-02 g(S)=  0.000E+00 ort =-0.736E-04 (trialstep = 0.434E+00)
 search vector abs. value=  0.386E-02
 bond charge predicted
       N       E                     dE             d eps       ncg     rms          rms(c)
SOL: 111  -0.17901E+01    0.00000E+00   -0.17901E+01    85
  FERMI_SHIFT =   1.357104721065189E-002
Total rVV10 correction in eV:      1.6360031    60.1478176
DAV:   1    -0.777163294606E+02    0.37289E-03   -0.21177E-01   176   0.260E+00    0.906E-02
SOL: 112  -0.17905E+01    0.00000E+00   -0.17905E+01    78
  FERMI_SHIFT =   1.357196030025826E-002
Total rVV10 correction in eV:      1.6360132    60.1482355
RMM:   2    -0.777171271869E+02   -0.79773E-03   -0.70292E-03   176   0.469E-01    0.485E-02
SOL: 113  -0.17907E+01    0.00000E+00   -0.17907E+01    74
  FERMI_SHIFT =   1.357196030045388E-002
Total rVV10 correction in eV:      1.6360070    60.1481291
RMM:   3    -0.777171169405E+02    0.10246E-04   -0.16398E-04   172   0.712E-02    0.330E-02
SOL: 114  -0.17911E+01    0.00000E+00   -0.17911E+01    78
  FERMI_SHIFT =   0.000000000000000E+000
Total rVV10 correction in eV:      1.6359923    60.1477842
RMM:   4    -0.777172603757E+02   -0.14344E-03   -0.15790E-04   170   0.831E-02    0.727E-03
SOL: 115  -0.17912E+01    0.00000E+00   -0.17912E+01    71
  FERMI_SHIFT =   0.000000000000000E+000
Total rVV10 correction in eV:      1.6359921    60.1477687
RMM:   5    -0.777172612416E+02   -0.86596E-06   -0.64154E-05   144   0.553E-02
Total rVV10 correction in eV:      1.6359846    60.1474803
SOL: 116  -0.17913E+01    0.00000E+00   -0.17913E+01    72
  FERMI_SHIFT =   1.357196041289346E-002
Total rVV10 correction in eV:      1.6359921    60.1477553
  11 F= -.77717261E+02 E0= -.77717261E+02  d E =-.559821E-03  mag=     0.0000
 trial-energy change:   -0.000560  1 .order   -0.000520   -0.000980   -0.000060
 step:   0.4563(harm=  0.4623)  dis= 0.00246  next Energy=   -77.717263 (dE=-0.561E-03)
 bond charge predicted
       N       E                     dE             d eps       ncg     rms          rms(c)
SOL: 117  -0.17913E+01    0.00000E+00   -0.17913E+01    71
  FERMI_SHIFT =   1.357196063750885E-002
Total rVV10 correction in eV:      1.6359886    60.1477553
DAV:   1    -0.777172646369E+02   -0.42612E-05   -0.61705E-04   224   0.146E-01    0.530E-03
SOL: 118  -0.17914E+01    0.00000E+00   -0.17914E+01    69
  FERMI_SHIFT =   1.357196063756064E-002
Total rVV10 correction in eV:      1.6359882    60.1477590
RMM:   2    -0.777172670215E+02   -0.23846E-05   -0.74806E-05   153   0.610E-02
Total rVV10 correction in eV:      1.6359784    60.1474803
SOL: 119  -0.17914E+01    0.00000E+00   -0.17914E+01    68
  FERMI_SHIFT =   1.357196063757093E-002
Total rVV10 correction in eV:      1.6359875    60.1477482
  12 F= -.77717267E+02 E0= -.77717267E+02  d E =-.565601E-03  mag=     0.0000
 curvature:  -0.38 expect dE=-0.413E-03 dE for cont linesearch -0.384E-07
 trial: gam= 0.47092 g(F)=  0.110E-02 g(S)=  0.000E+00 ort =-0.198E-04 (trialstep = 0.439E+00)
 search vector abs. value=  0.193E-02
 bond charge predicted
       N       E                     dE             d eps       ncg     rms          rms(c)
SOL: 120  -0.17917E+01    0.00000E+00   -0.17917E+01    83
  FERMI_SHIFT =   1.357194839408546E-002
Total rVV10 correction in eV:      1.6359486    60.1477488
DAV:   1    -0.777169417164E+02    0.32292E-03   -0.10749E-01   192   0.187E+00    0.725E-02
SOL: 121  -0.17917E+01    0.00000E+00   -0.17917E+01    78
  FERMI_SHIFT =   1.357105992152249E-002
Total rVV10 correction in eV:      1.6359619    60.1480565
RMM:   2    -0.777173673735E+02   -0.42566E-03   -0.39310E-03   176   0.350E-01    0.416E-02
SOL: 122  -0.17916E+01    0.00000E+00   -0.17916E+01    75
  FERMI_SHIFT =   1.357194768291703E-002
Total rVV10 correction in eV:      1.6359598    60.1479755
RMM:   3    -0.777173572898E+02    0.10084E-04   -0.12036E-04   171   0.551E-02    0.285E-02
SOL: 123  -0.17914E+01    0.00000E+00   -0.17914E+01    79
  FERMI_SHIFT =   1.357106208742093E-002
Total rVV10 correction in eV:      1.6359531    60.1477449
RMM:   4    -0.777174289014E+02   -0.71612E-04   -0.68430E-05   163   0.551E-02    0.635E-03
SOL: 124  -0.17914E+01    0.00000E+00   -0.17914E+01    73
  FERMI_SHIFT =   1.357194834996175E-002
Total rVV10 correction in eV:      1.6359530    60.1477215
RMM:   5    -0.777174326455E+02   -0.37441E-05   -0.16128E-05   122   0.318E-02
Total rVV10 correction in eV:      1.6359460    60.1474804
SOL: 125  -0.17915E+01    0.00000E+00   -0.17915E+01    73
  FERMI_SHIFT =   1.357106087326954E-002
Total rVV10 correction in eV:      1.6359530    60.1477205
  13 F= -.77717433E+02 E0= -.77717433E+02  d E =-.165624E-03  mag=     0.0000
 trial-energy change:   -0.000166  1 .order   -0.000159   -0.000477    0.000159
 step:   0.3292(harm=  0.3292)  dis= 0.00106  next Energy=   -77.717446 (dE=-0.179E-03)
 bond charge predicted
       N       E                     dE             d eps       ncg     rms          rms(c)
SOL: 126  -0.17914E+01    0.00000E+00   -0.17914E+01    76
  FERMI_SHIFT =   1.357105695868760E-002
Total rVV10 correction in eV:      1.6359627    60.1477205
DAV:   1    -0.777174273453E+02    0.15561E-05   -0.66900E-03   216   0.467E-01    0.182E-02
SOL: 127  -0.17914E+01    0.00000E+00   -0.17914E+01    72
  FERMI_SHIFT =   1.357105695873886E-002
Total rVV10 correction in eV:      1.6359631    60.1477702
RMM:   2    -0.777174512441E+02   -0.23899E-04   -0.24809E-04   176   0.932E-02    0.100E-02
SOL: 128  -0.17915E+01    0.00000E+00   -0.17915E+01    68
  FERMI_SHIFT =   1.357105695874228E-002
Total rVV10 correction in eV:      1.6359620    60.1477424
RMM:   3    -0.777174528577E+02   -0.16136E-05   -0.10439E-05   118   0.243E-02
Total rVV10 correction in eV:      1.6359532    60.1474804
SOL: 129  -0.17916E+01    0.00000E+00   -0.17916E+01    71
  FERMI_SHIFT =   1.357105766883990E-002
Total rVV10 correction in eV:      1.6359588    60.1476581
  14 F= -.77717453E+02 E0= -.77717453E+02  d E =-.185836E-03  mag=     0.0000
 curvature:  -0.29 expect dE=-0.215E-03 dE for cont linesearch -0.325E-07
 trial: gam= 0.68509 g(F)=  0.734E-03 g(S)=  0.000E+00 ort = 0.146E-04 (trialstep = 0.417E+00)
 search vector abs. value=  0.166E-02
 bond charge predicted
       N       E                     dE             d eps       ncg     rms          rms(c)
SOL: 130  -0.17919E+01    0.00000E+00   -0.17919E+01    82
  FERMI_SHIFT =   1.357106355605472E-002
Total rVV10 correction in eV:      1.6359310    60.1476591
DAV:   1    -0.777173065633E+02    0.14468E-03   -0.82721E-02   192   0.165E+00    0.594E-02
SOL: 131  -0.17918E+01    0.00000E+00   -0.17918E+01    76
  FERMI_SHIFT =   1.357105997296593E-002
Total rVV10 correction in eV:      1.6359432    60.1479536
RMM:   2    -0.777176267582E+02   -0.32019E-03   -0.27782E-03   176   0.305E-01    0.316E-02
SOL: 132  -0.17917E+01    0.00000E+00   -0.17917E+01    74
  FERMI_SHIFT =   1.357105997296099E-002
Total rVV10 correction in eV:      1.6359422    60.1478945
RMM:   3    -0.777176129237E+02    0.13835E-04   -0.74623E-05   163   0.495E-02    0.219E-02
SOL: 133  -0.17916E+01    0.00000E+00   -0.17916E+01    77
  FERMI_SHIFT =   1.357105893345439E-002
Total rVV10 correction in eV:      1.6359365    60.1476540
RMM:   4    -0.777176721193E+02   -0.59196E-04   -0.70944E-05   164   0.590E-02    0.487E-03
SOL: 134  -0.17916E+01    0.00000E+00   -0.17916E+01    69
  FERMI_SHIFT =   1.357194788090568E-002
Total rVV10 correction in eV:      1.6359361    60.1476326
RMM:   5    -0.777176735035E+02   -0.13842E-05   -0.34498E-05   137   0.427E-02
Total rVV10 correction in eV:      1.6359314    60.1474805
SOL: 135  -0.17916E+01    0.00000E+00   -0.17916E+01    70
  FERMI_SHIFT =   1.357111485686721E-002
Total rVV10 correction in eV:      1.6359357    60.1476229
  15 F= -.77717674E+02 E0= -.77717674E+02  d E =-.220646E-03  mag=     0.0000
 trial-energy change:   -0.000221  1 .order   -0.000208   -0.000310   -0.000106
 step:   0.6339(harm=  0.6339)  dis= 0.00175  next Energy=   -77.717689 (dE=-0.236E-03)
 bond charge predicted
       N       E                     dE             d eps       ncg     rms          rms(c)
SOL: 136  -0.17918E+01    0.00000E+00   -0.17918E+01    79
  FERMI_SHIFT =   1.357113047185543E-002
Total rVV10 correction in eV:      1.6359212    60.1476233
DAV:   1    -0.777176006399E+02    0.71479E-04   -0.22450E-02   224   0.862E-01    0.310E-02
SOL: 137  -0.17917E+01    0.00000E+00   -0.17917E+01    73
  FERMI_SHIFT =   1.357105107462558E-002
Total rVV10 correction in eV:      1.6359277    60.1477877
RMM:   2    -0.777176849493E+02   -0.84309E-04   -0.77932E-04   176   0.165E-01    0.168E-02
SOL: 138  -0.17917E+01    0.00000E+00   -0.17917E+01    71
  FERMI_SHIFT =   1.357195657432653E-002
Total rVV10 correction in eV:      1.6359272    60.1477645
RMM:   3    -0.777176816697E+02    0.32796E-05   -0.25905E-05   127   0.350E-02
Total rVV10 correction in eV:      1.6359202    60.1474806
SOL: 139  -0.17916E+01    0.00000E+00   -0.17916E+01    75
  FERMI_SHIFT =   1.357189907385614E-002
Total rVV10 correction in eV:      1.6359242    60.1476495
  16 F= -.77717682E+02 E0= -.77717682E+02  d E =-.228812E-03  mag=    -0.0000
 curvature:  -0.71 expect dE=-0.402E-03 dE for cont linesearch -0.147E-06
 trial: gam= 0.75508 g(F)=  0.567E-03 g(S)=  0.000E+00 ort =-0.185E-04 (trialstep = 0.460E+00)
 search vector abs. value=  0.149E-02
 bond charge predicted
       N       E                     dE             d eps       ncg     rms          rms(c)
SOL: 140  -0.17915E+01    0.00000E+00   -0.17915E+01    81
  FERMI_SHIFT =   1.357188531252923E-002
Total rVV10 correction in eV:      1.6359091    60.1476504
DAV:   1    -0.777174694101E+02    0.21554E-03   -0.81835E-02   192   0.163E+00    0.557E-02
SOL: 141  -0.17917E+01    0.00000E+00   -0.17917E+01    77
  FERMI_SHIFT =   1.357194068037310E-002
Total rVV10 correction in eV:      1.6359132    60.1479664
RMM:   2    -0.777177517359E+02   -0.28233E-03   -0.26228E-03   176   0.297E-01    0.316E-02
SOL: 142  -0.17919E+01    0.00000E+00   -0.17919E+01    74
  FERMI_SHIFT =   1.357111423277740E-002
Total rVV10 correction in eV:      1.6359099    60.1479228
RMM:   3    -0.777177458489E+02    0.58870E-05   -0.78836E-05   162   0.521E-02
Total rVV10 correction in eV:      1.6358919    60.1474807
SOL: 143  -0.17921E+01    0.00000E+00   -0.17921E+01    78
  FERMI_SHIFT =   1.357108338208562E-002
Total rVV10 correction in eV:      1.6359002    60.1477172
  17 F= -.77717746E+02 E0= -.77717746E+02  d E =-.641792E-04  mag=    -0.0000
 trial-energy change:   -0.000064  1 .order   -0.000094   -0.000255    0.000066
 step:   0.3652(harm=  0.3652)  dis= 0.00090  next Energy=   -77.717783 (dE=-0.101E-03)
 bond charge predicted
       N       E                     dE             d eps       ncg     rms          rms(c)
SOL: 144  -0.17921E+01    0.00000E+00   -0.17921E+01    74
  FERMI_SHIFT =   1.357108050031020E-002
Total rVV10 correction in eV:      1.6359033    60.1477172
DAV:   1    -0.777177872597E+02   -0.35524E-04   -0.38793E-03   192   0.366E-01    0.114E-02
SOL: 145  -0.17920E+01    0.00000E+00   -0.17920E+01    72
  FERMI_SHIFT =   1.357193223693295E-002
Total rVV10 correction in eV:      1.6359044    60.1477435
RMM:   2    -0.777178043494E+02   -0.17090E-04   -0.23543E-04   176   0.103E-01    0.724E-03
SOL: 146  -0.17920E+01    0.00000E+00   -0.17920E+01    68
  FERMI_SHIFT =   1.357193223695680E-002
Total rVV10 correction in eV:      1.6359041    60.1477307
RMM:   3    -0.777178005448E+02    0.38045E-05   -0.33286E-05   136   0.421E-02
Total rVV10 correction in eV:      1.6358993    60.1474807
SOL: 147  -0.17920E+01    0.00000E+00   -0.17920E+01    70
  FERMI_SHIFT =   1.357107625400597E-002
Total rVV10 correction in eV:      1.6359030    60.1476864
  18 F= -.77717801E+02 E0= -.77717801E+02  d E =-.118875E-03  mag=     0.0000
 curvature:  -0.49 expect dE=-0.914E-04 dE for cont linesearch -0.486E-06
 ZBRENT: interpolating
 opt :   0.3852  next Energy=   -77.717801 (dE=-0.119E-03)
 bond charge predicted
       N       E                     dE             d eps       ncg     rms          rms(c)
SOL: 148  -0.17920E+01    0.00000E+00   -0.17920E+01    67
  FERMI_SHIFT =   1.357107686619638E-002
Total rVV10 correction in eV:      1.6359024    60.1476864
DAV:   1    -0.777178100842E+02   -0.57348E-05   -0.22596E-04   192   0.949E-02    0.336E-03
SOL: 149  -0.17920E+01    0.00000E+00   -0.17920E+01    64
  FERMI_SHIFT =   1.357193241355908E-002
Total rVV10 correction in eV:      1.6359019    60.1476668
RMM:   2    -0.777178123548E+02   -0.22706E-05   -0.10006E-04   147   0.689E-02    0.142E-03
SOL: 150  -0.17920E+01    0.00000E+00   -0.17920E+01    62
  FERMI_SHIFT =   1.357107686622472E-002
Total rVV10 correction in eV:      1.6359017    60.1476578
RMM:   3    -0.777178089337E+02    0.34211E-05   -0.29431E-05   133   0.391E-02
Total rVV10 correction in eV:      1.6358977    60.1474807
SOL: 151  -0.17920E+01    0.00000E+00   -0.17920E+01    62
  FERMI_SHIFT =   1.357107686622538E-002
Total rVV10 correction in eV:      1.6359015    60.1476497
  19 F= -.77717809E+02 E0= -.77717809E+02  d E =-.127264E-03  mag=    -0.0000
 curvature:  -0.39 expect dE=-0.796E-04 dE for cont linesearch -0.816E-09
 trial: gam= 0.37243 g(F)=  0.206E-03 g(S)=  0.000E+00 ort =-0.177E-05 (trialstep = 0.445E+00)
 search vector abs. value=  0.410E-03
 bond charge predicted
       N       E                     dE             d eps       ncg     rms          rms(c)
SOL: 152  -0.17920E+01    0.00000E+00   -0.17920E+01    78
  FERMI_SHIFT =   1.357107092704732E-002
Total rVV10 correction in eV:      1.6358966    60.1476502
DAV:   1    -0.777177631605E+02    0.49194E-04   -0.27320E-02   184   0.939E-01    0.285E-02
SOL: 153  -0.17919E+01    0.00000E+00   -0.17919E+01    72
  FERMI_SHIFT =   1.357107092807242E-002
Total rVV10 correction in eV:      1.6359010    60.1478124
RMM:   2    -0.777178684861E+02   -0.10533E-03   -0.86028E-04   176   0.170E-01    0.149E-02
SOL: 154  -0.17919E+01    0.00000E+00   -0.17919E+01    69
  FERMI_SHIFT =   1.357107092826942E-002
Total rVV10 correction in eV:      1.6359003    60.1477843
RMM:   3    -0.777178656842E+02    0.28019E-05   -0.14594E-05   116   0.275E-02
Total rVV10 correction in eV:      1.6358920    60.1474808
SOL: 155  -0.17917E+01    0.00000E+00   -0.17917E+01    73
  FERMI_SHIFT =   1.357193835769499E-002
Total rVV10 correction in eV:      1.6358962    60.1476440
  20 F= -.77717866E+02 E0= -.77717866E+02  d E =-.567505E-04  mag=    -0.0000
 trial-energy change:   -0.000057  1 .order   -0.000075   -0.000091   -0.000058
 step:   1.2325(harm=  1.2325)  dis= 0.00174  next Energy=   -77.717935 (dE=-0.126E-03)
 bond charge predicted
       N       E                     dE             d eps       ncg     rms          rms(c)
SOL: 156  -0.17917E+01    0.00000E+00   -0.17917E+01    80
  FERMI_SHIFT =   1.357194826448022E-002
Total rVV10 correction in eV:      1.6358875    60.1476454
DAV:   1    -0.777175683870E+02    0.30010E-03   -0.84564E-02   184   0.165E+00    0.506E-02
SOL: 157  -0.17916E+01    0.00000E+00   -0.17916E+01    75
  FERMI_SHIFT =   1.357194826272992E-002
Total rVV10 correction in eV:      1.6358957    60.1479628
RMM:   2    -0.777178985071E+02   -0.33012E-03   -0.26053E-03   176   0.293E-01    0.255E-02
SOL: 158  -0.17914E+01    0.00000E+00   -0.17914E+01    72
  FERMI_SHIFT =   1.357194826239555E-002
Total rVV10 correction in eV:      1.6358944    60.1479212
RMM:   3    -0.777178944511E+02    0.40560E-05   -0.47266E-05   146   0.423E-02
Total rVV10 correction in eV:      1.6358817    60.1474809
SOL: 159  -0.17910E+01    0.00000E+00   -0.17910E+01    76
  FERMI_SHIFT =   1.357105869201033E-002
Total rVV10 correction in eV:      1.6358876    60.1477001
  21 F= -.77717894E+02 E0= -.77717894E+02  d E =-.855174E-04  mag=    -0.0000
 curvature:  -1.23 expect dE=-0.205E-03 dE for cont linesearch -0.513E-09
 trial: gam= 0.76010 g(F)=  0.166E-03 g(S)=  0.000E+00 ort = 0.413E-06 (trialstep = 0.603E+00)
 search vector abs. value=  0.404E-03
 bond charge predicted
       N       E                     dE             d eps       ncg     rms          rms(c)
SOL: 160  -0.17911E+01    0.00000E+00   -0.17911E+01    79
  FERMI_SHIFT =   1.357196141342365E-002
Total rVV10 correction in eV:      1.6358767    60.1477007
DAV:   1    -0.777177452364E+02    0.15327E-03   -0.50125E-02   184   0.127E+00    0.441E-02
SOL: 161  -0.17910E+01    0.00000E+00   -0.17910E+01    73
  FERMI_SHIFT =   1.357104643913215E-002
Total rVV10 correction in eV:      1.6358835    60.1479311
RMM:   2    -0.777179724650E+02   -0.22723E-03   -0.16589E-03   176   0.229E-01    0.217E-02
SOL: 162  -0.17910E+01    0.00000E+00   -0.17910E+01    71
  FERMI_SHIFT =   1.357105004898068E-002
Total rVV10 correction in eV:      1.6358814    60.1478788
RMM:   3    -0.777179688231E+02    0.36419E-05   -0.32265E-05   134   0.366E-02
Total rVV10 correction in eV:      1.6358688    60.1474810
SOL: 163  -0.17908E+01    0.00000E+00   -0.17908E+01    75
  FERMI_SHIFT =   1.357106639350567E-002
Total rVV10 correction in eV:      1.6358746    60.1476865
  22 F= -.77717969E+02 E0= -.77717969E+02  d E =-.743720E-04  mag=    -0.0000
 trial-energy change:   -0.000074  1 .order   -0.000049   -0.000100    0.000002
 step:   0.5898(harm=  0.5898)  dis= 0.00058  next Energy=   -77.717943 (dE=-0.490E-04)
 reached required accuracy - stopping structural energy minimisation
 writing wavefunctions
SOL: 164  -0.17908E+01    0.00000E+00   -0.17908E+01     0
  FERMI_SHIFT =   1.357106639350394E-002
TACC:  Shutdown complete. Exiting. 
Job finished on c497-121.stampede2.tacc.utexas.edu at Fri May 21 06:44:42 CDT 2021
/tmp/slurmd/job7740859/slurm_script: line 17: /home1/07906/yc116: Is a directory
