 vasp.5.4.4.18Apr17-6-g9f103f2a35 (build May 01 2020 14:57:12) complex          
  
 executed on             LinuxIFC date 2021.05.21  02:00:08
 running on   48 total cores
 distrk:  each k-point on   48 cores,    1 groups
 distr:  one band on NCORES_PER_BAND=  12 cores,    4 groups


--------------------------------------------------------------------------------------------------------


 INCAR:
 POTCAR:    PAW_PBE C 08Apr2002                   
 POTCAR:    PAW_PBE F 08Apr2002                   
 POTCAR:    PAW_PBE O 08Apr2002                   

 ----------------------------------------------------------------------------- 
|                                                                             |
|  ADVICE TO THIS USER RUNNING 'VASP/VAMP'   (HEAR YOUR MASTER'S VOICE ...):  |
|                                                                             |
|      You have switched on vdW-DFT.                                          |
|      This routine was written and supplied by Jiri Klimes.                  |
|      We recommed that you carefully read and cite the following             |
|      publication                                                            |
|      J. Klimes, D.R. Bowler, A. Michelides                                  |
|        J. Phys.: Cond Matt. 22 022201 (2010)                                |
|      J. Klimes, D.R. Bowler, A. Michelides                                  |
|        Phys. Rev. B. 83, 195131 (2011)                                      |
|      and references therein.                                                |
|                                                                             |
 ----------------------------------------------------------------------------- 

 POTCAR:    PAW_PBE C 08Apr2002                   
   VRHFIN =C: s2p2                                                              
   LEXCH  = PE                                                                  
   EATOM  =   147.1560 eV,   10.8157 Ry                                         
                                                                                
   TITEL  = PAW_PBE C 08Apr2002                                                 
   LULTRA =        F    use ultrasoft PP ?                                      
   IUNSCR =        1    unscreen: 0-lin 1-nonlin 2-no                           
   RPACOR =    1.200    partial core radius                                     
   POMASS =   12.011; ZVAL   =    4.000    mass and valenz                      
   RCORE  =    1.500    outmost cutoff radius                                   
   RWIGS  =    1.630; RWIGS  =    0.863    wigner-seitz radius (au A)           
   ENMAX  =  400.000; ENMIN  =  300.000 eV                                      
   ICORE  =        2    local potential                                         
   LCOR   =        T    correct aug charges                                     
   LPAW   =        T    paw PP                                                  
   EAUG   =  644.873                                                            
   DEXC   =    0.000                                                            
   RMAX   =    1.529    core radius for proj-oper                               
   RAUG   =    1.300    factor for augmentation sphere                          
   RDEP   =    1.501    radius for radial grids                                 
   RDEPT  =    1.300    core radius for aug-charge                              
                                                                                
   Atomic configuration                                                         
    4 entries                                                                   
     n  l   j            E        occ.                                          
     1  0  0.50      -273.3789   2.0000                                         
     2  0  0.50       -13.7508   2.0000                                         
     2  1  0.50        -5.2854   2.0000                                         
     3  2  1.50        -5.4423   0.0000                                         
   Description                                                                  
     l       E           TYP  RCUT    TYP  RCUT                                 
     0    -13.7508458     23  1.200                                             
     0     -8.2022199     23  1.200                                             
     1     -5.2854383     23  1.500                                             
     1     34.0145650     23  1.500                                             
     2     -5.4423304      7  1.500                                             
  local pseudopotential read in
  partial core-charges read in
  partial kinetic energy density read in
  atomic valenz-charges read in
  non local Contribution for L=           0  read in
    real space projection operators read in
  non local Contribution for L=           0  read in
    real space projection operators read in
  non local Contribution for L=           1  read in
    real space projection operators read in
  non local Contribution for L=           1  read in
    real space projection operators read in
    PAW grid and wavefunctions read in
 
   number of l-projection  operators is LMAX  =           4
   number of lm-projection operators is LMMAX =           8
 
 POTCAR:    PAW_PBE F 08Apr2002                   
   VRHFIN =F: s2p5                                                              
   LEXCH  = PE                                                                  
   EATOM  =   659.6475 eV,   48.4827 Ry                                         
                                                                                
   TITEL  = PAW_PBE F 08Apr2002                                                 
   LULTRA =        F    use ultrasoft PP ?                                      
   IUNSCR =        1    unscreen: 0-lin 1-nonlin 2-no                           
   RPACOR =    1.200    partial core radius                                     
   POMASS =   18.998; ZVAL   =    7.000    mass and valenz                      
   RCORE  =    1.520    outmost cutoff radius                                   
   RWIGS  =    1.500; RWIGS  =    0.794    wigner-seitz radius (au A)           
   ENMAX  =  400.000; ENMIN  =  300.000 eV                                      
   ICORE  =        2    local potential                                         
   LCOR   =        T    correct aug charges                                     
   LPAW   =        T    paw PP                                                  
   EAUG   =  613.614                                                            
   RMAX   =    1.555    core radius for proj-oper                               
   RAUG   =    1.300    factor for augmentation sphere                          
   RDEP   =    1.539    radius for radial grids                                 
   RDEPT  =    1.299    core radius for aug-charge                              
                                                                                
   Atomic configuration                                                         
    4 entries                                                                   
     n  l   j            E        occ.                                          
     1  0  0.50      -663.3661   2.0000                                         
     2  0  0.50       -29.8995   2.0000                                         
     2  1  0.50       -11.1114   5.0000                                         
     3  2  1.50       -10.8847   0.0000                                         
   Description                                                                  
     l       E           TYP  RCUT    TYP  RCUT                                 
     0    -29.8995018     23  1.200                                             
     0     -9.5240782     23  1.200                                             
     1    -11.1113914     23  1.520                                             
     1      1.3605826     23  1.520                                             
     2    -10.8846608      7  1.500                                             
  local pseudopotential read in
  partial core-charges read in
  partial kinetic energy density read in
  atomic valenz-charges read in
  non local Contribution for L=           0  read in
    real space projection operators read in
  non local Contribution for L=           0  read in
    real space projection operators read in
  non local Contribution for L=           1  read in
    real space projection operators read in
  non local Contribution for L=           1  read in
    real space projection operators read in
    PAW grid and wavefunctions read in
 
   number of l-projection  operators is LMAX  =           4
   number of lm-projection operators is LMMAX =           8
 
 POTCAR:    PAW_PBE O 08Apr2002                   
   VRHFIN =O: s2p4                                                              
   LEXCH  = PE                                                                  
   EATOM  =   432.3788 eV,   31.7789 Ry                                         
                                                                                
   TITEL  = PAW_PBE O 08Apr2002                                                 
   LULTRA =        F    use ultrasoft PP ?                                      
   IUNSCR =        1    unscreen: 0-lin 1-nonlin 2-no                           
   RPACOR =    1.200    partial core radius                                     
   POMASS =   16.000; ZVAL   =    6.000    mass and valenz                      
   RCORE  =    1.520    outmost cutoff radius                                   
   RWIGS  =    1.550; RWIGS  =    0.820    wigner-seitz radius (au A)           
   ENMAX  =  400.000; ENMIN  =  300.000 eV                                      
   ICORE  =        2    local potential                                         
   LCOR   =        T    correct aug charges                                     
   LPAW   =        T    paw PP                                                  
   EAUG   =  605.392                                                            
   DEXC   =    0.000                                                            
   RMAX   =    1.553    core radius for proj-oper                               
   RAUG   =    1.300    factor for augmentation sphere                          
   RDEP   =    1.550    radius for radial grids                                 
   RDEPT  =    1.329    core radius for aug-charge                              
                                                                                
   Atomic configuration                                                         
    4 entries                                                                   
     n  l   j            E        occ.                                          
     1  0  0.50      -514.6923   2.0000                                         
     2  0  0.50       -23.9615   2.0000                                         
     2  1  0.50        -9.0305   4.0000                                         
     3  2  1.50        -9.5241   0.0000                                         
   Description                                                                  
     l       E           TYP  RCUT    TYP  RCUT                                 
     0    -23.9615318     23  1.200                                             
     0     -9.5240782     23  1.200                                             
     1     -9.0304911     23  1.520                                             
     1      8.1634956     23  1.520                                             
     2     -9.5240782      7  1.500                                             
  local pseudopotential read in
  partial core-charges read in
  partial kinetic energy density read in
  kinetic energy density of atom read in
  atomic valenz-charges read in
  non local Contribution for L=           0  read in
    real space projection operators read in
  non local Contribution for L=           0  read in
    real space projection operators read in
  non local Contribution for L=           1  read in
    real space projection operators read in
  non local Contribution for L=           1  read in
    real space projection operators read in
    PAW grid and wavefunctions read in
 
   number of l-projection  operators is LMAX  =           4
   number of lm-projection operators is LMMAX =           8
 
 Optimization of the real space projectors (new method)

 maximal supplied QI-value         = 25.13
 optimisation between [QCUT,QGAM] = [ 11.81, 23.88] = [ 39.08,159.64] Ry 
 Optimized for a Real-space Cutoff    1.18 Angstroem

   l    n(q)    QCUT    max X(q) W(low)/X(q) W(high)/X(q)  e(spline) 
   0      8    11.813   115.676    0.10E-03    0.16E-03    0.35E-06
   0      8    11.813    87.132    0.10E-03    0.16E-03    0.35E-06
   1      8    11.813     4.429    0.16E-03    0.13E-04    0.22E-06
   1      8    11.813     2.733    0.13E-03    0.10E-04    0.18E-06
 Optimization of the real space projectors (new method)

 maximal supplied QI-value         = 24.76
 optimisation between [QCUT,QGAM] = [ 11.88, 24.01] = [ 39.54,161.47] Ry 
 Optimized for a Real-space Cutoff    1.18 Angstroem

   l    n(q)    QCUT    max X(q) W(low)/X(q) W(high)/X(q)  e(spline) 
   0      8    11.883    14.049    0.56E-04    0.86E-04    0.22E-06
   0      8    11.883     8.945    0.81E-04    0.11E-03    0.30E-06
   1      8    11.883     7.086    0.16E-03    0.15E-04    0.31E-06
   1      8    11.883     6.747    0.15E-03    0.14E-04    0.28E-06
 Optimization of the real space projectors (new method)

 maximal supplied QI-value         = 24.76
 optimisation between [QCUT,QGAM] = [ 11.88, 24.01] = [ 39.54,161.47] Ry 
 Optimized for a Real-space Cutoff    1.18 Angstroem

   l    n(q)    QCUT    max X(q) W(low)/X(q) W(high)/X(q)  e(spline) 
   0      8    11.883    20.381    0.86E-04    0.11E-03    0.31E-06
   0      8    11.883    15.268    0.94E-04    0.12E-03    0.33E-06
   1      8    11.883     5.964    0.19E-03    0.18E-04    0.33E-06
   1      8    11.883     5.382    0.17E-03    0.20E-04    0.29E-06
  PAW_PBE C 08Apr2002                   :
 energy of atom  1       EATOM= -147.1560
 kinetic energy error for atom=    0.0066 (will be added to EATOM!!)
  PAW_PBE F 08Apr2002                   :
 energy of atom  2       EATOM= -659.6475
 kinetic energy error for atom=    0.0296 (will be added to EATOM!!)
  PAW_PBE O 08Apr2002                   :
 energy of atom  3       EATOM= -432.3788
 kinetic energy error for atom=    0.0194 (will be added to EATOM!!)
 
 
 POSCAR: C F O                                   
  positions in direct lattice
  velocities in cartesian coordinates

 METAGGA = SCAN     LMAXTAU =  6    LMIXTAU =  F

 exchange correlation table for  LEXCH =        8
   RHO(1)=    0.500       N(1)  =     2000
   RHO(2)=  100.500       N(2)  =     4000
 


--------------------------------------------------------------------------------------------------------


 ion  position               nearest neighbor table
   1  0.516  0.542  0.511-   6 1.36   4 1.36   5 1.36   2 1.55
   2  0.486  0.489  0.489-   8 1.39   7 1.39   1 1.55   3 1.59
   3  0.520  0.433  0.502-   9 1.26  10 1.26   2 1.59
   4  0.569  0.548  0.486-   1 1.36
   5  0.485  0.588  0.500-   1 1.36
   6  0.524  0.540  0.569-   1 1.36
   7  0.431  0.488  0.514-   2 1.39
   8  0.477  0.496  0.431-   2 1.39
   9  0.554  0.419  0.464-   3 1.26
  10  0.508  0.412  0.550-   3 1.26
 
  LATTYP: Found a simple orthorhombic cell.
 ALAT       =    23.1653536600
 B/A-ratio  =     1.0012596803
 C/A-ratio  =     1.0457418162
  
  Lattice vectors:
  
 A1 = ( -23.1653536600,   0.0000000000,   0.0000000000)
 A2 = (   0.0000000000,   0.0000000000, -23.1945346000)
 A3 = (   0.0000000000, -24.2249790100,   0.0000000000)


Analysis of symmetry for initial positions (statically):
=====================================================================
 Subroutine PRICEL returns:
 Original cell was already a primitive cell.
 

 Routine SETGRP: Setting up the symmetry group for a 
 simple orthorhombic supercell.


 Subroutine GETGRP returns: Found  1 space group operations
 (whereof  1 operations were pure point group operations)
 out of a pool of  8 trial point group operations.


The static configuration has the point symmetry C_1 .


Analysis of symmetry for dynamics (positions and initial velocities):
=====================================================================
 Subroutine PRICEL returns:
 Original cell was already a primitive cell.
 

 Routine SETGRP: Setting up the symmetry group for a 
 simple orthorhombic supercell.


 Subroutine GETGRP returns: Found  1 space group operations
 (whereof  1 operations were pure point group operations)
 out of a pool of  8 trial point group operations.


The dynamic configuration has the point symmetry C_1 .


Analysis of constrained symmetry for selective dynamics:
=====================================================================
 Subroutine PRICEL returns:
 Original cell was already a primitive cell.
 

 Routine SETGRP: Setting up the symmetry group for a 
 simple orthorhombic supercell.


 Subroutine GETGRP returns: Found  1 space group operations
 (whereof  1 operations were pure point group operations)
 out of a pool of  8 trial point group operations.


The constrained configuration has the point symmetry C_1 .


Analysis of structural, dynamic, and magnetic symmetry:
=====================================================================
 Subroutine PRICEL returns:
 Original cell was already a primitive cell.
 

 Routine SETGRP: Setting up the symmetry group for a 
 simple orthorhombic supercell.


 Subroutine GETGRP returns: Found  1 space group operations
 (whereof  1 operations were pure point group operations)
 out of a pool of  8 trial point group operations.


The magnetic configuration has the point symmetry C_1 .


 Subroutine INISYM returns: Found  1 space group operations
 (whereof  1 operations are pure point group operations),
 and found     1 'primitive' translations

 
 
 KPOINTS: K-Point Grid                            

Automatic generation of k-mesh.
Space group operators:
 irot       det(A)        alpha          n_x          n_y          n_z        tau_x        tau_y        tau_z
    1     1.000000     0.000000     1.000000     0.000000     0.000000     0.000000     0.000000     0.000000
 
 Subroutine IBZKPT returns following result:
 ===========================================
 
 Found      1 irreducible k-points:
 
 Following reciprocal coordinates:
            Coordinates               Weight
  0.000000  0.000000  0.000000      1.000000
 
 Following cartesian coordinates:
            Coordinates               Weight
  0.000000  0.000000  0.000000      1.000000
 


--------------------------------------------------------------------------------------------------------




 Dimension of arrays:
   k-points           NKPTS =      1   k-points in BZ     NKDIM =      1   number of bands    NBANDS=     44
   number of dos      NEDOS =   1200   number of ions     NIONS =     10
   non local maximal  LDIM  =      4   non local SUM 2l+1 LMDIM =      8
   total plane-waves  NPLWV = ******
   max r-space proj   IRMAX =   3316   max aug-charges    IRDMAX=   6399
   dimension x,y,z NGX =   180 NGY =  192 NGZ =  180
   dimension x,y,z NGXF=   360 NGYF=  384 NGZF=  360
   support grid    NGXF=   360 NGYF=  384 NGZF=  360
   ions per type =               3   5   2
   NGX,Y,Z   is equivalent  to a cutoff of  12.92, 13.18, 12.90 a.u.
   NGXF,Y,Z  is equivalent  to a cutoff of  25.84, 26.35, 25.80 a.u.

 SYSTEM =  SiC                                     
 POSCAR =  C F O                                   

 Startparameter for this run:
   NWRITE =      2    write-flag & timer
   PREC   = accura    normal or accurate (medium, high low for compatibility)
   ISTART =      1    job   : 0-new  1-cont  2-samecut
   ICHARG =      0    charge: 1-file 2-atom 10-const
   ISPIN  =      2    spin polarized calculation?
   LNONCOLLINEAR =      F non collinear calculations
   LSORBIT =      F    spin-orbit coupling
   INIWAV =      1    electr: 0-lowe 1-rand  2-diag
   LASPH  =      T    aspherical Exc in radial PAW
   METAGGA=      F    non-selfconsistent MetaGGA calc.

 Electronic Relaxation 1
   ENCUT  =  550.0 eV  40.42 Ry    6.36 a.u.  44.30 46.32 44.35*2*pi/ulx,y,z
   ENINI  =  550.0     initial cutoff
   ENAUG  =  644.9 eV  augmentation charge cutoff
   NELM   =    100;   NELMIN=  2; NELMDL=  0     # of ELM steps 
   EDIFF  = 0.1E-04   stopping-criterion for ELM
   LREAL  =      T    real-space projection
   NLSPLINE    = F    spline interpolate recip. space projectors
   LCOMPAT=      F    compatible to vasp.4.4
   GGA_COMPAT  = T    GGA compatible to vasp.4.4-vasp.4.6
   LMAXPAW     = -100 max onsite density
   LMAXMIX     =    2 max onsite mixed and CHGCAR
   VOSKOWN=      0    Vosko Wilk Nusair interpolation
   ROPT   =   -0.00025  -0.00025  -0.00025
 Ionic relaxation
   EDIFFG = -.2E-01   stopping-criterion for IOM
   NSW    =    500    number of steps for IOM
   NBLOCK =      1;   KBLOCK =    500    inner block; outer block 
   IBRION =      2    ionic relax: 0-MD 1-quasi-New 2-CG
   NFREE  =      1    steps in history (QN), initial steepest desc. (CG)
   ISIF   =      2    stress and relaxation
   IWAVPR =     11    prediction:  0-non 1-charg 2-wave 3-comb
   ISYM   =      2    0-nonsym 1-usesym 2-fastsym
   LCORR  =      T    Harris-Foulkes like correction to forces

   POTIM  = 0.5000    time-step for ionic-motion
   TEIN   =    0.0    initial temperature
   TEBEG  =    0.0;   TEEND  =   0.0 temperature during run
   SMASS  =  -3.00    Nose mass-parameter (am)
   estimated Nose-frequenzy (Omega)   =  0.10E-29 period in steps =****** mass=  -0.123E-25a.u.
   SCALEE = 1.0000    scale energy and forces
   NPACO  =    256;   APACO  = 16.0  distance and # of slots for P.C.
   PSTRESS=    0.0 pullay stress

  Mass of Ions in am
   POMASS =  12.01 19.00 16.00
  Ionic Valenz
   ZVAL   =   4.00  7.00  6.00
  Atomic Wigner-Seitz radii
   RWIGS  =  -1.00 -1.00 -1.00
  virtual crystal weights 
   VCA    =   1.00  1.00  1.00
   NELECT =      60.0000    total number of electrons
   NUPDOWN=      -1.0000    fix difference up-down

 DOS related values:
   EMIN   =  10.00;   EMAX   =-10.00  energy-range for DOS
   EFERMI =   0.00
   ISMEAR =     0;   SIGMA  =   0.05  broadening in eV -4-tet -1-fermi 0-gaus

 Electronic relaxation 2 (details)
   IALGO  =     68    algorithm
   LDIAG  =      T    sub-space diagonalisation (order eigenvalues)
   LSUBROT=      F    optimize rotation matrix (better conditioning)
   TURBO    =      0    0=normal 1=particle mesh
   IRESTART =      0    0=no restart 2=restart with 2 vectors
   NREBOOT  =      0    no. of reboots
   NMIN     =      0    reboot dimension
   EREF     =   0.00    reference energy to select bands
   IMIX   =      4    mixing-type and parameters
     AMIX     =   0.40;   BMIX     =  1.00
     AMIX_MAG =   1.60;   BMIX_MAG =  1.00
     AMIN     =   0.10
     WC   =   100.;   INIMIX=   1;  MIXPRE=   1;  MAXMIX= -45

 Intra band minimization:
   WEIMIN = 0.0010     energy-eigenvalue tresh-hold
   EBREAK =  0.57E-07  absolut break condition
   DEPER  =   0.30     relativ break condition  

   TIME   =   0.40     timestep for ELM

  volume/ion in A,a.u.               =    1301.63      8783.84
  Fermi-wavevector in a.u.,A,eV,Ry     =   0.272456  0.514867  1.009989  0.074232
  Thomas-Fermi vector in A             =   1.113017
 
 Write flags
   LWAVE        =      T    write WAVECAR
   LDOWNSAMPLE  =      F    k-point downsampling of WAVECAR
   LCHARG       =      F    write CHGCAR
   LVTOT        =      F    write LOCPOT, total local potential
   LVHAR        =      T    write LOCPOT, Hartree potential only
   LELF         =      F    write electronic localiz. function (ELF)
   LORBIT       =     11    0 simple, 1 ext, 2 COOP (PROOUT), +10 PAW based schemes


 Dipole corrections
   LMONO  =      F    monopole corrections only (constant potential shift)
   LDIPOL =      F    correct potential (dipole corrections)
   IDIPOL =      0    1-x, 2-y, 3-z, 4-all directions 
   EPSILON=  1.0000000 bulk dielectric constant

 Exchange correlation treatment:
   GGA     =    --    GGA type
   LEXCH   =     8    internal setting for exchange type
   VOSKOWN=      0    Vosko Wilk Nusair interpolation
   LHFCALC =     F    Hartree Fock is set to
   LHFONE  =     F    Hartree Fock one center treatment
   AEXX    =    0.0000 exact exchange contribution

 vdW DFT:
   LUSE_VDW   =     T    switch on vdW DFT
   Zab_VDW    =-.8491    correlation parameter
   PARAM1     =0.1234
   PARAM2     =1.0000
   PARAM3     =0.0000
   -- rVV10 --
   BPARAM     =15.7000
   CPARAM     = 0.0093

 Linear response parameters
   LEPSILON=     F    determine dielectric tensor
   LRPA    =     F    only Hartree local field effects (RPA)
   LNABLA  =     F    use nabla operator in PAW spheres
   LVEL    =     F    velocity operator in full k-point grid
   LINTERFAST=   F  fast interpolation
   KINTER  =     0    interpolate to denser k-point grid
   CSHIFT  =0.1000    complex shift for real part using Kramers Kronig
   OMEGAMAX=  -1.0    maximum frequency
   DEG_THRESHOLD= 0.2000000E-02 threshold for treating states as degnerate
   RTIME   =   -0.100 relaxation time in fs
  (WPLASMAI=    0.000 imaginary part of plasma frequency in eV, 0.658/RTIME)
   DFIELD  = 0.0000000 0.0000000 0.0000000 field for delta impulse in time
 
 Orbital magnetization related:
   ORBITALMAG=     F  switch on orbital magnetization
   LCHIMAG   =     F  perturbation theory with respect to B field
   DQ        =  0.001000  dq finite difference perturbation B field
   LLRAUG    =     F  two centre corrections for induced B field

 Solvation model:
   LSOL    =     T         switch on solvation model
   EB_K    = 78.400000     relative permittivity of the bulk solvent
   SIGMA_K =  0.600000     width of the dielectric cavity
   NC_K    =  0.002500     cutoff charge density
   TAU     =  0.000000     cavity surface tension
   LAMBDA_D_K    =  3.040000     Debye length in Angstroms
   LRHOB     =     F     write boundcharge  density
   LRHOION     =     F     write ioniccharge density



--------------------------------------------------------------------------------------------------------


 conjugate gradient relaxation of ions
   using selective dynamics as specified on POSCAR
 charge density and potential will be updated during run
 spin polarized calculation
 RMM-DIIS sequential band-by-band and
  variant of blocked Davidson during initial phase
 perform sub-space diagonalisation
    before iterative eigenvector-optimisation
 modified Broyden-mixing scheme, WC =      100.0
 initial mixing is a Kerker type mixing with AMIX =  0.4000 and BMIX =      1.0000
 Hartree-type preconditioning will be used
 using additional bands           14
 real space projection scheme for non local part
 use partial core corrections
 calculate Harris-corrections to forces 
   (improved forces if not selfconsistent)
 use gradient corrections 
 use of overlap-Matrix (Vanderbilt PP)
 Gauss-broadening in eV      SIGMA  =   0.05


--------------------------------------------------------------------------------------------------------


  energy-cutoff  :      550.00
  volume of cell :    13016.31
      direct lattice vectors                 reciprocal lattice vectors
    23.165353660  0.000000000  0.000000000     0.043167914  0.000000000  0.000000000
     0.000000000 24.224979010  0.000000000     0.000000000  0.041279706  0.000000000
     0.000000000  0.000000000 23.194534600     0.000000000  0.000000000  0.043113605

  length of vectors
    23.165353660 24.224979010 23.194534600     0.043167914  0.041279706  0.043113605


 
 old parameters found on file WAVECAR:
  energy-cutoff  :      550.00
  volume of cell :    13016.31
      direct lattice vectors                 reciprocal lattice vectors
    23.165353660  0.000000000  0.000000000     0.043167914  0.000000000  0.000000000
     0.000000000 24.224979010  0.000000000     0.000000000  0.041279706  0.000000000
     0.000000000  0.000000000 23.194534600     0.000000000  0.000000000  0.043113605

  length of vectors

 
 k-points in units of 2pi/SCALE and weight: K-Point Grid                            
   0.00000000  0.00000000  0.00000000       1.000
 
 k-points in reciprocal lattice and weights: K-Point Grid                            
   0.00000000  0.00000000  0.00000000       1.000
 
 position of ions in fractional coordinates (direct lattice) 
   0.51638635  0.54173379  0.51139659
   0.48565578  0.48876053  0.48938416
   0.51967537  0.43332776  0.50248172
   0.56885605  0.54777185  0.48595143
   0.48489400  0.58794213  0.49957170
   0.52445081  0.53970233  0.56937639
   0.43134513  0.48849934  0.51435543
   0.47702846  0.49623770  0.43081290
   0.55417457  0.41886004  0.46355286
   0.50803869  0.41195258  0.55042080
 
 position of ions in cartesian coordinates  (Angst):
  11.96227237 13.12348965 11.86160595
  11.25038782 11.84021368 11.35103783
  12.03846382 10.49735588 11.65482968
  13.17775164 13.26976162 11.27141737
  11.23274097 14.24288566 11.58733306
  12.14908851 13.07427758 13.20642033
   9.99226241 11.83388620 11.93023484
  11.05053302 12.02134793  9.99250460
  12.83764986 10.14687573 10.75189292
  11.76889603  9.97954265 12.76675434
 


--------------------------------------------------------------------------------------------------------


 k-point  1 :   0.0000 0.0000 0.0000  plane waves:  381293

 maximum and minimum number of plane-waves per node :     31783    31769

 maximum number of plane-waves:    381293
 maximum index in each direction: 
   IXMAX=   44   IYMAX=   46   IZMAX=   44
   IXMIN=  -44   IYMIN=  -46   IZMIN=  -44


 real space projection operators:
  total allocation   :       1983.69 KBytes
  max/ min on nodes  :        169.38        160.25


 parallel 3D FFT for wavefunctions:
    minimum data exchange during FFTs selected (reduces bandwidth)
 parallel 3D FFT for charge:
    minimum data exchange during FFTs selected (reduces bandwidth)


 total amount of memory used by VASP MPI-rank0   284249. kBytes
=======================================================================

   base      :      30000. kBytes
   nonlr-proj:        761. kBytes
   fftplans  :      51995. kBytes
   grid      :     190297. kBytes
   one-center:          6. kBytes
   wavefun   :      11190. kBytes
 
     INWAV:  cpu time    1.7309: real time    1.7386
 Broyden mixing: mesh for mixing (old mesh)
   NGX = 89   NGY = 93   NGZ = 89
  (NGX  =360   NGY  =384   NGZ  =360)
  gives a total of 736653 points

 charge density for first step will be calculated from the start-wavefunctions


--------------------------------------------------------------------------------------------------------


 Maximum index for non-local projection operator          292
 Maximum index for augmentation-charges          363 (set IRDMAX)


--------------------------------------------------------------------------------------------------------


 initial charge from wavefunction
 First call to EWALD:  gamma=   0.075
 Maximum number of real-space cells 3x 3x 3
 Maximum number of reciprocal cells 3x 3x 3

    FEWALD:  cpu time    0.0015: real time    0.0015


--------------------------------------- Iteration      1(   1)  ---------------------------------------


    POTLOK:  cpu time   82.1223: real time   82.5051
    SETDIJ:  cpu time    0.5539: real time    0.5694
     EDDAV:  cpu time   19.0939: real time   19.3658
       DOS:  cpu time    0.0007: real time    0.0244
    CHARGE:  cpu time    3.9595: real time    3.9663
    MIXING:  cpu time    0.0456: real time    0.0460
    --------------------------------------------
      LOOP:  cpu time  105.7760: real time  106.4772

 eigenvalue-minimisations  :   216
 total energy-change (2. order) :-0.7930631E+02  (-0.5710630E+01)
 number of electron      60.0000009 magnetization      -0.0000000
 augmentation part        8.0464091 magnetization       0.0000083

 Broyden mixing:
  rms(total) = 0.58352E+00    rms(broyden)= 0.58294E+00
  rms(prec ) = 0.62994E+00
  weight for this iteration     100.00

 Free energy of the ion-electron system (eV)
  ---------------------------------------------------
  alpha Z        PSCENC =         1.05785502
  Ewald energy   TEWEN  =      6137.89879338
  -Hartree energ DENC   =    -10346.39268172
  -exchange      EXHF   =         0.00000000
  -V(xc)+E(xc)   XCENC  =       344.70998993
  PAW double counting   =      5493.59118559    -5532.79951741
  entropy T*S    EENTRO =        -0.00000000
  eigenvalues    EBANDS =      -946.85534088
  atomic energy  EATOM  =      4604.25636981
  Solvation  Ediel_sol  =       165.22703774
  ---------------------------------------------------
  free energy    TOTEN  =       -79.30630855 eV

  energy without entropy =      -79.30630855  energy(sigma->0) =      -79.30630855


--------------------------------------------------------------------------------------------------------




--------------------------------------- Iteration      1(   2)  ---------------------------------------


    POTLOK:  cpu time   76.2623: real time   76.4129
    SETDIJ:  cpu time    0.4043: real time    0.4053
    EDDIAG:  cpu time    3.9542: real time    3.9813
  RMM-DIIS:  cpu time   22.7220: real time   22.7750
    ORTHCH:  cpu time    0.0437: real time    0.0438
       DOS:  cpu time    0.0004: real time    0.0004
    CHARGE:  cpu time    3.9332: real time    3.9402
    MIXING:  cpu time    0.0491: real time    0.0503
    --------------------------------------------
      LOOP:  cpu time  107.3693: real time  107.6092

 eigenvalue-minimisations  :   176
 total energy-change (2. order) : 0.1260970E+01  (-0.4286149E+00)
 number of electron      60.0000008 magnetization      -0.0000000
 augmentation part        7.9384386 magnetization       0.0000039

 Broyden mixing:
  rms(total) = 0.33866E+00    rms(broyden)= 0.33863E+00
  rms(prec ) = 0.36553E+00
  weight for this iteration     100.00

 eigenvalues of (default mixing * dielectric matrix)
  average eigenvalue GAMMA=   1.7681
  1.7681

 Free energy of the ion-electron system (eV)
  ---------------------------------------------------
  alpha Z        PSCENC =         1.05785502
  Ewald energy   TEWEN  =      6137.89879338
  -Hartree energ DENC   =    -10333.58078535
  -exchange      EXHF   =         0.00000000
  -V(xc)+E(xc)   XCENC  =       344.86535250
  PAW double counting   =      5423.91608585    -5463.97721739
  entropy T*S    EENTRO =        -0.00000000
  eigenvalues    EBANDS =      -958.73521239
  atomic energy  EATOM  =      4604.25636981
  Solvation  Ediel_sol  =       166.25341992
  ---------------------------------------------------
  free energy    TOTEN  =       -78.04533866 eV

  energy without entropy =      -78.04533866  energy(sigma->0) =      -78.04533866


--------------------------------------------------------------------------------------------------------




--------------------------------------- Iteration      1(   3)  ---------------------------------------


    POTLOK:  cpu time   75.9028: real time   76.0493
    SETDIJ:  cpu time    0.4059: real time    0.4067
    EDDIAG:  cpu time    3.9240: real time    3.9308
  RMM-DIIS:  cpu time   22.8554: real time   22.8964
    ORTHCH:  cpu time    0.0307: real time    0.0308
       DOS:  cpu time    0.0004: real time    0.0004
    CHARGE:  cpu time    3.9448: real time    3.9521
    MIXING:  cpu time    0.0445: real time    0.0446
    --------------------------------------------
      LOOP:  cpu time  107.1086: real time  107.3110

 eigenvalue-minimisations  :   178
 total energy-change (2. order) : 0.3527463E+00  (-0.3559759E+00)
 number of electron      60.0000008 magnetization      -0.0000000
 augmentation part        7.8266262 magnetization       0.0000008

 Broyden mixing:
  rms(total) = 0.14676E+00    rms(broyden)= 0.14663E+00
  rms(prec ) = 0.15484E+00
  weight for this iteration     100.00

 eigenvalues of (default mixing * dielectric matrix)
  average eigenvalue GAMMA=   1.2835
  0.8608  1.7062

 Free energy of the ion-electron system (eV)
  ---------------------------------------------------
  alpha Z        PSCENC =         1.05785502
  Ewald energy   TEWEN  =      6137.89879338
  -Hartree energ DENC   =    -10315.48883098
  -exchange      EXHF   =         0.00000000
  -V(xc)+E(xc)   XCENC  =       345.25768258
  PAW double counting   =      5350.64894749    -5390.89365590
  entropy T*S    EENTRO =        -0.00000000
  eigenvalues    EBANDS =      -976.63792906
  atomic energy  EATOM  =      4604.25636981
  Solvation  Ediel_sol  =       166.20817527
  ---------------------------------------------------
  free energy    TOTEN  =       -77.69259241 eV

  energy without entropy =      -77.69259241  energy(sigma->0) =      -77.69259241


--------------------------------------------------------------------------------------------------------




--------------------------------------- Iteration      1(   4)  ---------------------------------------


    POTLOK:  cpu time   73.1390: real time   73.2814
    SETDIJ:  cpu time    0.4037: real time    0.4046
    EDDIAG:  cpu time    3.9136: real time    3.9205
  RMM-DIIS:  cpu time   22.8498: real time   22.8911
    ORTHCH:  cpu time    0.0302: real time    0.0302
       DOS:  cpu time    0.0003: real time    0.0003
    CHARGE:  cpu time    3.9609: real time    3.9679
    MIXING:  cpu time    0.0467: real time    0.0472
    --------------------------------------------
      LOOP:  cpu time  104.3443: real time  104.5433

 eigenvalue-minimisations  :   178
 total energy-change (2. order) : 0.2986523E-01  (-0.1332126E-01)
 number of electron      60.0000008 magnetization      -0.0000000
 augmentation part        7.8471383 magnetization       0.0000008

 Broyden mixing:
  rms(total) = 0.81272E-01    rms(broyden)= 0.81260E-01
  rms(prec ) = 0.87098E-01
  weight for this iteration     100.00

 eigenvalues of (default mixing * dielectric matrix)
  average eigenvalue GAMMA=   1.4557
  0.9715  1.6978  1.6978

 Free energy of the ion-electron system (eV)
  ---------------------------------------------------
  alpha Z        PSCENC =         1.05785502
  Ewald energy   TEWEN  =      6137.89879338
  -Hartree energ DENC   =    -10308.97250126
  -exchange      EXHF   =         0.00000000
  -V(xc)+E(xc)   XCENC  =       344.68236103
  PAW double counting   =      5337.94196121    -5378.00023872
  entropy T*S    EENTRO =        -0.00000000
  eigenvalues    EBANDS =      -981.44872488
  atomic energy  EATOM  =      4604.25636981
  Solvation  Ediel_sol  =       164.92139725
  ---------------------------------------------------
  free energy    TOTEN  =       -77.66272717 eV

  energy without entropy =      -77.66272717  energy(sigma->0) =      -77.66272717


--------------------------------------------------------------------------------------------------------




--------------------------------------- Iteration      1(   5)  ---------------------------------------


    POTLOK:  cpu time   74.0399: real time   74.1830
    SETDIJ:  cpu time    0.3998: real time    0.4007
    EDDIAG:  cpu time    3.9187: real time    3.9261
  RMM-DIIS:  cpu time   22.6136: real time   22.6546
    ORTHCH:  cpu time    0.0305: real time    0.0305
       DOS:  cpu time    0.0004: real time    0.0004
    CHARGE:  cpu time    3.9271: real time    3.9343
    MIXING:  cpu time    0.0484: real time    0.0485
    --------------------------------------------
      LOOP:  cpu time  104.9785: real time  105.1781

 eigenvalue-minimisations  :   176
 total energy-change (2. order) : 0.3255023E-02  (-0.2224347E-01)
 number of electron      60.0000008 magnetization      -0.0000000
 augmentation part        7.8917651 magnetization      -0.0000004

 Broyden mixing:
  rms(total) = 0.47531E-01    rms(broyden)= 0.47508E-01
  rms(prec ) = 0.52294E-01
  weight for this iteration     100.00

 eigenvalues of (default mixing * dielectric matrix)
  average eigenvalue GAMMA=   1.4516
  2.2419  0.9644  1.3000  1.3000

 Free energy of the ion-electron system (eV)
  ---------------------------------------------------
  alpha Z        PSCENC =         1.05785502
  Ewald energy   TEWEN  =      6137.89879338
  -Hartree energ DENC   =    -10301.55082346
  -exchange      EXHF   =         0.00000000
  -V(xc)+E(xc)   XCENC  =       344.36788495
  PAW double counting   =      5325.22621572    -5365.13319491
  entropy T*S    EENTRO =        -0.00000000
  eigenvalues    EBANDS =      -985.99173862
  atomic energy  EATOM  =      4604.25636981
  Solvation  Ediel_sol  =       162.20916598
  ---------------------------------------------------
  free energy    TOTEN  =       -77.65947215 eV

  energy without entropy =      -77.65947215  energy(sigma->0) =      -77.65947215


--------------------------------------------------------------------------------------------------------




--------------------------------------- Iteration      1(   6)  ---------------------------------------


    POTLOK:  cpu time   72.8542: real time   72.9988
    SETDIJ:  cpu time    0.4022: real time    0.4030
    EDDIAG:  cpu time    3.9351: real time    3.9424
  RMM-DIIS:  cpu time   22.6297: real time   22.6706
    ORTHCH:  cpu time    0.0302: real time    0.0302
       DOS:  cpu time    0.0004: real time    0.0004
    CHARGE:  cpu time    3.9414: real time    3.9482
    MIXING:  cpu time    0.0747: real time    0.0749
    --------------------------------------------
      LOOP:  cpu time  103.8678: real time  104.0685

 eigenvalue-minimisations  :   176
 total energy-change (2. order) : 0.5067935E-02  (-0.6769500E-02)
 number of electron      60.0000008 magnetization      -0.0000000
 augmentation part        7.8693237 magnetization       0.0000000

 Broyden mixing:
  rms(total) = 0.23677E-01    rms(broyden)= 0.23671E-01
  rms(prec ) = 0.27536E-01
  weight for this iteration     100.00

 eigenvalues of (default mixing * dielectric matrix)
  average eigenvalue GAMMA=   1.5112
  2.1371  2.1371  1.0257  1.1281  1.1281

 Free energy of the ion-electron system (eV)
  ---------------------------------------------------
  alpha Z        PSCENC =         1.05785502
  Ewald energy   TEWEN  =      6137.89879338
  -Hartree energ DENC   =    -10300.95887023
  -exchange      EXHF   =         0.00000000
  -V(xc)+E(xc)   XCENC  =       344.63363050
  PAW double counting   =      5323.24545887    -5363.26369594
  entropy T*S    EENTRO =        -0.00000000
  eigenvalues    EBANDS =      -985.81702792
  atomic energy  EATOM  =      4604.25636981
  Solvation  Ediel_sol  =       161.29308230
  ---------------------------------------------------
  free energy    TOTEN  =       -77.65440422 eV

  energy without entropy =      -77.65440422  energy(sigma->0) =      -77.65440422


--------------------------------------------------------------------------------------------------------




--------------------------------------- Iteration      1(   7)  ---------------------------------------


    POTLOK:  cpu time   73.7113: real time   73.8541
    SETDIJ:  cpu time    0.4029: real time    0.4038
    EDDIAG:  cpu time    3.9636: real time    3.9705
  RMM-DIIS:  cpu time   22.7681: real time   22.8093
    ORTHCH:  cpu time    0.0305: real time    0.0305
       DOS:  cpu time    0.0004: real time    0.0004
    CHARGE:  cpu time    3.9786: real time    3.9861
    MIXING:  cpu time    0.0502: real time    0.0503
    --------------------------------------------
      LOOP:  cpu time  104.9056: real time  105.1051

 eigenvalue-minimisations  :   176
 total energy-change (2. order) :-0.3986660E-02  (-0.1000914E-02)
 number of electron      60.0000008 magnetization      -0.0000000
 augmentation part        7.8717607 magnetization      -0.0000011

 Broyden mixing:
  rms(total) = 0.10070E-01    rms(broyden)= 0.10070E-01
  rms(prec ) = 0.13308E-01
  weight for this iteration     100.00

 eigenvalues of (default mixing * dielectric matrix)
  average eigenvalue GAMMA=   1.4493
  2.3122  2.3122  1.0843  1.0843  0.9953  0.9074

 Free energy of the ion-electron system (eV)
  ---------------------------------------------------
  alpha Z        PSCENC =         1.05785502
  Ewald energy   TEWEN  =      6137.89879338
  -Hartree energ DENC   =    -10297.38654537
  -exchange      EXHF   =         0.00000000
  -V(xc)+E(xc)   XCENC  =       344.51523154
  PAW double counting   =      5323.75921907    -5363.76004613
  entropy T*S    EENTRO =        -0.00000000
  eigenvalues    EBANDS =      -986.48507499
  atomic energy  EATOM  =      4604.25636981
  Solvation  Ediel_sol  =       158.48580680
  ---------------------------------------------------
  free energy    TOTEN  =       -77.65839088 eV

  energy without entropy =      -77.65839088  energy(sigma->0) =      -77.65839088


--------------------------------------------------------------------------------------------------------




--------------------------------------- Iteration      1(   8)  ---------------------------------------


    POTLOK:  cpu time   70.9150: real time   71.0559
    SETDIJ:  cpu time    0.3981: real time    0.3990
    EDDIAG:  cpu time    3.9401: real time    3.9474
  RMM-DIIS:  cpu time   22.6824: real time   22.7209
    ORTHCH:  cpu time    0.0305: real time    0.0306
       DOS:  cpu time    0.0004: real time    0.0004
    CHARGE:  cpu time    3.9501: real time    3.9564
    MIXING:  cpu time    0.0522: real time    0.0524
    --------------------------------------------
      LOOP:  cpu time  101.9689: real time  102.1630

 eigenvalue-minimisations  :   176
 total energy-change (2. order) :-0.1274241E-02  (-0.5099415E-03)
 number of electron      60.0000008 magnetization      -0.0000000
 augmentation part        7.8777834 magnetization      -0.0000010

 Broyden mixing:
  rms(total) = 0.78345E-02    rms(broyden)= 0.78315E-02
  rms(prec ) = 0.10784E-01
  weight for this iteration     100.00

 eigenvalues of (default mixing * dielectric matrix)
  average eigenvalue GAMMA=   1.7198
  3.4996  2.3984  1.8853  1.1310  0.9923  1.0660  1.0660

 Free energy of the ion-electron system (eV)
  ---------------------------------------------------
  alpha Z        PSCENC =         1.05785502
  Ewald energy   TEWEN  =      6137.89879338
  -Hartree energ DENC   =    -10295.40393775
  -exchange      EXHF   =         0.00000000
  -V(xc)+E(xc)   XCENC  =       344.45973857
  PAW double counting   =      5323.36165203    -5363.34156433
  entropy T*S    EENTRO =        -0.00000000
  eigenvalues    EBANDS =      -987.32309202
  atomic energy  EATOM  =      4604.25636981
  Solvation  Ediel_sol  =       157.37452020
  ---------------------------------------------------
  free energy    TOTEN  =       -77.65966512 eV

  energy without entropy =      -77.65966512  energy(sigma->0) =      -77.65966512


--------------------------------------------------------------------------------------------------------




--------------------------------------- Iteration      1(   9)  ---------------------------------------


    POTLOK:  cpu time   73.1158: real time   73.2555
    SETDIJ:  cpu time    0.4028: real time    0.4037
    EDDIAG:  cpu time    3.9745: real time    3.9813
  RMM-DIIS:  cpu time   22.7148: real time   22.7546
    ORTHCH:  cpu time    0.0306: real time    0.0306
       DOS:  cpu time    0.0004: real time    0.0004
    CHARGE:  cpu time    3.9261: real time    3.9327
    MIXING:  cpu time    0.0527: real time    0.0528
    --------------------------------------------
      LOOP:  cpu time  104.2176: real time  104.4116

 eigenvalue-minimisations  :   176
 total energy-change (2. order) :-0.3132258E-02  (-0.8551115E-03)
 number of electron      60.0000008 magnetization      -0.0000000
 augmentation part        7.8745466 magnetization      -0.0000046

 Broyden mixing:
  rms(total) = 0.79680E-02    rms(broyden)= 0.79655E-02
  rms(prec ) = 0.88556E-02
  weight for this iteration     100.00

 eigenvalues of (default mixing * dielectric matrix)
  average eigenvalue GAMMA=   1.5244
  3.3886  2.1873  1.7746  1.0547  1.0547  1.1578  0.8993  0.6784

 Free energy of the ion-electron system (eV)
  ---------------------------------------------------
  alpha Z        PSCENC =         1.05785502
  Ewald energy   TEWEN  =      6137.89879338
  -Hartree energ DENC   =    -10291.02662734
  -exchange      EXHF   =         0.00000000
  -V(xc)+E(xc)   XCENC  =       344.44820963
  PAW double counting   =      5325.48537472    -5365.48026765
  entropy T*S    EENTRO =        -0.00000000
  eigenvalues    EBANDS =      -988.50690148
  atomic energy  EATOM  =      4604.25636981
  Solvation  Ediel_sol  =       154.20439654
  ---------------------------------------------------
  free energy    TOTEN  =       -77.66279738 eV

  energy without entropy =      -77.66279738  energy(sigma->0) =      -77.66279738


--------------------------------------------------------------------------------------------------------




--------------------------------------- Iteration      1(  10)  ---------------------------------------


    POTLOK:  cpu time   66.0981: real time   66.2223
    SETDIJ:  cpu time    0.3976: real time    0.3985
    EDDIAG:  cpu time    3.9793: real time    3.9859
  RMM-DIIS:  cpu time   22.9587: real time   22.9951
    ORTHCH:  cpu time    0.0304: real time    0.0304
       DOS:  cpu time    0.0003: real time    0.0003
    CHARGE:  cpu time    3.9340: real time    3.9404
    MIXING:  cpu time    0.0574: real time    0.0575
    --------------------------------------------
      LOOP:  cpu time   97.4558: real time   97.6305

 eigenvalue-minimisations  :   178
 total energy-change (2. order) :-0.1545152E-03  (-0.6319756E-04)
 number of electron      60.0000008 magnetization      -0.0000000
 augmentation part        7.8752188 magnetization      -0.0000047

 Broyden mixing:
  rms(total) = 0.59834E-02    rms(broyden)= 0.59832E-02
  rms(prec ) = 0.69065E-02
  weight for this iteration     100.00

 eigenvalues of (default mixing * dielectric matrix)
  average eigenvalue GAMMA=   1.6104
  3.9489  2.1340  2.1340  1.0216  0.8896  1.1800  1.1800  1.0025  1.0025

 Free energy of the ion-electron system (eV)
  ---------------------------------------------------
  alpha Z        PSCENC =         1.05785502
  Ewald energy   TEWEN  =      6137.89879338
  -Hartree energ DENC   =    -10290.96173467
  -exchange      EXHF   =         0.00000000
  -V(xc)+E(xc)   XCENC  =       344.43694654
  PAW double counting   =      5325.26728256    -5365.25595308
  entropy T*S    EENTRO =        -0.00000000
  eigenvalues    EBANDS =      -988.54461973
  atomic energy  EATOM  =      4604.25636981
  Solvation  Ediel_sol  =       154.18210828
  ---------------------------------------------------
  free energy    TOTEN  =       -77.66295189 eV

  energy without entropy =      -77.66295189  energy(sigma->0) =      -77.66295189


--------------------------------------------------------------------------------------------------------




--------------------------------------- Iteration      1(  11)  ---------------------------------------


    POTLOK:  cpu time   69.9617: real time   70.0940
    SETDIJ:  cpu time    0.4031: real time    0.4040
    EDDIAG:  cpu time    3.9997: real time    4.0066
  RMM-DIIS:  cpu time   22.7940: real time   22.8325
    ORTHCH:  cpu time    0.0304: real time    0.0305
       DOS:  cpu time    0.0004: real time    0.0004
    CHARGE:  cpu time    3.9309: real time    3.9378
    MIXING:  cpu time    0.0760: real time    0.0762
    --------------------------------------------
      LOOP:  cpu time  101.1963: real time  101.3819

 eigenvalue-minimisations  :   176
 total energy-change (2. order) :-0.1384878E-02  (-0.1553184E-03)
 number of electron      60.0000008 magnetization      -0.0000000
 augmentation part        7.8772181 magnetization      -0.0000090

 Broyden mixing:
  rms(total) = 0.24270E-02    rms(broyden)= 0.24248E-02
  rms(prec ) = 0.30700E-02
  weight for this iteration     100.00

 eigenvalues of (default mixing * dielectric matrix)
  average eigenvalue GAMMA=   1.7112
  5.2108  2.4574  2.1013  1.2828  1.2828  0.9645  0.9645  0.9912  0.9912  0.8656

 Free energy of the ion-electron system (eV)
  ---------------------------------------------------
  alpha Z        PSCENC =         1.05785502
  Ewald energy   TEWEN  =      6137.89879338
  -Hartree energ DENC   =    -10289.95215759
  -exchange      EXHF   =         0.00000000
  -V(xc)+E(xc)   XCENC  =       344.41938863
  PAW double counting   =      5326.05136310    -5366.03534926
  entropy T*S    EENTRO =        -0.00000000
  eigenvalues    EBANDS =      -988.55304511
  atomic energy  EATOM  =      4604.25636981
  Solvation  Ediel_sol  =       153.19244526
  ---------------------------------------------------
  free energy    TOTEN  =       -77.66433677 eV

  energy without entropy =      -77.66433677  energy(sigma->0) =      -77.66433677


--------------------------------------------------------------------------------------------------------




--------------------------------------- Iteration      1(  12)  ---------------------------------------


    POTLOK:  cpu time   67.5609: real time   67.6907
    SETDIJ:  cpu time    0.3972: real time    0.3981
    EDDIAG:  cpu time    3.9770: real time    3.9840
  RMM-DIIS:  cpu time   23.1865: real time   23.2265
    ORTHCH:  cpu time    0.0304: real time    0.0305
       DOS:  cpu time    0.0003: real time    0.0003
    CHARGE:  cpu time    3.9428: real time    3.9497
    MIXING:  cpu time    0.0616: real time    0.0617
    --------------------------------------------
      LOOP:  cpu time   99.1569: real time   99.3416

 eigenvalue-minimisations  :   179
 total energy-change (2. order) :-0.7816963E-03  (-0.3743597E-04)
 number of electron      60.0000008 magnetization      -0.0000000
 augmentation part        7.8767933 magnetization      -0.0000160

 Broyden mixing:
  rms(total) = 0.26803E-02    rms(broyden)= 0.26799E-02
  rms(prec ) = 0.30912E-02
  weight for this iteration     100.00

 eigenvalues of (default mixing * dielectric matrix)
  average eigenvalue GAMMA=   1.7385
  5.6790  2.5431  1.9424  1.8047  1.0642  1.0642  1.1135  1.1135  1.0357  0.9159
  0.8471

 Free energy of the ion-electron system (eV)
  ---------------------------------------------------
  alpha Z        PSCENC =         1.05785502
  Ewald energy   TEWEN  =      6137.89879338
  -Hartree energ DENC   =    -10289.70472554
  -exchange      EXHF   =         0.00000000
  -V(xc)+E(xc)   XCENC  =       344.42503737
  PAW double counting   =      5326.45575067    -5366.44478671
  entropy T*S    EENTRO =        -0.00000000
  eigenvalues    EBANDS =      -988.41519421
  atomic energy  EATOM  =      4604.25636981
  Solvation  Ediel_sol  =       152.80578175
  ---------------------------------------------------
  free energy    TOTEN  =       -77.66511847 eV

  energy without entropy =      -77.66511847  energy(sigma->0) =      -77.66511847


--------------------------------------------------------------------------------------------------------




--------------------------------------- Iteration      1(  13)  ---------------------------------------


    POTLOK:  cpu time   67.9636: real time   68.0924
    SETDIJ:  cpu time    0.4063: real time    0.4072
    EDDIAG:  cpu time    4.0010: real time    4.0076
  RMM-DIIS:  cpu time   22.9098: real time   22.9466
    ORTHCH:  cpu time    0.0306: real time    0.0307
       DOS:  cpu time    0.0004: real time    0.0004
    CHARGE:  cpu time    3.9434: real time    3.9501
    MIXING:  cpu time    0.0648: real time    0.0649
    --------------------------------------------
      LOOP:  cpu time   99.3199: real time   99.5000

 eigenvalue-minimisations  :   178
 total energy-change (2. order) :-0.1044466E-02  (-0.3276789E-04)
 number of electron      60.0000008 magnetization      -0.0000000
 augmentation part        7.8763400 magnetization      -0.0000210

 Broyden mixing:
  rms(total) = 0.10789E-02    rms(broyden)= 0.10784E-02
  rms(prec ) = 0.13792E-02
  weight for this iteration     100.00

 eigenvalues of (default mixing * dielectric matrix)
  average eigenvalue GAMMA=   1.8107
  6.5843  2.8442  2.2888  1.9590  1.2008  1.2008  1.0358  1.0358  1.0780  0.9206
  0.9206  0.6594

 Free energy of the ion-electron system (eV)
  ---------------------------------------------------
  alpha Z        PSCENC =         1.05785502
  Ewald energy   TEWEN  =      6137.89879338
  -Hartree energ DENC   =    -10289.45768168
  -exchange      EXHF   =         0.00000000
  -V(xc)+E(xc)   XCENC  =       344.42692882
  PAW double counting   =      5326.04119510    -5366.03490357
  entropy T*S    EENTRO =        -0.00000000
  eigenvalues    EBANDS =      -988.38912703
  atomic energy  EATOM  =      4604.25636981
  Solvation  Ediel_sol  =       152.53440722
  ---------------------------------------------------
  free energy    TOTEN  =       -77.66616293 eV

  energy without entropy =      -77.66616293  energy(sigma->0) =      -77.66616293


--------------------------------------------------------------------------------------------------------




--------------------------------------- Iteration      1(  14)  ---------------------------------------


    POTLOK:  cpu time   66.5763: real time   66.7016
    SETDIJ:  cpu time    0.3970: real time    0.3979
    EDDIAG:  cpu time    3.9717: real time    3.9784
  RMM-DIIS:  cpu time   22.5135: real time   22.5517
    ORTHCH:  cpu time    0.0302: real time    0.0303
       DOS:  cpu time    0.0004: real time    0.0004
    CHARGE:  cpu time    3.9436: real time    3.9500
    MIXING:  cpu time    0.0694: real time    0.0695
    --------------------------------------------
      LOOP:  cpu time   97.5020: real time   97.6798

 eigenvalue-minimisations  :   169
 total energy-change (2. order) :-0.5613843E-03  (-0.1167453E-04)
 number of electron      60.0000008 magnetization      -0.0000000
 augmentation part        7.8766100 magnetization      -0.0000077

 Broyden mixing:
  rms(total) = 0.12179E-02    rms(broyden)= 0.12178E-02
  rms(prec ) = 0.13795E-02
  weight for this iteration     100.00

 eigenvalues of (default mixing * dielectric matrix)
  average eigenvalue GAMMA=   1.8487
  6.9991  3.4177  2.3714  1.7141  1.7141  1.1074  1.1074  1.0937  1.0937  0.9692
  0.9692  0.8530  0.6232

 Free energy of the ion-electron system (eV)
  ---------------------------------------------------
  alpha Z        PSCENC =         1.05785502
  Ewald energy   TEWEN  =      6137.89879338
  -Hartree energ DENC   =    -10289.28063849
  -exchange      EXHF   =         0.00000000
  -V(xc)+E(xc)   XCENC  =       344.42504561
  PAW double counting   =      5325.91698104    -5365.90959299
  entropy T*S    EENTRO =        -0.00000000
  eigenvalues    EBANDS =      -988.40067574
  atomic energy  EATOM  =      4604.25636981
  Solvation  Ediel_sol  =       152.36913805
  ---------------------------------------------------
  free energy    TOTEN  =       -77.66672432 eV

  energy without entropy =      -77.66672432  energy(sigma->0) =      -77.66672432


--------------------------------------------------------------------------------------------------------




--------------------------------------- Iteration      1(  15)  ---------------------------------------


    POTLOK:  cpu time   66.0462: real time   66.1787
    SETDIJ:  cpu time    0.4053: real time    0.4061
    EDDIAG:  cpu time    3.9471: real time    3.9539
  RMM-DIIS:  cpu time   21.1903: real time   21.2264
    ORTHCH:  cpu time    0.0317: real time    0.0318
       DOS:  cpu time    0.0004: real time    0.0004
    CHARGE:  cpu time    3.9574: real time    3.9637
    MIXING:  cpu time    0.0730: real time    0.0731
    --------------------------------------------
      LOOP:  cpu time   95.6515: real time   95.8341

 eigenvalue-minimisations  :   160
 total energy-change (2. order) :-0.3745710E-03  (-0.6087630E-05)
 number of electron      60.0000008 magnetization      -0.0000000
 augmentation part        7.8769137 magnetization      -0.0000047

 Broyden mixing:
  rms(total) = 0.70991E-03    rms(broyden)= 0.70974E-03
  rms(prec ) = 0.81442E-03
  weight for this iteration     100.00

 eigenvalues of (default mixing * dielectric matrix)
  average eigenvalue GAMMA=   1.9304
  7.6979  4.0915  2.5213  2.0824  1.7607  1.1303  1.1303  1.0679  1.0679  1.1100
  0.9561  0.9561  0.8369  0.6159

 Free energy of the ion-electron system (eV)
  ---------------------------------------------------
  alpha Z        PSCENC =         1.05785502
  Ewald energy   TEWEN  =      6137.89879338
  -Hartree energ DENC   =    -10289.23883191
  -exchange      EXHF   =         0.00000000
  -V(xc)+E(xc)   XCENC  =       344.42486003
  PAW double counting   =      5325.95952596    -5365.95054508
  entropy T*S    EENTRO =        -0.00000000
  eigenvalues    EBANDS =      -988.37975564
  atomic energy  EATOM  =      4604.25636981
  Solvation  Ediel_sol  =       152.30462956
  ---------------------------------------------------
  free energy    TOTEN  =       -77.66709889 eV

  energy without entropy =      -77.66709889  energy(sigma->0) =      -77.66709889


--------------------------------------------------------------------------------------------------------




--------------------------------------- Iteration      1(  16)  ---------------------------------------


    POTLOK:  cpu time   65.1274: real time   65.2505
    SETDIJ:  cpu time    0.4032: real time    0.4041
    EDDIAG:  cpu time    3.9740: real time    3.9808
  RMM-DIIS:  cpu time   19.5120: real time   19.5457
    ORTHCH:  cpu time    0.0302: real time    0.0303
       DOS:  cpu time    0.0004: real time    0.0004
    CHARGE:  cpu time    3.9430: real time    3.9495
    MIXING:  cpu time    0.0917: real time    0.0919
    --------------------------------------------
      LOOP:  cpu time   93.0819: real time   93.2531

 eigenvalue-minimisations  :   137
 total energy-change (2. order) :-0.3314273E-03  (-0.3551391E-05)
 number of electron      60.0000008 magnetization      -0.0000000
 augmentation part        7.8766857 magnetization      -0.0000056

 Broyden mixing:
  rms(total) = 0.31380E-03    rms(broyden)= 0.31364E-03
  rms(prec ) = 0.37115E-03
  weight for this iteration     100.00

 eigenvalues of (default mixing * dielectric matrix)
  average eigenvalue GAMMA=   1.9440
  8.2176  4.5268  2.6371  2.1862  1.6634  1.3873  1.1282  1.1282  1.0694  1.0694
  0.9760  0.9760  0.7928  0.7928  0.6095

 Free energy of the ion-electron system (eV)
  ---------------------------------------------------
  alpha Z        PSCENC =         1.05785502
  Ewald energy   TEWEN  =      6137.89879338
  -Hartree energ DENC   =    -10289.23599778
  -exchange      EXHF   =         0.00000000
  -V(xc)+E(xc)   XCENC  =       344.42767792
  PAW double counting   =      5325.96420183    -5365.95614958
  entropy T*S    EENTRO =        -0.00000000
  eigenvalues    EBANDS =      -988.34958839
  atomic energy  EATOM  =      4604.25636981
  Solvation  Ediel_sol  =       152.26940749
  ---------------------------------------------------
  free energy    TOTEN  =       -77.66743031 eV

  energy without entropy =      -77.66743031  energy(sigma->0) =      -77.66743031


--------------------------------------------------------------------------------------------------------




--------------------------------------- Iteration      1(  17)  ---------------------------------------


    POTLOK:  cpu time   62.5530: real time   62.6725
    SETDIJ:  cpu time    0.4021: real time    0.4030
    EDDIAG:  cpu time    3.9955: real time    4.0017
  RMM-DIIS:  cpu time   17.7688: real time   17.7980
    ORTHCH:  cpu time    0.0301: real time    0.0302
       DOS:  cpu time    0.0004: real time    0.0004
    CHARGE:  cpu time    3.9372: real time    3.9437
    MIXING:  cpu time    0.0823: real time    0.0825
    --------------------------------------------
      LOOP:  cpu time   88.7693: real time   88.9321

 eigenvalue-minimisations  :   118
 total energy-change (2. order) :-0.1154431E-03  (-0.1435589E-05)
 number of electron      60.0000008 magnetization      -0.0000000
 augmentation part        7.8765619 magnetization      -0.0000028

 Broyden mixing:
  rms(total) = 0.33521E-03    rms(broyden)= 0.33515E-03
  rms(prec ) = 0.37547E-03
  weight for this iteration     100.00

 eigenvalues of (default mixing * dielectric matrix)
  average eigenvalue GAMMA=   1.9407
  8.5346  4.7744  2.6650  2.2319  1.6933  1.6933  1.1311  1.1311  1.0660  1.0660
  1.0038  1.0038  0.8802  0.8802  0.6902  0.6066

 Free energy of the ion-electron system (eV)
  ---------------------------------------------------
  alpha Z        PSCENC =         1.05785502
  Ewald energy   TEWEN  =      6137.89879338
  -Hartree energ DENC   =    -10289.22137994
  -exchange      EXHF   =         0.00000000
  -V(xc)+E(xc)   XCENC  =       344.42744083
  PAW double counting   =      5325.95270555    -5365.94517339
  entropy T*S    EENTRO =        -0.00000000
  eigenvalues    EBANDS =      -988.35328738
  atomic energy  EATOM  =      4604.25636981
  Solvation  Ediel_sol  =       152.25913038
  ---------------------------------------------------
  free energy    TOTEN  =       -77.66754576 eV

  energy without entropy =      -77.66754576  energy(sigma->0) =      -77.66754576


--------------------------------------------------------------------------------------------------------




--------------------------------------- Iteration      1(  18)  ---------------------------------------


    POTLOK:  cpu time   62.6312: real time   62.7497
    SETDIJ:  cpu time    0.4005: real time    0.4014
    EDDIAG:  cpu time    3.9956: real time    4.0021
  RMM-DIIS:  cpu time   17.7472: real time   17.7776
    ORTHCH:  cpu time    0.0301: real time    0.0301
       DOS:  cpu time    0.0004: real time    0.0004
    CHARGE:  cpu time    3.9334: real time    3.9399
    MIXING:  cpu time    0.0871: real time    0.0872
    --------------------------------------------
      LOOP:  cpu time   88.8255: real time   88.9885

 eigenvalue-minimisations  :   116
 total energy-change (2. order) :-0.9967780E-04  (-0.8730924E-06)
 number of electron      60.0000008 magnetization      -0.0000000
 augmentation part        7.8765595 magnetization      -0.0000025

 Broyden mixing:
  rms(total) = 0.25441E-03    rms(broyden)= 0.25440E-03
  rms(prec ) = 0.28212E-03
  weight for this iteration     100.00

 eigenvalues of (default mixing * dielectric matrix)
  average eigenvalue GAMMA=   1.9856
  8.9738  5.0393  2.9263  2.5222  2.0586  1.6704  1.1293  1.1293  1.0624  1.0624
  1.1921  1.0091  0.9484  0.9484  0.8187  0.6578  0.6068

 Free energy of the ion-electron system (eV)
  ---------------------------------------------------
  alpha Z        PSCENC =         1.05785502
  Ewald energy   TEWEN  =      6137.89879338
  -Hartree energ DENC   =    -10289.21215838
  -exchange      EXHF   =         0.00000000
  -V(xc)+E(xc)   XCENC  =       344.42668518
  PAW double counting   =      5325.96725322    -5365.95954569
  entropy T*S    EENTRO =        -0.00000000
  eigenvalues    EBANDS =      -988.35634399
  atomic energy  EATOM  =      4604.25636981
  Solvation  Ediel_sol  =       152.25344601
  ---------------------------------------------------
  free energy    TOTEN  =       -77.66764543 eV

  energy without entropy =      -77.66764543  energy(sigma->0) =      -77.66764543


--------------------------------------------------------------------------------------------------------




--------------------------------------- Iteration      1(  19)  ---------------------------------------


    POTLOK:  cpu time   62.5143: real time   62.6343
    SETDIJ:  cpu time    0.4054: real time    0.4063
    EDDIAG:  cpu time    3.9937: real time    4.0000
  RMM-DIIS:  cpu time   17.5847: real time   17.6128
    ORTHCH:  cpu time    0.0302: real time    0.0303
       DOS:  cpu time    0.0003: real time    0.0003
    CHARGE:  cpu time    3.9732: real time    3.9800
    MIXING:  cpu time    0.0920: real time    0.0922
    --------------------------------------------
      LOOP:  cpu time   88.5938: real time   88.7563

 eigenvalue-minimisations  :   116
 total energy-change (2. order) :-0.7208897E-04  (-0.7140637E-06)
 number of electron      60.0000008 magnetization      -0.0000000
 augmentation part        7.8766395 magnetization      -0.0000015

 Broyden mixing:
  rms(total) = 0.48089E-04    rms(broyden)= 0.48032E-04
  rms(prec ) = 0.69545E-04
  weight for this iteration     100.00

 eigenvalues of (default mixing * dielectric matrix)
  average eigenvalue GAMMA=   1.9865
  9.2072  5.2897  3.3297  2.5475  2.0625  1.5444  1.5444  1.1337  1.1337  1.0614
  1.0614  1.0113  1.0113  0.8670  0.8670  0.8434  0.6100  0.6320

 Free energy of the ion-electron system (eV)
  ---------------------------------------------------
  alpha Z        PSCENC =         1.05785502
  Ewald energy   TEWEN  =      6137.89879338
  -Hartree energ DENC   =    -10289.20915897
  -exchange      EXHF   =         0.00000000
  -V(xc)+E(xc)   XCENC  =       344.42581119
  PAW double counting   =      5325.98752724    -5365.97929075
  entropy T*S    EENTRO =        -0.00000000
  eigenvalues    EBANDS =      -988.35656292
  atomic energy  EATOM  =      4604.25636981
  Solvation  Ediel_sol  =       152.25093849
  ---------------------------------------------------
  free energy    TOTEN  =       -77.66771752 eV

  energy without entropy =      -77.66771752  energy(sigma->0) =      -77.66771752


--------------------------------------------------------------------------------------------------------




--------------------------------------- Iteration      1(  20)  ---------------------------------------


    POTLOK:  cpu time   60.3393: real time   60.4552
    SETDIJ:  cpu time    0.4003: real time    0.4012
    EDDIAG:  cpu time    3.9684: real time    3.9746
  RMM-DIIS:  cpu time   17.5629: real time   17.5910
    ORTHCH:  cpu time    0.0302: real time    0.0303
       DOS:  cpu time    0.0003: real time    0.0003
    CHARGE:  cpu time    3.9668: real time    3.9730
    MIXING:  cpu time    0.0974: real time    0.0976
    --------------------------------------------
      LOOP:  cpu time   86.3656: real time   86.5232

 eigenvalue-minimisations  :   116
 total energy-change (2. order) :-0.3016415E-04  (-0.4950702E-06)
 number of electron      60.0000008 magnetization      -0.0000000
 augmentation part        7.8766935 magnetization      -0.0000014

 Broyden mixing:
  rms(total) = 0.12753E-03    rms(broyden)= 0.12750E-03
  rms(prec ) = 0.13907E-03
  weight for this iteration     100.00

 eigenvalues of (default mixing * dielectric matrix)
  average eigenvalue GAMMA=   2.0035
  9.3160  5.6447  3.6383  2.5493  1.8823  1.8823  1.8223  1.1310  1.1310  1.0636
  1.0636  1.0932  1.0932  0.9845  0.9845  0.8534  0.6939  0.6277  0.6112

 Free energy of the ion-electron system (eV)
  ---------------------------------------------------
  alpha Z        PSCENC =         1.05785502
  Ewald energy   TEWEN  =      6137.89879338
  -Hartree energ DENC   =    -10289.21087852
  -exchange      EXHF   =         0.00000000
  -V(xc)+E(xc)   XCENC  =       344.42576303
  PAW double counting   =      5325.98773285    -5365.97930774
  entropy T*S    EENTRO =        -0.00000000
  eigenvalues    EBANDS =      -988.35559364
  atomic energy  EATOM  =      4604.25636981
  Solvation  Ediel_sol  =       152.25151814
  ---------------------------------------------------
  free energy    TOTEN  =       -77.66774769 eV

  energy without entropy =      -77.66774769  energy(sigma->0) =      -77.66774769


--------------------------------------------------------------------------------------------------------




--------------------------------------- Iteration      1(  21)  ---------------------------------------


    POTLOK:  cpu time   59.6943: real time   59.8078
    SETDIJ:  cpu time    0.4023: real time    0.4032
    EDDIAG:  cpu time    3.9996: real time    4.0062
  RMM-DIIS:  cpu time   17.6919: real time   17.7210
    ORTHCH:  cpu time    0.0303: real time    0.0303
       DOS:  cpu time    0.0004: real time    0.0004
    CHARGE:  cpu time    3.9820: real time    3.9885
    MIXING:  cpu time    0.1198: real time    0.1200
    --------------------------------------------
      LOOP:  cpu time   85.9205: real time   86.0775

 eigenvalue-minimisations  :   116
 total energy-change (2. order) :-0.2384246E-04  (-0.3510994E-06)
 number of electron      60.0000008 magnetization      -0.0000000
 augmentation part        7.8766901 magnetization      -0.0000008

 Broyden mixing:
  rms(total) = 0.69813E-04    rms(broyden)= 0.69809E-04
  rms(prec ) = 0.76948E-04
  weight for this iteration     100.00

 eigenvalues of (default mixing * dielectric matrix)
  average eigenvalue GAMMA=   2.0131
  9.4043  6.0341  3.8969  2.6053  2.1894  2.1894  1.4913  1.4913  1.1304  1.1304
  1.0631  1.0631  1.0504  0.9641  0.9641  0.8662  0.8662  0.6532  0.6193  0.5901

 Free energy of the ion-electron system (eV)
  ---------------------------------------------------
  alpha Z        PSCENC =         1.05785502
  Ewald energy   TEWEN  =      6137.89879338
  -Hartree energ DENC   =    -10289.21376236
  -exchange      EXHF   =         0.00000000
  -V(xc)+E(xc)   XCENC  =       344.42618002
  PAW double counting   =      5325.97866686    -5365.97039689
  entropy T*S    EENTRO =        -0.00000000
  eigenvalues    EBANDS =      -988.35387466
  atomic energy  EATOM  =      4604.25636981
  Solvation  Ediel_sol  =       152.25239730
  ---------------------------------------------------
  free energy    TOTEN  =       -77.66777153 eV

  energy without entropy =      -77.66777153  energy(sigma->0) =      -77.66777153


--------------------------------------------------------------------------------------------------------




--------------------------------------- Iteration      1(  22)  ---------------------------------------


    POTLOK:  cpu time   58.0180: real time   58.1296
    SETDIJ:  cpu time    0.4039: real time    0.4047
    EDDIAG:  cpu time    3.9769: real time    3.9836
  RMM-DIIS:  cpu time   17.5691: real time   17.5996
    ORTHCH:  cpu time    0.0307: real time    0.0308
       DOS:  cpu time    0.0003: real time    0.0003
    --------------------------------------------
      LOOP:  cpu time   79.9989: real time   80.1485

 eigenvalue-minimisations  :   116
 total energy-change (2. order) :-0.8907788E-05  (-0.2395383E-06)
 number of electron      60.0000008 magnetization      -0.0000000
 augmentation part        7.8766901 magnetization      -0.0000008

 Free energy of the ion-electron system (eV)
  ---------------------------------------------------
  alpha Z        PSCENC =         1.05785502
  Ewald energy   TEWEN  =      6137.89879338
  -Hartree energ DENC   =    -10289.21494568
  -exchange      EXHF   =         0.00000000
  -V(xc)+E(xc)   XCENC  =       344.42645158
  PAW double counting   =      5325.97611295    -5365.96800300
  entropy T*S    EENTRO =        -0.00000000
  eigenvalues    EBANDS =      -988.35285855
  atomic energy  EATOM  =      4604.25636981
  Solvation  Ediel_sol  =       152.25244407
  ---------------------------------------------------
  free energy    TOTEN  =       -77.66778044 eV

  energy without entropy =      -77.66778044  energy(sigma->0) =      -77.66778044


--------------------------------------------------------------------------------------------------------




 average (electrostatic) potential at core
  the test charge radii are     0.6991  0.7167  0.7215
  (the norm of the test charge is              1.0000)
       1 -67.1232       2 -65.1344       3 -63.2562       4 -91.6185       5 -91.5598
       6 -91.6196       7 -90.9422       8 -90.9414       9 -83.1711      10 -83.1681
 
 
 
 E-fermi :  -5.8422     XC(G=0):  -0.1076     alpha+bet : -0.0597


 spin component 1

 k-point     1 :       0.0000    0.0000    0.0000
  band No.  band energies     occupation 
      1     -35.1050      1.00000
      2     -33.4790      1.00000
      3     -32.9128      1.00000
      4     -32.8223      1.00000
      5     -32.0300      1.00000
      6     -27.4569      1.00000
      7     -25.3206      1.00000
      8     -20.3903      1.00000
      9     -17.7051      1.00000
     10     -15.7900      1.00000
     11     -15.5554      1.00000
     12     -15.4492      1.00000
     13     -14.5989      1.00000
     14     -14.1295      1.00000
     15     -12.1515      1.00000
     16     -12.0392      1.00000
     17     -11.8938      1.00000
     18     -11.8580      1.00000
     19     -11.2612      1.00000
     20     -11.0736      1.00000
     21     -10.8090      1.00000
     22     -10.6939      1.00000
     23     -10.5424      1.00000
     24     -10.4391      1.00000
     25     -10.2243      1.00000
     26      -9.9698      1.00000
     27      -9.4583      1.00000
     28      -6.6612      1.00000
     29      -6.2628      1.00000
     30      -6.0934      1.00000
     31      -0.1679      0.00000
     32       0.0492      0.00000
     33       0.2205      0.00000
     34       0.2373      0.00000
     35       0.2406      0.00000
     36       0.2619      0.00000
     37       0.2777      0.00000
     38       0.3766      0.00000
     39       0.4497      0.00000
     40       0.4623      0.00000
     41       0.4789      0.00000
     42       0.5365      0.00000
     43       0.5516      0.00000
     44       0.5527      0.00000

 spin component 2

 k-point     1 :       0.0000    0.0000    0.0000
  band No.  band energies     occupation 
      1     -35.1050      1.00000
      2     -33.4790      1.00000
      3     -32.9128      1.00000
      4     -32.8223      1.00000
      5     -32.0300      1.00000
      6     -27.4569      1.00000
      7     -25.3206      1.00000
      8     -20.3903      1.00000
      9     -17.7051      1.00000
     10     -15.7900      1.00000
     11     -15.5554      1.00000
     12     -15.4492      1.00000
     13     -14.5989      1.00000
     14     -14.1295      1.00000
     15     -12.1515      1.00000
     16     -12.0392      1.00000
     17     -11.8938      1.00000
     18     -11.8580      1.00000
     19     -11.2612      1.00000
     20     -11.0736      1.00000
     21     -10.8090      1.00000
     22     -10.6939      1.00000
     23     -10.5424      1.00000
     24     -10.4391      1.00000
     25     -10.2243      1.00000
     26      -9.9699      1.00000
     27      -9.4583      1.00000
     28      -6.6612      1.00000
     29      -6.2628      1.00000
     30      -6.0934      1.00000
     31      -0.1792      0.00000
     32       0.0498      0.00000
     33       0.2210      0.00000
     34       0.2368      0.00000
     35       0.2406      0.00000
     36       0.2620      0.00000
     37       0.2778      0.00000
     38       0.3778      0.00000
     39       0.4485      0.00000
     40       0.4627      0.00000
     41       0.4802      0.00000
     42       0.5371      0.00000
     43       0.5517      0.00000
     44       0.5528      0.00000


--------------------------------------------------------------------------------------------------------


 soft charge-density along one line, spin component           1
         0         1         2         3         4         5         6         7         8         9
 total charge-density along one line
 
 soft charge-density along one line, spin component           2
[...]
    MIXING:  cpu time    0.0428: real time    0.0428
    --------------------------------------------
      LOOP:  cpu time   94.9410: real time   95.1156

 eigenvalue-minimisations  :   176
 total energy-change (2. order) :-0.2272286E-03  (-0.1658929E-03)
 number of electron      60.0000013 magnetization      -0.0000000
 augmentation part        7.9122432 magnetization      -0.0000001

 Broyden mixing:
  rms(total) = 0.21735E-02    rms(broyden)= 0.21707E-02
  rms(prec ) = 0.22256E-02
  weight for this iteration     100.00

 eigenvalues of (default mixing * dielectric matrix)
  average eigenvalue GAMMA=   0.8548
  0.8548

 Free energy of the ion-electron system (eV)
  ---------------------------------------------------
  alpha Z        PSCENC =         1.05785502
  Ewald energy   TEWEN  =      6247.68288785
  -Hartree energ DENC   =    -10397.84293654
  -exchange      EXHF   =         0.00000000
  -V(xc)+E(xc)   XCENC  =       345.23260339
  PAW double counting   =      5429.19468591    -5469.28940865
  entropy T*S    EENTRO =        -0.00000000
  eigenvalues    EBANDS =      -991.38339024
  atomic energy  EATOM  =      4604.25636981
  Solvation  Ediel_sol  =       153.37336099
  ---------------------------------------------------
  free energy    TOTEN  =       -77.71797247 eV

  energy without entropy =      -77.71797247  energy(sigma->0) =      -77.71797247


--------------------------------------------------------------------------------------------------------




--------------------------------------- Iteration     22(   3)  ---------------------------------------


    POTLOK:  cpu time   62.7607: real time   62.8785
    SETDIJ:  cpu time    0.4011: real time    0.4020
    EDDIAG:  cpu time    3.9636: real time    3.9704
  RMM-DIIS:  cpu time   19.3185: real time   19.3507
    ORTHCH:  cpu time    0.0301: real time    0.0302
       DOS:  cpu time    0.0003: real time    0.0003
    --------------------------------------------
      LOOP:  cpu time   86.4742: real time   86.6320

 eigenvalue-minimisations  :   134
 total energy-change (2. order) : 0.3641931E-05  (-0.3226546E-05)
 number of electron      60.0000013 magnetization      -0.0000000
 augmentation part        7.9122432 magnetization      -0.0000001

 Free energy of the ion-electron system (eV)
  ---------------------------------------------------
  alpha Z        PSCENC =         1.05785502
  Ewald energy   TEWEN  =      6247.68288785
  -Hartree energ DENC   =    -10397.84448376
  -exchange      EXHF   =         0.00000000
  -V(xc)+E(xc)   XCENC  =       345.23223367
  PAW double counting   =      5429.22127056    -5469.31593888
  entropy T*S    EENTRO =        -0.00000000
  eigenvalues    EBANDS =      -991.38478798
  atomic energy  EATOM  =      4604.25636981
  Solvation  Ediel_sol  =       153.37662489
  ---------------------------------------------------
  free energy    TOTEN  =       -77.71796882 eV

  energy without entropy =      -77.71796882  energy(sigma->0) =      -77.71796882


--------------------------------------------------------------------------------------------------------




 average (electrostatic) potential at core
  the test charge radii are     0.6991  0.7167  0.7215
  (the norm of the test charge is              1.0000)
       1 -67.0666       2 -65.0348       3 -63.1733       4 -91.6396       5 -91.5878
       6 -91.6388       7 -90.9564       8 -90.9538       9 -83.1289      10 -83.1248
 
 
 
 E-fermi :  -5.8100     XC(G=0):  -0.1029     alpha+bet : -0.0597


 spin component 1

 k-point     1 :       0.0000    0.0000    0.0000
  band No.  band energies     occupation 
      1     -35.3295      1.00000
      2     -33.6364      1.00000
      3     -33.0147      1.00000
      4     -32.9313      1.00000
      5     -32.1067      1.00000
      6     -27.5773      1.00000
      7     -25.3888      1.00000
      8     -20.4671      1.00000
      9     -17.7448      1.00000
     10     -15.9396      1.00000
     11     -15.6559      1.00000
     12     -15.5697      1.00000
     13     -14.6882      1.00000
     14     -14.1965      1.00000
     15     -12.1840      1.00000
     16     -12.0906      1.00000
     17     -11.9003      1.00000
     18     -11.8849      1.00000
     19     -11.2945      1.00000
     20     -11.0972      1.00000
     21     -10.8143      1.00000
     22     -10.7127      1.00000
     23     -10.5309      1.00000
     24     -10.4252      1.00000
     25     -10.2104      1.00000
     26     -10.0004      1.00000
     27      -9.4096      1.00000
     28      -6.6381      1.00000
     29      -6.2043      1.00000
     30      -6.0486      1.00000
     31      -0.5837      0.00000
     32      -0.0309      0.00000
     33       0.1822      0.00000
     34       0.2258      0.00000
     35       0.2398      0.00000
     36       0.2551      0.00000
     37       0.2677      0.00000
     38       0.2830      0.00000
     39       0.4394      0.00000
     40       0.4699      0.00000
     41       0.4748      0.00000
     42       0.4909      0.00000
     43       0.5177      0.00000
     44       0.5208      0.00000

 spin component 2

 k-point     1 :       0.0000    0.0000    0.0000
  band No.  band energies     occupation 
      1     -35.3295      1.00000
      2     -33.6364      1.00000
      3     -33.0147      1.00000
      4     -32.9313      1.00000
      5     -32.1067      1.00000
      6     -27.5773      1.00000
      7     -25.3888      1.00000
      8     -20.4671      1.00000
      9     -17.7448      1.00000
     10     -15.9396      1.00000
     11     -15.6559      1.00000
     12     -15.5697      1.00000
     13     -14.6882      1.00000
     14     -14.1965      1.00000
     15     -12.1840      1.00000
     16     -12.0906      1.00000
     17     -11.9003      1.00000
     18     -11.8849      1.00000
     19     -11.2945      1.00000
     20     -11.0972      1.00000
     21     -10.8143      1.00000
     22     -10.7127      1.00000
     23     -10.5309      1.00000
     24     -10.4252      1.00000
     25     -10.2104      1.00000
     26     -10.0004      1.00000
     27      -9.4096      1.00000
     28      -6.6381      1.00000
     29      -6.2043      1.00000
     30      -6.0486      1.00000
     31      -0.5837      0.00000
     32      -0.0309      0.00000
     33       0.1823      0.00000
     34       0.2258      0.00000
     35       0.2397      0.00000
     36       0.2551      0.00000
     37       0.2677      0.00000
     38       0.2830      0.00000
     39       0.4394      0.00000
     40       0.4699      0.00000
     41       0.4749      0.00000
     42       0.4909      0.00000
     43       0.5177      0.00000
     44       0.5209      0.00000


--------------------------------------------------------------------------------------------------------


 soft charge-density along one line, spin component           1
         0         1         2         3         4         5         6         7         8         9
 total charge-density along one line
 
 soft charge-density along one line, spin component           2
         0         1         2         3         4         5         6         7         8         9
 total charge-density along one line
 
 pseudopotential strength for first ion, spin component:           1
 10.746  14.298   0.016   0.006   0.009  -0.039  -0.016  -0.023
 14.298  19.025   0.020   0.008   0.012  -0.049  -0.020  -0.029
  0.016   0.020  -4.728  -0.001  -0.002   9.196  -0.001  -0.001
  0.006   0.008  -0.001  -4.726  -0.000  -0.001   9.199  -0.001
  0.009   0.012  -0.002  -0.000  -4.727  -0.001  -0.001   9.198
 -0.039  -0.049   9.196  -0.001  -0.001 -20.180   0.003   0.003
 -0.016  -0.020  -0.001   9.199  -0.001   0.003 -20.187   0.002
 -0.023  -0.029  -0.001  -0.001   9.198   0.003   0.002 -20.185
 pseudopotential strength for first ion, spin component:           2
 10.746  14.298   0.016   0.006   0.009  -0.039  -0.016  -0.023
 14.298  19.025   0.020   0.008   0.012  -0.049  -0.020  -0.029
  0.016   0.020  -4.728  -0.001  -0.002   9.196  -0.001  -0.001
  0.006   0.008  -0.001  -4.726  -0.000  -0.001   9.199  -0.001
  0.009   0.012  -0.002  -0.000  -4.727  -0.001  -0.001   9.198
 -0.039  -0.049   9.196  -0.001  -0.001 -20.180   0.003   0.003
 -0.016  -0.020  -0.001   9.199  -0.001   0.003 -20.187   0.002
 -0.023  -0.029  -0.001  -0.001   9.198   0.003   0.002 -20.185
 total augmentation occupancy for first ion, spin component:           1
  8.416  -4.138   0.269   0.117   0.168   0.070   0.029   0.042
 -4.138   2.262  -0.306  -0.130  -0.187  -0.048  -0.020  -0.028
  0.269  -0.306   1.534   0.066   0.095   0.137  -0.007  -0.010
  0.117  -0.130   0.066   1.408   0.037  -0.007   0.153  -0.005
  0.168  -0.187   0.095   0.037   1.432  -0.010  -0.005   0.150
  0.070  -0.048   0.137  -0.007  -0.010   0.016  -0.002  -0.003
  0.029  -0.020  -0.007   0.153  -0.005  -0.002   0.021  -0.001
  0.042  -0.028  -0.010  -0.005   0.150  -0.003  -0.001   0.020
 total augmentation occupancy for first ion, spin component:           2
  0.000  -0.000   0.000  -0.000   0.000   0.000  -0.000  -0.000
 -0.000   0.000  -0.000   0.000  -0.000  -0.000   0.000  -0.000
  0.000  -0.000  -0.000  -0.000  -0.000  -0.000   0.000   0.000
 -0.000   0.000  -0.000  -0.000   0.000  -0.000  -0.000   0.000
  0.000  -0.000  -0.000   0.000   0.000  -0.000   0.000   0.000
  0.000  -0.000  -0.000  -0.000  -0.000  -0.000  -0.000  -0.000
 -0.000   0.000   0.000  -0.000   0.000  -0.000  -0.000   0.000
 -0.000  -0.000   0.000   0.000   0.000  -0.000   0.000   0.000


------------------------ aborting loop because EDIFF is reached ----------------------------------------


 


 total charge     
 
# of ion       s       p       d       tot
------------------------------------------
    1        0.821   1.557   0.000   2.378
    2        0.838   1.585   0.000   2.423
    3        0.875   1.720   0.000   2.594
    4        1.757   4.414   0.000   6.171
    5        1.757   4.412   0.000   6.169
    6        1.757   4.414   0.000   6.171
    7        1.755   4.404   0.000   6.159
    8        1.755   4.404   0.000   6.158
    9        1.585   3.596   0.000   5.181
   10        1.585   3.595   0.000   5.181
--------------------------------------------------
tot         14.485  34.100   0.000  48.586
 


 magnetization (x)
 
# of ion       s       p       d       tot
------------------------------------------
    1        0.000  -0.000   0.000  -0.000
    2       -0.000   0.000   0.000   0.000
    3       -0.000   0.000   0.000   0.000
    4       -0.000  -0.000   0.000  -0.000
    5        0.000   0.000   0.000   0.000
    6       -0.000  -0.000   0.000  -0.000
    7       -0.000  -0.000   0.000  -0.000
    8       -0.000  -0.000   0.000  -0.000
    9        0.000  -0.000   0.000  -0.000
   10        0.000  -0.000   0.000  -0.000
--------------------------------------------------
tot         -0.000   0.000   0.000   0.000
 
    CHARGE:  cpu time    0.5685: real time    0.5694
    FORLOC:  cpu time    0.0831: real time    0.0833
    FORNL :  cpu time    1.5140: real time    1.5164
    STRESS:  cpu time   70.9604: real time   71.0734
    FORCOR:  cpu time   24.5509: real time   24.6024
    FORHAR:  cpu time    0.2867: real time    0.2872
    MIXING:  cpu time    0.0426: real time    0.0426
    OFIELD:  cpu time    0.0001: real time    0.0001

  FORCE on cell =-STRESS in cart. coord.  units (eV):
  Direction    XX          YY          ZZ          XY          YZ          ZX
  --------------------------------------------------------------------------------------
  Alpha Z     1.05786     1.05786     1.05786
  Ewald    1756.91424  2453.06999  2037.69825  -181.37258   -56.80285  -229.34674
  Hartree  3170.26560  3946.62865  3280.98916  -113.49718     8.62755   -89.80573
  E(xc)    -323.78950  -322.63830  -323.85442    -0.40145    -0.09911     0.00524
  Local   -5723.06348 -7242.27451 -6083.04796   288.59225    36.37035   293.69348
  n-local  -247.63966  -250.77996  -249.80834     2.27237     1.19364     1.93158
  augment   105.04501   110.87854   102.84275     0.55516     1.15172     1.84925
  Kinetic  1261.63158  1304.02086  1233.83033     4.53748     9.99002    22.30040
  Fock        0.00000     0.00000     0.00000     0.00000     0.00000     0.00000
  -------------------------------------------------------------------------------------
  Total       0.42166    -0.03688    -0.29238     0.68606     0.43133     0.62748
  in kB       0.05190    -0.00454    -0.03599     0.08445     0.05309     0.07724
  external pressure =        0.00 kB  Pullay stress =        0.00 kB


 VOLUME and BASIS-vectors are now :
 -----------------------------------------------------------------------------
  energy-cutoff  :      550.00
  volume of cell :    13016.31
      direct lattice vectors                 reciprocal lattice vectors
    23.165353660  0.000000000  0.000000000     0.043167914  0.000000000  0.000000000
     0.000000000 24.224979010  0.000000000     0.000000000  0.041279706  0.000000000
     0.000000000  0.000000000 23.194534600     0.000000000  0.000000000  0.043113605

  length of vectors
    23.165353660 24.224979010 23.194534600     0.043167914  0.041279706  0.043113605


 FORCES acting on ions
    electron-ion (+dipol)            ewald-force                    non-local-force                 convergence-correction
 -----------------------------------------------------------------------------------------------
   -.244E+02 -.643E+02 -.194E+02   0.191E+02 0.533E+02 0.155E+02   0.523E+01 0.887E+01 0.367E+01   0.340E-02 0.411E-03 0.213E-02
   0.144E+02 0.815E+02 0.156E+02   -.352E+01 -.889E+02 -.104E+02   -.101E+02 0.581E+01 -.495E+01   0.507E-02 -.745E-02 0.196E-02
   -.233E+02 0.145E+03 0.116E+01   0.235E+02 -.147E+03 -.115E+01   0.790E+00 -.597E+00 0.374E+00   -.307E-02 -.801E-02 -.237E-02
   -.567E+03 -.211E+03 0.204E+03   0.618E+03 0.214E+03 -.229E+03   -.512E+02 -.637E+01 0.248E+02   0.168E-01 0.256E-01 -.455E-02
   0.254E+03 -.600E+03 0.749E+02   -.285E+03 0.643E+03 -.868E+02   0.304E+02 -.463E+02 0.115E+02   -.186E-01 0.426E-01 -.602E-03
   -.133E+03 -.130E+03 -.610E+03   0.141E+03 0.125E+03 0.666E+03   -.784E+01 0.185E+01 -.568E+02   0.785E-02 0.224E-01 0.215E-01
   0.598E+03 0.785E+02 -.176E+03   -.644E+03 -.826E+02 0.199E+03   0.476E+02 0.157E+01 -.220E+02   0.430E-01 -.245E-01 0.300E-01
   0.172E+03 0.325E+01 0.604E+03   -.178E+03 -.204E+00 -.656E+03   0.731E+01 -.545E+01 0.517E+02   0.516E-01 -.237E-01 0.198E-01
   -.312E+03 0.311E+03 0.272E+03   0.346E+03 -.328E+03 -.309E+03   -.320E+02 0.140E+02 0.362E+02   -.150E-01 -.187E-01 -.988E-02
   0.266E+02 0.367E+03 -.365E+03   -.367E+02 -.389E+03 0.411E+03   0.108E+02 0.208E+02 -.445E+02   -.102E-01 -.200E-01 -.158E-01
 -----------------------------------------------------------------------------------------------
   -.107E+01 0.582E+01 -.106E-01   0.568E-13 0.114E-12 0.000E+00   0.999E+00 -.581E+01 -.315E-01   0.810E-01 -.113E-01 0.422E-01
 
 
 POSITION                                       TOTAL-FORCE (eV/Angst)
 -----------------------------------------------------------------------------------
     11.96222     13.10615     11.85979        -0.005751     -0.005762     -0.005306
     11.25821     11.84125     11.35554        -0.012907      0.006114     -0.006888
     12.03102     10.51740     11.65295        -0.001727      0.009105      0.009503
     13.16452     13.25145     11.27557         0.003485     -0.005883     -0.005123
     11.23267     14.20590     11.58260         0.013102      0.008927      0.006085
     12.14516     13.05940     13.19078        -0.003755     -0.006009      0.004437
     10.01373     11.84389     11.93071         0.001416     -0.003629     -0.002629
     11.06238     12.02781     10.01133         0.001402     -0.002445      0.003671
     12.82495     10.17154     10.75863         0.001014     -0.002619      0.003269
     11.76518     10.00485     12.75614         0.003720      0.002201     -0.007019
 -----------------------------------------------------------------------------------
    total drift:                                0.013799     -0.000473      0.000082


--------------------------------------------------------------------------------------------------------



  FREE ENERGIE OF THE ION-ELECTRON SYSTEM (eV)
  ---------------------------------------------------
  free  energy   TOTEN  =       -77.71796882 eV

  energy  without entropy=      -77.71796882  energy(sigma->0) =      -77.71796882
 
 d Force = 0.4902343E-04[-0.218E-05, 0.100E-03]  d Energy = 0.7437196E-04-0.253E-04
 d Force =-0.4731702E+00[-0.473E+00,-0.473E+00]  d Ewald  =-0.4731699E+00-0.233E-06


--------------------------------------------------------------------------------------------------------


    POTLOK:  cpu time   65.0817: real time   65.2002


--------------------------------------------------------------------------------------------------------


 Conjugate gradient step on ions:
 trial-energy change:   -0.000074  1 .order   -0.000049   -0.000100    0.000002
  (g-gl).g = 0.156E-03      g.g   = 0.166E-03  gl.gl    = 0.206E-03
 g(Force)  = 0.166E-03   g(Stress)= 0.000E+00 ortho     = 0.413E-06
 gamma     =   0.76010
 trial     =   0.60267
 opt step  =   0.58985  (harmonic =   0.58985) maximal distance =0.00058309
 next E    =   -77.717943   (d E  =  -0.00005)


--------------------------------------------------------------------------------------------------------


  
 reached required accuracy - stopping structural energy minimisation
 writing wavefunctions
     LOOP+:  cpu time  434.5089: real time  436.4671
    4ORBIT:  cpu time    0.0000: real time    0.0000
 


 total charge     
 
# of ion       s       p       d       tot
------------------------------------------
    1        0.821   1.557   0.000   2.378
    2        0.838   1.585   0.000   2.423
    3        0.875   1.720   0.000   2.594
    4        1.757   4.414   0.000   6.171
    5        1.757   4.412   0.000   6.169
    6        1.757   4.414   0.000   6.171
    7        1.755   4.404   0.000   6.159
    8        1.755   4.404   0.000   6.158
    9        1.585   3.596   0.000   5.181
   10        1.585   3.595   0.000   5.181
--------------------------------------------------
tot         14.485  34.100   0.000  48.586
 


 magnetization (x)
 
# of ion       s       p       d       tot
------------------------------------------
    1        0.000  -0.000   0.000  -0.000
    2       -0.000   0.000   0.000   0.000
    3       -0.000   0.000   0.000   0.000
    4       -0.000  -0.000   0.000  -0.000
    5        0.000   0.000   0.000   0.000
    6       -0.000  -0.000   0.000  -0.000
    7       -0.000  -0.000   0.000  -0.000
    8       -0.000  -0.000   0.000  -0.000
    9        0.000  -0.000   0.000  -0.000
   10        0.000  -0.000   0.000  -0.000
--------------------------------------------------
tot         -0.000   0.000   0.000   0.000
 

 total amount of memory used by VASP MPI-rank0   284249. kBytes
=======================================================================

   base      :      30000. kBytes
   nonlr-proj:        761. kBytes
   fftplans  :      51995. kBytes
   grid      :     190297. kBytes
   one-center:          6. kBytes
   wavefun   :      11190. kBytes
 
  
  
 General timing and accounting informations for this job:
 ========================================================
  
                  Total CPU time used (sec):    17019.932
                            User time (sec):    16093.102
                          System time (sec):      926.830
                         Elapsed time (sec):    17074.731
  
                   Maximum memory used (kb):     1305240.
                   Average memory used (kb):           0.
  
                          Minor page faults:      7539552
                          Major page faults:          171
                 Voluntary context switches:       181935
