 vasp.5.4.4.18Apr17-6-g9f103f2a35 (build May 01 2020 14:57:12) complex          
  
 executed on             LinuxIFC date 2020.10.08  18:07:00
 running on   72 total cores
 distrk:  each k-point on   24 cores,    3 groups
 distr:  one band on NCORES_PER_BAND=   1 cores,   24 groups


--------------------------------------------------------------------------------------------------------


 INCAR:
 POTCAR:    PAW_PBE B 06Sep2000                   
 POTCAR:    PAW_PBE N 08Apr2002                   
 POTCAR:    PAW_PBE C 08Apr2002                   
 POTCAR:    PAW_PBE F 08Apr2002                   
 POTCAR:    PAW_PBE O 08Apr2002                   

 ----------------------------------------------------------------------------- 
|                                                                             |
|           W    W    AA    RRRRR   N    N  II  N    N   GGGG   !!!           |
|           W    W   A  A   R    R  NN   N  II  NN   N  G    G  !!!           |
|           W    W  A    A  R    R  N N  N  II  N N  N  G       !!!           |
|           W WW W  AAAAAA  RRRRR   N  N N  II  N  N N  G  GGG   !            |
|           WW  WW  A    A  R   R   N   NN  II  N   NN  G    G                |
|           W    W  A    A  R    R  N    N  II  N    N   GGGG   !!!           |
|                                                                             |
|      For optimal performance we recommend to set                            |
|        NCORE= 4 - approx SQRT( number of cores)                             |
|      NCORE specifies how many cores store one orbital (NPAR=cpu/NCORE).     |
|      This setting can  greatly improve the performance of VASP for DFT.     |
|      The default,   NCORE=1            might be grossly inefficient         |
|      on modern multi-core architectures or massively parallel machines.     |
|      Do your own testing !!!!                                               |
|      Unfortunately you need to use the default for GW and RPA calculations. |
|      (for HF NCORE is supported but not extensively tested yet)             |
|                                                                             |
 ----------------------------------------------------------------------------- 


 ----------------------------------------------------------------------------- 
|                                                                             |
|           W    W    AA    RRRRR   N    N  II  N    N   GGGG   !!!           |
|           W    W   A  A   R    R  NN   N  II  NN   N  G    G  !!!           |
|           W    W  A    A  R    R  N N  N  II  N N  N  G       !!!           |
|           W WW W  AAAAAA  RRRRR   N  N N  II  N  N N  G  GGG   !            |
|           WW  WW  A    A  R   R   N   NN  II  N   NN  G    G                |
|           W    W  A    A  R    R  N    N  II  N    N   GGGG   !!!           |
|                                                                             |
|      You have enabled k-point parallelism (KPAR>1).                         |
|      This developmental code was originally  written by Paul Kent at ORNL,  |
|      and carefully double checked in Vienna.                                |
|      GW as well as linear response parallelism added by Martijn Marsman     |
|      and Georg Kresse.                                                      |
|      Carefully verify results versus KPAR=1.                                |
|      Report problems to Paul Kent and Vienna.                               |
|                                                                             |
 ----------------------------------------------------------------------------- 

 POTCAR:    PAW_PBE B 06Sep2000                   
   VRHFIN =B: s2p1                                                              
   LEXCH  = PE                                                                  
   EATOM  =    71.1703 eV,    5.2309 Ry                                         
                                                                                
   TITEL  = PAW_PBE B 06Sep2000                                                 
   LULTRA =        F    use ultrasoft PP ?                                      
   IUNSCR =        1    unscreen: 0-lin 1-nonlin 2-no                           
   RPACOR =    1.200    partial core radius                                     
   POMASS =   10.811; ZVAL   =    3.000    mass and valenz                      
   RCORE  =    1.700    outmost cutoff radius                                   
   RWIGS  =    1.710; RWIGS  =    0.905    wigner-seitz radius (au A)           
   ENMAX  =  318.614; ENMIN  =  238.960 eV                                      
   ICORE  =        2    local potential                                         
   LCOR   =        T    correct aug charges                                     
   LPAW   =        T    paw PP                                                  
   EAUG   =  535.514                                                            
   DEXC   =    0.000                                                            
   RMAX   =    1.732    core radius for proj-oper                               
   RAUG   =    1.300    factor for augmentation sphere                          
   RDEP   =    1.757    radius for radial grids                                 
   RDEPT  =    1.436    core radius for aug-charge                              
                                                                                
   Atomic configuration                                                         
    4 entries                                                                   
     n  l   j            E        occ.                                          
     1  0  0.50      -180.5896   2.0000                                         
     2  0  0.50        -9.4431   2.0000                                         
     2  1  0.50        -3.6068   1.0000                                         
     3  2  1.50        -4.0817   0.0000                                         
   Description                                                                  
     l       E           TYP  RCUT    TYP  RCUT                                 
     0     -9.4430752     23  1.500                                             
     0      0.8675899     23  1.500                                             
     1     -3.6067955     23  1.700                                             
     1      6.1086146     23  1.700                                             
     2     -4.0817478      7  1.700                                             
  local pseudopotential read in
  partial core-charges read in
  partial kinetic energy density read in
  atomic valenz-charges read in
  non local Contribution for L=           0  read in
    real space projection operators read in
  non local Contribution for L=           0  read in
    real space projection operators read in
  non local Contribution for L=           1  read in
    real space projection operators read in
  non local Contribution for L=           1  read in
    real space projection operators read in
    PAW grid and wavefunctions read in
 
   number of l-projection  operators is LMAX  =           4
   number of lm-projection operators is LMMAX =           8
 
 POTCAR:    PAW_PBE N 08Apr2002                   
   VRHFIN =N: s2p3                                                              
   LEXCH  = PE                                                                  
   EATOM  =   264.5486 eV,   19.4438 Ry                                         
                                                                                
   TITEL  = PAW_PBE N 08Apr2002                                                 
   LULTRA =        F    use ultrasoft PP ?                                      
   IUNSCR =        1    unscreen: 0-lin 1-nonlin 2-no                           
   RPACOR =    1.200    partial core radius                                     
   POMASS =   14.001; ZVAL   =    5.000    mass and valenz                      
   RCORE  =    1.500    outmost cutoff radius                                   
   RWIGS  =    1.400; RWIGS  =    0.741    wigner-seitz radius (au A)           
   ENMAX  =  400.000; ENMIN  =  300.000 eV                                      
   ICORE  =        2    local potential                                         
   LCOR   =        T    correct aug charges                                     
   LPAW   =        T    paw PP                                                  
   EAUG   =  627.112                                                            
   DEXC   =    0.000                                                            
   RMAX   =    1.529    core radius for proj-oper                               
   RAUG   =    1.300    factor for augmentation sphere                          
   RDEP   =    1.514    radius for radial grids                                 
   RDEPT  =    1.338    core radius for aug-charge                              
                                                                                
   Atomic configuration                                                         
    4 entries                                                                   
     n  l   j            E        occ.                                          
     1  0  0.50      -384.7179   2.0000                                         
     2  0  0.50       -18.5828   2.0000                                         
     2  1  0.50        -7.0898   3.0000                                         
     3  2  1.50        -6.8029   0.0000                                         
   Description                                                                  
     l       E           TYP  RCUT    TYP  RCUT                                 
     0    -18.5828119     23  1.200                                             
     0    -13.5018863     23  1.200                                             
     1     -7.0897853     23  1.500                                             
     1      9.5240782     23  1.500                                             
     2     -6.8029130      7  1.500                                             
  local pseudopotential read in
  partial core-charges read in
  partial kinetic energy density read in
  atomic valenz-charges read in
  non local Contribution for L=           0  read in
    real space projection operators read in
  non local Contribution for L=           0  read in
    real space projection operators read in
  non local Contribution for L=           1  read in
    real space projection operators read in
  non local Contribution for L=           1  read in
    real space projection operators read in
    PAW grid and wavefunctions read in
 
   number of l-projection  operators is LMAX  =           4
   number of lm-projection operators is LMMAX =           8
 
 POTCAR:    PAW_PBE C 08Apr2002                   
   VRHFIN =C: s2p2                                                              
   LEXCH  = PE                                                                  
   EATOM  =   147.1560 eV,   10.8157 Ry                                         
                                                                                
   TITEL  = PAW_PBE C 08Apr2002                                                 
   LULTRA =        F    use ultrasoft PP ?                                      
   IUNSCR =        1    unscreen: 0-lin 1-nonlin 2-no                           
   RPACOR =    1.200    partial core radius                                     
   POMASS =   12.011; ZVAL   =    4.000    mass and valenz                      
   RCORE  =    1.500    outmost cutoff radius                                   
   RWIGS  =    1.630; RWIGS  =    0.863    wigner-seitz radius (au A)           
   ENMAX  =  400.000; ENMIN  =  300.000 eV                                      
   ICORE  =        2    local potential                                         
   LCOR   =        T    correct aug charges                                     
   LPAW   =        T    paw PP                                                  
   EAUG   =  644.873                                                            
   DEXC   =    0.000                                                            
   RMAX   =    1.529    core radius for proj-oper                               
   RAUG   =    1.300    factor for augmentation sphere                          
   RDEP   =    1.501    radius for radial grids                                 
   RDEPT  =    1.300    core radius for aug-charge                              
                                                                                
   Atomic configuration                                                         
    4 entries                                                                   
     n  l   j            E        occ.                                          
     1  0  0.50      -273.3789   2.0000                                         
     2  0  0.50       -13.7508   2.0000                                         
     2  1  0.50        -5.2854   2.0000                                         
     3  2  1.50        -5.4423   0.0000                                         
   Description                                                                  
     l       E           TYP  RCUT    TYP  RCUT                                 
     0    -13.7508458     23  1.200                                             
     0     -8.2022199     23  1.200                                             
     1     -5.2854383     23  1.500                                             
     1     34.0145650     23  1.500                                             
     2     -5.4423304      7  1.500                                             
  local pseudopotential read in
  partial core-charges read in
  partial kinetic energy density read in
  atomic valenz-charges read in
  non local Contribution for L=           0  read in
    real space projection operators read in
  non local Contribution for L=           0  read in
    real space projection operators read in
  non local Contribution for L=           1  read in
    real space projection operators read in
  non local Contribution for L=           1  read in
    real space projection operators read in
    PAW grid and wavefunctions read in
 
   number of l-projection  operators is LMAX  =           4
   number of lm-projection operators is LMMAX =           8
 
 POTCAR:    PAW_PBE F 08Apr2002                   
   VRHFIN =F: s2p5                                                              
   LEXCH  = PE                                                                  
   EATOM  =   659.6475 eV,   48.4827 Ry                                         
                                                                                
   TITEL  = PAW_PBE F 08Apr2002                                                 
   LULTRA =        F    use ultrasoft PP ?                                      
   IUNSCR =        1    unscreen: 0-lin 1-nonlin 2-no                           
   RPACOR =    1.200    partial core radius                                     
   POMASS =   18.998; ZVAL   =    7.000    mass and valenz                      
   RCORE  =    1.520    outmost cutoff radius                                   
   RWIGS  =    1.500; RWIGS  =    0.794    wigner-seitz radius (au A)           
   ENMAX  =  400.000; ENMIN  =  300.000 eV                                      
   ICORE  =        2    local potential                                         
   LCOR   =        T    correct aug charges                                     
   LPAW   =        T    paw PP                                                  
   EAUG   =  613.614                                                            
   RMAX   =    1.555    core radius for proj-oper                               
   RAUG   =    1.300    factor for augmentation sphere                          
   RDEP   =    1.539    radius for radial grids                                 
   RDEPT  =    1.299    core radius for aug-charge                              
                                                                                
   Atomic configuration                                                         
    4 entries                                                                   
     n  l   j            E        occ.                                          
     1  0  0.50      -663.3661   2.0000                                         
     2  0  0.50       -29.8995   2.0000                                         
     2  1  0.50       -11.1114   5.0000                                         
     3  2  1.50       -10.8847   0.0000                                         
   Description                                                                  
     l       E           TYP  RCUT    TYP  RCUT                                 
     0    -29.8995018     23  1.200                                             
     0     -9.5240782     23  1.200                                             
     1    -11.1113914     23  1.520                                             
     1      1.3605826     23  1.520                                             
     2    -10.8846608      7  1.500                                             
  local pseudopotential read in
  partial core-charges read in
  partial kinetic energy density read in
  atomic valenz-charges read in
  non local Contribution for L=           0  read in
    real space projection operators read in
  non local Contribution for L=           0  read in
    real space projection operators read in
  non local Contribution for L=           1  read in
    real space projection operators read in
  non local Contribution for L=           1  read in
    real space projection operators read in
    PAW grid and wavefunctions read in
 
   number of l-projection  operators is LMAX  =           4
   number of lm-projection operators is LMMAX =           8
 
 POTCAR:    PAW_PBE O 08Apr2002                   
   VRHFIN =O: s2p4                                                              
   LEXCH  = PE                                                                  
   EATOM  =   432.3788 eV,   31.7789 Ry                                         
                                                                                
   TITEL  = PAW_PBE O 08Apr2002                                                 
   LULTRA =        F    use ultrasoft PP ?                                      
   IUNSCR =        1    unscreen: 0-lin 1-nonlin 2-no                           
   RPACOR =    1.200    partial core radius                                     
   POMASS =   16.000; ZVAL   =    6.000    mass and valenz                      
   RCORE  =    1.520    outmost cutoff radius                                   
   RWIGS  =    1.550; RWIGS  =    0.820    wigner-seitz radius (au A)           
   ENMAX  =  400.000; ENMIN  =  300.000 eV                                      
   ICORE  =        2    local potential                                         
   LCOR   =        T    correct aug charges                                     
   LPAW   =        T    paw PP                                                  
   EAUG   =  605.392                                                            
   DEXC   =    0.000                                                            
   RMAX   =    1.553    core radius for proj-oper                               
   RAUG   =    1.300    factor for augmentation sphere                          
   RDEP   =    1.550    radius for radial grids                                 
   RDEPT  =    1.329    core radius for aug-charge                              
                                                                                
   Atomic configuration                                                         
    4 entries                                                                   
     n  l   j            E        occ.                                          
     1  0  0.50      -514.6923   2.0000                                         
     2  0  0.50       -23.9615   2.0000                                         
     2  1  0.50        -9.0305   4.0000                                         
     3  2  1.50        -9.5241   0.0000                                         
   Description                                                                  
     l       E           TYP  RCUT    TYP  RCUT                                 
     0    -23.9615318     23  1.200                                             
     0     -9.5240782     23  1.200                                             
     1     -9.0304911     23  1.520                                             
     1      8.1634956     23  1.520                                             
     2     -9.5240782      7  1.500                                             
  local pseudopotential read in
  partial core-charges read in
  partial kinetic energy density read in
  kinetic energy density of atom read in
  atomic valenz-charges read in
  non local Contribution for L=           0  read in
    real space projection operators read in
  non local Contribution for L=           0  read in
    real space projection operators read in
  non local Contribution for L=           1  read in
    real space projection operators read in
  non local Contribution for L=           1  read in
    real space projection operators read in
    PAW grid and wavefunctions read in
 
   number of l-projection  operators is LMAX  =           4
   number of lm-projection operators is LMMAX =           8
 
 Optimization of the real space projectors (new method)

 maximal supplied QI-value         = 22.11
 optimisation between [QCUT,QGAM] = [ 11.94, 23.88] = [ 39.92,159.67] Ry 
 Optimized for a Real-space Cutoff    1.18 Angstroem

   l    n(q)    QCUT    max X(q) W(low)/X(q) W(high)/X(q)  e(spline) 
   0      8    11.939    53.033    0.11E-03    0.34E-03    0.60E-07
   0      8    11.939    34.740    0.11E-03    0.34E-03    0.59E-07
   1      8    11.939    30.949    0.22E-03    0.20E-03    0.17E-06
   1      8    11.939    19.518    0.20E-03    0.18E-03    0.16E-06
 Optimization of the real space projectors (new method)

 maximal supplied QI-value         = 25.13
 optimisation between [QCUT,QGAM] = [ 11.81, 23.88] = [ 39.08,159.64] Ry 
 Optimized for a Real-space Cutoff    1.41 Angstroem

   l    n(q)    QCUT    max X(q) W(low)/X(q) W(high)/X(q)  e(spline) 
   0     10    11.813    79.467    0.48E-04    0.30E-04    0.67E-06
   0     10    11.813    66.151    0.47E-04    0.30E-04    0.67E-06
   1     10    11.813    20.169    0.11E-03    0.17E-03    0.11E-05
   1     10    11.813    14.454    0.11E-03    0.17E-03    0.11E-05
 Optimization of the real space projectors (new method)

 maximal supplied QI-value         = 25.13
 optimisation between [QCUT,QGAM] = [ 11.81, 23.88] = [ 39.08,159.64] Ry 
 Optimized for a Real-space Cutoff    1.18 Angstroem

   l    n(q)    QCUT    max X(q) W(low)/X(q) W(high)/X(q)  e(spline) 
   0      8    11.813   115.676    0.10E-03    0.16E-03    0.35E-06
   0      8    11.813    87.132    0.10E-03    0.16E-03    0.35E-06
   1      8    11.813     4.429    0.16E-03    0.13E-04    0.22E-06
   1      8    11.813     2.733    0.13E-03    0.10E-04    0.18E-06
 Optimization of the real space projectors (new method)

 maximal supplied QI-value         = 24.76
 optimisation between [QCUT,QGAM] = [ 11.88, 24.01] = [ 39.54,161.47] Ry 
 Optimized for a Real-space Cutoff    1.18 Angstroem

   l    n(q)    QCUT    max X(q) W(low)/X(q) W(high)/X(q)  e(spline) 
   0      8    11.883    14.049    0.56E-04    0.86E-04    0.22E-06
   0      8    11.883     8.945    0.81E-04    0.11E-03    0.30E-06
   1      8    11.883     7.086    0.16E-03    0.15E-04    0.31E-06
   1      8    11.883     6.747    0.15E-03    0.14E-04    0.28E-06
 Optimization of the real space projectors (new method)

 maximal supplied QI-value         = 24.76
 optimisation between [QCUT,QGAM] = [ 11.88, 24.01] = [ 39.54,161.47] Ry 
 Optimized for a Real-space Cutoff    1.18 Angstroem

   l    n(q)    QCUT    max X(q) W(low)/X(q) W(high)/X(q)  e(spline) 
   0      8    11.883    20.381    0.86E-04    0.11E-03    0.31E-06
   0      8    11.883    15.268    0.94E-04    0.12E-03    0.33E-06
   1      8    11.883     5.964    0.19E-03    0.18E-04    0.33E-06
   1      8    11.883     5.382    0.17E-03    0.20E-04    0.29E-06
  PAW_PBE B 06Sep2000                   :
 energy of atom  1       EATOM=  -71.1703
 kinetic energy error for atom=    0.0009 (will be added to EATOM!!)
  PAW_PBE N 08Apr2002                   :
 energy of atom  2       EATOM= -264.5486
 kinetic energy error for atom=    0.0116 (will be added to EATOM!!)
  PAW_PBE C 08Apr2002                   :
 energy of atom  3       EATOM= -147.1560
 kinetic energy error for atom=    0.0066 (will be added to EATOM!!)
  PAW_PBE F 08Apr2002                   :
 energy of atom  4       EATOM= -659.6475
 kinetic energy error for atom=    0.0296 (will be added to EATOM!!)
  PAW_PBE O 08Apr2002                   :
 energy of atom  5       EATOM= -432.3788
 kinetic energy error for atom=    0.0194 (will be added to EATOM!!)
 
 
 POSCAR: B N C F O                               
  positions in direct lattice
  velocities in cartesian coordinates

 METAGGA = SCAN     LMAXTAU =  6    LMIXTAU =  F

 exchange correlation table for  LEXCH =        8
   RHO(1)=    0.500       N(1)  =     2000
   RHO(2)=  100.500       N(2)  =     4000
 


--------------------------------------------------------------------------------------------------------


 ion  position               nearest neighbor table
   1  0.083  0.042  0.502-  65 1.45  72 1.45  73 1.45
   2  0.083  0.167  0.502-  66 1.45  65 1.45  74 1.45
   3  0.083  0.292  0.501-  75 1.45  66 1.45  67 1.45
   4  0.083  0.417  0.502-  67 1.45  76 1.45  68 1.45
   5  0.083  0.542  0.502-  77 1.45  68 1.45  69 1.45
   6  0.083  0.667  0.502-  69 1.45  78 1.45  70 1.45
   7  0.083  0.792  0.502-  79 1.45  70 1.45  71 1.45
   8  0.083  0.917  0.502-  72 1.45  80 1.45  71 1.45
   9  0.208  0.042  0.502-  81 1.45  80 1.45  73 1.45
  10  0.208  0.167  0.502-  73 1.45  74 1.45  82 1.45
  11  0.208  0.292  0.502-  75 1.45  83 1.45  74 1.45
  12  0.208  0.417  0.501-  75 1.45  84 1.45  76 1.45
  13  0.208  0.542  0.502-  76 1.45  85 1.45  77 1.45
  14  0.208  0.667  0.502-  77 1.45  86 1.45  78 1.45
  15  0.208  0.792  0.502-  78 1.45  87 1.45  79 1.45
  16  0.208  0.917  0.502-  88 1.45  79 1.45  80 1.45
  17  0.333  0.042  0.502-  89 1.45  88 1.45  81 1.45
  18  0.333  0.167  0.502-  90 1.45  81 1.45  82 1.45
  19  0.333  0.292  0.502-  83 1.45  91 1.45  82 1.45
  20  0.333  0.417  0.502-  84 1.45  92 1.45  83 1.45
  21  0.333  0.542  0.501-  84 1.45  93 1.45  85 1.45
  22  0.333  0.667  0.502-  85 1.45  94 1.45  86 1.45
  23  0.333  0.792  0.502-  86 1.45  95 1.45  87 1.45
  24  0.333  0.917  0.502-  87 1.45  96 1.45  88 1.45
  25  0.458  0.042  0.502-  96 1.45  97 1.45  89 1.45
  26  0.458  0.167  0.502-  98 1.45  89 1.45  90 1.45
  27  0.458  0.292  0.502-  99 1.45  91 1.45  90 1.45
  28  0.458  0.417  0.502-  92 1.45  91 1.45 100 1.45
  29  0.458  0.542  0.502-  92 1.45  93 1.45 101 1.45
  30  0.458  0.667  0.502-  93 1.45 102 1.45  94 1.45
  31  0.458  0.792  0.502-  94 1.45 103 1.45  95 1.45
  32  0.458  0.917  0.502-  95 1.45 104 1.45  96 1.45
  33  0.583  0.042  0.502- 104 1.45  97 1.45 105 1.45
  34  0.583  0.167  0.502-  97 1.45 106 1.45  98 1.45
  35  0.583  0.292  0.502- 107 1.45  99 1.45  98 1.45
  36  0.583  0.417  0.502-  99 1.45 100 1.45 108 1.45
  37  0.583  0.542  0.502- 100 1.45 101 1.45 109 1.45
  38  0.583  0.667  0.502- 101 1.45 102 1.45 110 1.45
  39  0.583  0.792  0.502- 102 1.45 111 1.45 103 1.45
  40  0.583  0.917  0.502- 103 1.45 112 1.45 104 1.45
  41  0.708  0.042  0.502- 112 1.45 105 1.45 113 1.45
  42  0.708  0.167  0.502- 105 1.45 106 1.45 114 1.45
  43  0.708  0.292  0.502- 106 1.45 115 1.45 107 1.45
  44  0.708  0.417  0.502- 107 1.45 116 1.45 108 1.45
  45  0.708  0.542  0.502- 117 1.45 108 1.45 109 1.45
  46  0.708  0.667  0.502- 109 1.45 118 1.45 110 1.45
  47  0.708  0.792  0.502- 110 1.45 119 1.45 111 1.45
  48  0.708  0.917  0.502- 111 1.45 120 1.45 112 1.45
  49  0.833  0.042  0.502- 121 1.45 120 1.45 113 1.45
  50  0.833  0.167  0.502- 122 1.45 113 1.45 114 1.45
  51  0.833  0.292  0.502- 114 1.45 115 1.45 123 1.45
  52  0.833  0.417  0.502- 115 1.45 116 1.45 124 1.45
  53  0.833  0.542  0.502- 116 1.45 125 1.45 117 1.45
  54  0.833  0.667  0.502- 117 1.45 126 1.45 118 1.45
  55  0.833  0.792  0.502- 127 1.45 118 1.45 119 1.45
  56  0.833  0.917  0.502- 119 1.45 128 1.45 120 1.45
  57  0.958  0.042  0.502-  65 1.45 121 1.45 128 1.45
  58  0.958  0.167  0.502-  66 1.45 121 1.45 122 1.45
  59  0.958  0.292  0.502-  67 1.45 122 1.45 123 1.45
  60  0.958  0.417  0.502- 124 1.45  68 1.45 123 1.45
  61  0.958  0.542  0.502- 124 1.45 125 1.45  69 1.45
  62  0.958  0.667  0.502- 125 1.45  70 1.45 126 1.45
  63  0.958  0.792  0.502- 127 1.45  71 1.45 126 1.45
  64  0.958  0.917  0.502-  72 1.45 128 1.45 127 1.45
  65  0.042  0.083  0.502-   1 1.45  57 1.45   2 1.45
  66  0.042  0.208  0.502-   2 1.45  58 1.45   3 1.45
  67  0.042  0.333  0.501-  59 1.45   4 1.45   3 1.45
  68  0.042  0.458  0.502-   5 1.45  60 1.45   4 1.45
  69  0.042  0.583  0.502-   6 1.45   5 1.45  61 1.45
  70  0.042  0.708  0.502-  62 1.45   7 1.45   6 1.45
  71  0.042  0.833  0.502-  63 1.45   7 1.45   8 1.45
  72  0.042  0.958  0.502-   1 1.45  64 1.45   8 1.45
  73  0.167  0.083  0.502-  10 1.45   1 1.45   9 1.45
  74  0.167  0.208  0.502-  10 1.45   2 1.45  11 1.45
  75  0.167  0.333  0.501-  11 1.45  12 1.45   3 1.45
  76  0.167  0.458  0.501-  13 1.45   4 1.45  12 1.45
  77  0.167  0.583  0.502-  14 1.45   5 1.45  13 1.45
  78  0.167  0.708  0.502-  15 1.45   6 1.45  14 1.45
  79  0.167  0.833  0.502-   7 1.45  16 1.45  15 1.45
  80  0.167  0.958  0.502-   9 1.45   8 1.45  16 1.45
  81  0.292  0.083  0.502-   9 1.45  18 1.45  17 1.45
  82  0.292  0.208  0.502-  10 1.45  19 1.45  18 1.45
  83  0.292  0.333  0.502-  19 1.45  11 1.45  20 1.45
  84  0.292  0.458  0.501-  21 1.45  20 1.45  12 1.45
  85  0.292  0.583  0.502-  22 1.45  13 1.45  21 1.45
  86  0.292  0.708  0.502-  23 1.45  14 1.45  22 1.45
  87  0.292  0.833  0.502-  24 1.45  15 1.45  23 1.45
  88  0.292  0.958  0.502-  17 1.45  16 1.45  24 1.45
  89  0.417  0.083  0.502-  17 1.45  26 1.45  25 1.45
  90  0.417  0.208  0.502-  18 1.45  27 1.45  26 1.45
  91  0.417  0.333  0.502-  19 1.45  27 1.45  28 1.45
  92  0.417  0.458  0.501-  28 1.45  29 1.45  20 1.45
  93  0.417  0.583  0.501-  30 1.45  29 1.45  21 1.45
  94  0.417  0.708  0.502-  31 1.45  22 1.45  30 1.45
  95  0.417  0.833  0.502-  32 1.45  23 1.45  31 1.45
  96  0.417  0.958  0.502-  25 1.45  24 1.45  32 1.45
  97  0.542  0.083  0.502-  34 1.45  25 1.45  33 1.45
  98  0.542  0.208  0.502-  26 1.45  35 1.45  34 1.45
  99  0.542  0.333  0.502-  27 1.45  36 1.45  35 1.45
 100  0.542  0.458  0.502-  37 1.45  36 1.45  28 1.45
 101  0.542  0.583  0.502-  38 1.45  37 1.45  29 1.45
 102  0.542  0.708  0.502-  39 1.45  38 1.45  30 1.45
 103  0.542  0.833  0.502-  40 1.45  31 1.45  39 1.45
 104  0.542  0.958  0.502-  33 1.45  32 1.45  40 1.45
 105  0.667  0.083  0.502-  42 1.45  41 1.45  33 1.45
 106  0.667  0.208  0.502-  43 1.45  34 1.45  42 1.45
 107  0.667  0.333  0.502-  44 1.45  35 1.45  43 1.45
 108  0.667  0.458  0.502-  45 1.45  44 1.45  36 1.45
 109  0.667  0.583  0.502-  46 1.45  45 1.45  37 1.45
 110  0.667  0.708  0.502-  47 1.45  38 1.45  46 1.45
 111  0.667  0.833  0.502-  48 1.45  39 1.45  47 1.45
 112  0.667  0.958  0.502-  41 1.45  48 1.45  40 1.45
 113  0.792  0.083  0.502-  50 1.45  49 1.45  41 1.45
 114  0.792  0.208  0.502-  51 1.45  50 1.45  42 1.45
 115  0.792  0.333  0.502-  52 1.45  51 1.45  43 1.45
 116  0.792  0.458  0.502-  53 1.45  44 1.45  52 1.45
 117  0.792  0.583  0.502-  45 1.45  54 1.45  53 1.45
 118  0.792  0.708  0.502-  46 1.45  55 1.45  54 1.45
 119  0.792  0.833  0.502-  56 1.45  47 1.45  55 1.45
 120  0.792  0.958  0.502-  49 1.45  48 1.45  56 1.45
 121  0.917  0.083  0.502-  49 1.45  57 1.45  58 1.45
 122  0.917  0.208  0.502-  50 1.45  59 1.45  58 1.45
 123  0.917  0.333  0.502-  51 1.45  59 1.45  60 1.45
 124  0.917  0.458  0.502-  61 1.45  60 1.45  52 1.45
 125  0.917  0.583  0.502-  62 1.45  61 1.45  53 1.45
 126  0.917  0.708  0.502-  54 1.45  62 1.45  63 1.45
 127  0.917  0.833  0.502-  55 1.45  63 1.45  64 1.45
 128  0.917  0.958  0.502-  56 1.45  64 1.45  57 1.45
 129  0.279  0.235  0.675- 132 1.34 134 1.34 133 1.35 130 1.54
 130  0.265  0.237  0.632- 136 1.37 135 1.37 129 1.54 131 1.55
 131  0.257  0.307  0.620- 138 1.25 137 1.25 130 1.55
 132  0.346  0.297  0.686- 129 1.34
 133  0.283  0.172  0.685- 129 1.35
 134  0.222  0.235  0.695- 129 1.34
 135  0.325  0.238  0.614- 130 1.37
 136  0.201  0.169  0.624- 130 1.37
 137  0.318  0.368  0.614- 131 1.25
 138  0.190  0.295  0.617- 131 1.25
 

IMPORTANT INFORMATION: All symmetrisations will be switched off!
NOSYMM: (Re-)initialisation of all symmetry stuff for point group C_1.

 
 
 KPOINTS: K-Point Grid                            

Automatic generation of k-mesh.
Space group operators:
 irot       det(A)        alpha          n_x          n_y          n_z        tau_x        tau_y        tau_z
    1     1.000000     0.000001     1.000000     0.000000     0.000000     0.000000     0.000000     0.000000
 
 Subroutine IBZKPT returns following result:
 ===========================================
 
 Found      6 irreducible k-points:
 
 Following reciprocal coordinates:
            Coordinates               Weight
  0.250000  0.250000  0.000000     16.000000
  0.500000 -0.250000  0.000000     16.000000
  0.250000  0.500000  0.000000     16.000000
 -0.250000  0.250000  0.000000     16.000000
 -0.000000  0.250000  0.000000     16.000000
  0.250000 -0.000000  0.000000     16.000000
 
 Following cartesian coordinates:
            Coordinates               Weight
  0.024879  0.000000  0.000000     16.000000
  0.012439 -0.021546  0.000000     16.000000
  0.037318  0.007182  0.000000     16.000000
  0.000000  0.014364  0.000000     16.000000
  0.012439  0.007182  0.000000     16.000000
  0.012439 -0.007182  0.000000     16.000000
 


--------------------------------------------------------------------------------------------------------




 Dimension of arrays:
   k-points           NKPTS =      6   k-points in BZ     NKDIM =      6   number of bands    NBANDS=    432
   number of dos      NEDOS =   1200   number of ions     NIONS =    138
   non local maximal  LDIM  =      4   non local SUM 2l+1 LMDIM =      8
   total plane-waves  NPLWV = ******
   max r-space proj   IRMAX =   6620   max aug-charges    IRDMAX=   9003
   dimension x,y,z NGX =   160 NGY =  160 NGZ =  270
   dimension x,y,z NGXF=   320 NGYF=  320 NGZF=  540
   support grid    NGXF=   320 NGYF=  320 NGZF=  540
   ions per type =              64  64   3   5   2
   NGX,Y,Z   is equivalent  to a cutoff of  13.24, 13.24, 12.82 a.u.
   NGXF,Y,Z  is equivalent  to a cutoff of  26.47, 26.47, 25.65 a.u.

 SYSTEM =  hBN                                     
 POSCAR =  B N C F O                               

 Startparameter for this run:
   NWRITE =      2    write-flag & timer
   PREC   = accura    normal or accurate (medium, high low for compatibility)
   ISTART =      1    job   : 0-new  1-cont  2-samecut
   ICHARG =      0    charge: 1-file 2-atom 10-const
   ISPIN  =      2    spin polarized calculation?
   LNONCOLLINEAR =      F non collinear calculations
   LSORBIT =      F    spin-orbit coupling
   INIWAV =      1    electr: 0-lowe 1-rand  2-diag
   LASPH  =      T    aspherical Exc in radial PAW
   METAGGA=      F    non-selfconsistent MetaGGA calc.

 Electronic Relaxation 1
   ENCUT  =  550.0 eV  40.42 Ry    6.36 a.u.  38.43 38.43 66.93*2*pi/ulx,y,z
   ENINI  =  550.0     initial cutoff
   ENAUG  =  644.9 eV  augmentation charge cutoff
   NELM   =    500;   NELMIN=  2; NELMDL=  0     # of ELM steps 
   EDIFF  = 0.1E-04   stopping-criterion for ELM
   LREAL  =      T    real-space projection
   NLSPLINE    = F    spline interpolate recip. space projectors
   LCOMPAT=      F    compatible to vasp.4.4
   GGA_COMPAT  = T    GGA compatible to vasp.4.4-vasp.4.6
   LMAXPAW     = -100 max onsite density
   LMAXMIX     =    2 max onsite mixed and CHGCAR
   VOSKOWN=      0    Vosko Wilk Nusair interpolation
   ROPT   =   -0.00025  -0.00025  -0.00025  -0.00025
   ROPT   =   -0.00025
 Ionic relaxation
   EDIFFG = -.2E-01   stopping-criterion for IOM
   NSW    =      0    number of steps for IOM
   NBLOCK =      1;   KBLOCK =      1    inner block; outer block 
   IBRION =     -1    ionic relax: 0-MD 1-quasi-New 2-CG
   NFREE  =      1    steps in history (QN), initial steepest desc. (CG)
   ISIF   =      2    stress and relaxation
   IWAVPR =     10    prediction:  0-non 1-charg 2-wave 3-comb
   ISYM   =      0    0-nonsym 1-usesym 2-fastsym
   LCORR  =      T    Harris-Foulkes like correction to forces

   POTIM  = 0.5000    time-step for ionic-motion
   TEIN   =    0.0    initial temperature
   TEBEG  =    0.0;   TEEND  =   0.0 temperature during run
   SMASS  =  -3.00    Nose mass-parameter (am)
   estimated Nose-frequenzy (Omega)   =  0.10E-29 period in steps =****** mass=  -0.923E-26a.u.
   SCALEE = 1.0000    scale energy and forces
   NPACO  =    256;   APACO  = 16.0  distance and # of slots for P.C.
   PSTRESS=    0.0 pullay stress

  Mass of Ions in am
   POMASS =  10.81 14.00 12.01 19.00 16.00
  Ionic Valenz
   ZVAL   =   3.00  5.00  4.00  7.00  6.00
  Atomic Wigner-Seitz radii
   RWIGS  =  -1.00 -1.00 -1.00 -1.00 -1.00
  virtual crystal weights 
   VCA    =   1.00  1.00  1.00  1.00  1.00
   NELECT =     570.0000    total number of electrons
   NUPDOWN=      -1.0000    fix difference up-down

 DOS related values:
   EMIN   = -10.00;   EMAX   =  5.00  energy-range for DOS
   EFERMI =   0.00
   ISMEAR =     0;   SIGMA  =   0.05  broadening in eV -4-tet -1-fermi 0-gaus

 Electronic relaxation 2 (details)
   IALGO  =     68    algorithm
   LDIAG  =      T    sub-space diagonalisation (order eigenvalues)
   LSUBROT=      F    optimize rotation matrix (better conditioning)
   TURBO    =      0    0=normal 1=particle mesh
   IRESTART =      0    0=no restart 2=restart with 2 vectors
   NREBOOT  =      0    no. of reboots
   NMIN     =      0    reboot dimension
   EREF     =   0.00    reference energy to select bands
   IMIX   =      4    mixing-type and parameters
     AMIX     =   0.40;   BMIX     =  1.00
     AMIX_MAG =   1.60;   BMIX_MAG =  1.00
     AMIN     =   0.10
     WC   =   100.;   INIMIX=   1;  MIXPRE=   1;  MAXMIX= -45

 Intra band minimization:
   WEIMIN = 0.0000     energy-eigenvalue tresh-hold
   EBREAK =  0.58E-08  absolut break condition
   DEPER  =   0.30     relativ break condition  

   TIME   =   0.40     timestep for ELM

  volume/ion in A,a.u.               =      88.72       598.69
  Fermi-wavevector in a.u.,A,eV,Ry     =   0.588942  1.112939  4.719216  0.346853
  Thomas-Fermi vector in A             =   1.636402
 
 Write flags
   LWAVE        =      T    write WAVECAR
   LDOWNSAMPLE  =      F    k-point downsampling of WAVECAR
   LCHARG       =      T    write CHGCAR
   LVTOT        =      F    write LOCPOT, total local potential
   LVHAR        =      T    write LOCPOT, Hartree potential only
   LELF         =      F    write electronic localiz. function (ELF)
   LORBIT       =     11    0 simple, 1 ext, 2 COOP (PROOUT), +10 PAW based schemes


 Dipole corrections
   LMONO  =      F    monopole corrections only (constant potential shift)
   LDIPOL =      F    correct potential (dipole corrections)
   IDIPOL =      0    1-x, 2-y, 3-z, 4-all directions 
   EPSILON=  1.0000000 bulk dielectric constant

 Exchange correlation treatment:
   GGA     =    --    GGA type
   LEXCH   =     8    internal setting for exchange type
   VOSKOWN=      0    Vosko Wilk Nusair interpolation
   LHFCALC =     F    Hartree Fock is set to
   LHFONE  =     F    Hartree Fock one center treatment
   AEXX    =    0.0000 exact exchange contribution

 Linear response parameters
   LEPSILON=     F    determine dielectric tensor
   LRPA    =     F    only Hartree local field effects (RPA)
   LNABLA  =     F    use nabla operator in PAW spheres
   LVEL    =     F    velocity operator in full k-point grid
   LINTERFAST=   F  fast interpolation
   KINTER  =     0    interpolate to denser k-point grid
   CSHIFT  =0.1000    complex shift for real part using Kramers Kronig
   OMEGAMAX=  -1.0    maximum frequency
   DEG_THRESHOLD= 0.2000000E-02 threshold for treating states as degnerate
   RTIME   =   -0.100 relaxation time in fs
  (WPLASMAI=    0.000 imaginary part of plasma frequency in eV, 0.658/RTIME)
   DFIELD  = 0.0000000 0.0000000 0.0000000 field for delta impulse in time
 
 Orbital magnetization related:
   ORBITALMAG=     F  switch on orbital magnetization
   LCHIMAG   =     F  perturbation theory with respect to B field
   DQ        =  0.001000  dq finite difference perturbation B field
   LLRAUG    =     F  two centre corrections for induced B field

 Solvation model:
   LSOL    =     T         switch on solvation model
   EB_K    = 78.400000     relative permittivity of the bulk solvent
   SIGMA_K =  0.600000     width of the dielectric cavity
   NC_K    =  0.002500     cutoff charge density
   TAU     =  0.000000     cavity surface tension
   LAMBDA_D_K    =  3.040000     Debye length in Angstroms
   LRHOB     =     F     write boundcharge  density
   LRHOION     =     F     write ioniccharge density



--------------------------------------------------------------------------------------------------------


 Static calculation
 charge density and potential will be updated during run
 spin polarized calculation
 RMM-DIIS sequential band-by-band and
  variant of blocked Davidson during initial phase
 perform sub-space diagonalisation
    before iterative eigenvector-optimisation
 modified Broyden-mixing scheme, WC =      100.0
 initial mixing is a Kerker type mixing with AMIX =  0.4000 and BMIX =      1.0000
 Hartree-type preconditioning will be used
 using additional bands          147
 real space projection scheme for non local part
 use partial core corrections
 calculate Harris-corrections to forces 
   (improved forces if not selfconsistent)
 use gradient corrections 
 use of overlap-Matrix (Vanderbilt PP)
 Gauss-broadening in eV      SIGMA  =   0.05


--------------------------------------------------------------------------------------------------------


  energy-cutoff  :      550.00
  volume of cell :    12242.83
      direct lattice vectors                 reciprocal lattice vectors
    10.048700000-17.405000000  0.000000000     0.049757680 -0.028727377  0.000000000
    10.048700000 17.405000000  0.000000000     0.049757680  0.028727377  0.000000000
     0.000000000  0.000000000 35.000000000     0.000000000  0.000000000  0.028571429

  length of vectors
    20.097522153 20.097522153 35.000000000     0.057455104  0.057455104  0.028571429


 
 old parameters found on file WAVECAR:
  energy-cutoff  :      550.00
  volume of cell :    12242.83
      direct lattice vectors                 reciprocal lattice vectors
    10.048700000-17.405000000  0.000000000     0.049757680 -0.028727377  0.000000000
    10.048700000 17.405000000  0.000000000     0.049757680  0.028727377  0.000000000
     0.000000000  0.000000000 35.000000000     0.000000000  0.000000000  0.028571429

  length of vectors

 
 k-points in units of 2pi/SCALE and weight: K-Point Grid                            
   0.02487884  0.00000000  0.00000000       0.167
   0.01243942 -0.02154553  0.00000000       0.167
   0.03731826  0.00718184  0.00000000       0.167
   0.00000000  0.01436369  0.00000000       0.167
   0.01243942  0.00718184  0.00000000       0.167
   0.01243942 -0.00718184  0.00000000       0.167
 
 k-points in reciprocal lattice and weights: K-Point Grid                            
   0.25000000  0.25000000  0.00000000       0.167
   0.50000000 -0.25000000  0.00000000       0.167
   0.25000000  0.50000000  0.00000000       0.167
  -0.25000000  0.25000000  0.00000000       0.167
  -0.00000000  0.25000000  0.00000000       0.167
   0.25000000 -0.00000000  0.00000000       0.167
 
 position of ions in fractional coordinates (direct lattice) 
   0.08331757  0.04165434  0.50157903
   0.08331657  0.16665594  0.50155092
   0.08332273  0.29165669  0.50149026
   0.08332024  0.41665110  0.50151370
   0.08332015  0.54165170  0.50159611
   0.08331412  0.66664680  0.50166902
   0.08331492  0.79164839  0.50167550
   0.08331879  0.91665303  0.50162181
   0.20832338  0.04165553  0.50159533
   0.20831583  0.16665304  0.50157591
   0.20831862  0.29166652  0.50151702
   0.20832043  0.41665086  0.50147305
   0.20831908  0.54164862  0.50152459
   0.20831666  0.66664817  0.50162737
   0.20831340  0.79164665  0.50169203
   0.20831527  0.91664968  0.50165144
   0.33331743  0.04164977  0.50162118
   0.33332312  0.16665541  0.50160371
   0.33332015  0.29166467  0.50156295
   0.33331438  0.41664913  0.50151092
   0.33331807  0.54164688  0.50149300
   0.33331878  0.66664830  0.50157585
   0.33331430  0.79164638  0.50166912
   0.33331282  0.91664537  0.50168035
   0.45831316  0.04164505  0.50165311
   0.45831801  0.16664938  0.50160862
   0.45831669  0.29165427  0.50157668
   0.45831326  0.41665346  0.50152802
   0.45831607  0.54164834  0.50150527
   0.45831862  0.66664740  0.50156081
   0.45831660  0.79164705  0.50163738
   0.45831322  0.91664504  0.50167973
   0.58331325  0.04164405  0.50167124
   0.58331302  0.16664414  0.50165475
   0.58331436  0.29164886  0.50161445
   0.58331238  0.41664853  0.50157145
   0.58331540  0.54164896  0.50155419
   0.58332071  0.66665153  0.50159084
   0.58331899  0.79164881  0.50164511
   0.58331615  0.91664639  0.50167020
   0.70831714  0.04164686  0.50165694
   0.70831452  0.16664431  0.50166983
   0.70831180  0.29164246  0.50167943
   0.70831229  0.41664429  0.50164882
   0.70831550  0.54164687  0.50162098
   0.70831849  0.66664825  0.50164031
   0.70832101  0.79165058  0.50167696
   0.70831915  0.91664880  0.50167439
   0.83332008  0.04165118  0.50161931
   0.83331925  0.16665020  0.50161086
   0.83331538  0.29164633  0.50164886
   0.83331222  0.41664293  0.50167955
   0.83331287  0.54164331  0.50167260
   0.83331583  0.66664626  0.50166961
   0.83331921  0.79164977  0.50168064
   0.83332078  0.91665156  0.50166017
   0.95832157  0.04165581  0.50158544
   0.95832086  0.16665362  0.50154977
   0.95832035  0.29165280  0.50155325
   0.95831814  0.41665124  0.50160728
   0.95831376  0.54164508  0.50165914
   0.95831419  0.66664597  0.50167615
   0.95831710  0.79164932  0.50166512
   0.95831956  0.91665246  0.50162830
   0.04165429  0.08332312  0.50154786
   0.04165365  0.20832208  0.50150467
   0.04165118  0.33331962  0.50148762
   0.04165176  0.45831844  0.50155268
   0.04164873  0.58331437  0.50163242
   0.04164810  0.70831440  0.50166862
   0.04165111  0.83331838  0.50164317
   0.04165318  0.95832098  0.50158913
   0.16665324  0.08332244  0.50156204
   0.16665543  0.20832492  0.50154232
   0.16665045  0.33332357  0.50143402
   0.16665244  0.45831906  0.50147334
   0.16665225  0.58331735  0.50156577
   0.16664801  0.70831382  0.50166242
   0.16664838  0.83331583  0.50167248
   0.16665304  0.95832151  0.50160181
   0.29165492  0.08332329  0.50158847
   0.29165093  0.20832432  0.50158681
   0.29164512  0.33331449  0.50150067
   0.29165243  0.45831789  0.50145313
   0.29165280  0.58331746  0.50150382
   0.29165035  0.70831484  0.50161369
   0.29164652  0.83331261  0.50168491
   0.29164895  0.95831613  0.50163906
   0.41665005  0.08331649  0.50160831
   0.41665158  0.20832038  0.50158343
   0.41664955  0.33331930  0.50153356
   0.41664778  0.45831750  0.50147331
   0.41665261  0.58331808  0.50149195
   0.41665231  0.70831608  0.50157585
   0.41664826  0.83331303  0.50165728
   0.41664654  0.95831238  0.50166641
   0.54164663  0.08331132  0.50164872
   0.54164914  0.20831475  0.50160813
   0.54164908  0.33331608  0.50156314
   0.54164873  0.45831728  0.50152099
   0.54165266  0.58331912  0.50152289
   0.54165368  0.70831752  0.50158467
   0.54165073  0.83331445  0.50164127
   0.54164749  0.95831191  0.50166420
   0.66664788  0.08331156  0.50165541
   0.66664671  0.20831019  0.50166795
   0.66664726  0.33331200  0.50163958
   0.66664758  0.45831316  0.50159513
   0.66665062  0.58331564  0.50158831
   0.66665456  0.70831797  0.50163017
   0.66665314  0.83331650  0.50166702
   0.66665069  0.95831414  0.50165844
   0.79165181  0.08331682  0.50161416
   0.79164905  0.20831359  0.50163552
   0.79164582  0.33331018  0.50167446
   0.79164626  0.45831070  0.50166800
   0.79164841  0.58331265  0.50164582
   0.79165187  0.70831589  0.50166213
   0.79165429  0.83331830  0.50167713
   0.79165318  0.95831759  0.50164605
   0.91665293  0.08331980  0.50156592
   0.91665250  0.20831905  0.50154889
   0.91664961  0.33331638  0.50158919
   0.91664709  0.45831260  0.50164320
   0.91664715  0.58331223  0.50166296
   0.91664955  0.70831483  0.50166254
   0.91665273  0.83331843  0.50165140
   0.91665415  0.95832051  0.50160899
   0.27938842  0.23544387  0.67520666
   0.26526098  0.23741400  0.63221828
   0.25688857  0.30704803  0.61977258
   0.34574861  0.29725306  0.68578237
   0.28291210  0.17229016  0.68450378
   0.22205987  0.23461832  0.69539111
   0.32534392  0.23753403  0.61377383
   0.20074960  0.16941668  0.62366238
   0.31847540  0.36812608  0.61449571
   0.18994140  0.29501141  0.61715853
 
 position of ions in cartesian coordinates  (Angst):
   1.25580521 -0.72514839 17.55526600
   2.51189879  1.45052161 17.55428208
   3.76805571  3.62605266 17.55215923
   5.02406191  5.80162361 17.55297949
   6.28015463  7.97726055 17.55586384
   7.53613228 10.15290534 17.55841568
   8.79224380 12.32854416 17.55864264
  10.04841675 14.50418245 17.55676345
   2.51196311 -2.90085383 17.55583667
   3.76794967 -0.72514072 17.55515691
   5.02420065  1.45067023 17.55309556
   6.28014906  3.62599111 17.55155659
   7.53620051  5.80160065 17.55336057
   8.79225910  7.97725987 17.55695802
  10.04829859 10.15291525 17.55922089
  11.30443534 12.32856043 17.55780039
   3.76793296 -5.07647562 17.55674142
   5.02413422 -2.90085141 17.55612996
   6.28028504 -0.72501366 17.55470314
   7.53615837  1.45044131 17.55288210
   8.79226029  3.62596284 17.55225501
  10.04836922  5.80160038 17.55515477
  11.30439238  7.97726982 17.55841929
  12.56045480 10.15290305 17.55881211
   5.02393002 -7.25210840 17.55785898
   6.28010983 -5.07649237 17.55630181
   7.53623309 -2.90075942 17.55518381
   8.79227806 -0.72508890 17.55348068
  10.04834244  1.45039816 17.55268430
  11.30444601  3.62596246 17.55462852
  12.56050970  5.80161644 17.55730847
  13.81654304  7.97726538 17.55879038
   6.28000841 -9.42775248 17.55849327
   7.53609454 -7.25212178 17.55791626
   8.79224281 -5.07643802 17.55650566
  10.04830721 -2.90078421 17.55500077
  11.30442938 -0.72520446 17.55439655
  12.56059604  1.45037308 17.55567954
  13.81663900  3.62598056 17.55757876
  15.07267361  5.80161294 17.55845688
   7.53616324-11.60339628 17.55799305
   8.79219886 -9.42777000 17.55844398
  10.04824030 -7.25212985 17.55878004
  11.30435127 -5.07648152 17.55770882
  12.56049689 -2.90086748 17.55673423
  13.81662830 -0.72527039 17.55741086
  15.07276455  1.45035119 17.55869377
  16.32881542  3.62597752 17.55860362
   8.79232363-13.77899717 17.55667597
  10.04839303-11.60337480 17.55638014
  11.30440276 -9.42774987 17.55770997
  12.56042432 -7.25212914 17.55878410
  13.81652211 -5.07650874 17.55854115
  15.07266902 -2.90088383 17.55843633
  16.32882581 -0.72525672 17.55882237
  17.58494699  1.45037224 17.55810596
  10.04847273-15.95456761 17.55549036
  11.30453102-13.77896820 17.55424193
  12.56060516-11.60334883 17.55436392
  13.81665484 -9.42771246 17.55625463
  15.07263640 -7.25211834 17.55806994
  16.32873718 -5.07648543 17.55866517
  17.58488756 -2.90085269 17.55827932
  18.84103138 -0.72521580 17.55699047
   1.25586052  0.72524593 17.55417515
   2.51193117  2.90086407 17.55266356
   3.76796908  5.07648924 17.55206668
   5.02405051  7.25208354 17.55434374
   6.28006673  9.42769056 17.55713486
   7.53614819 11.60332698 17.55840161
   8.79230590 13.77896895 17.55751087
  10.04844028 15.95460302 17.55561962
   2.51193066 -1.45037248 17.55467137
   3.76806502  0.72525749 17.55398112
   5.02408902  2.90094565 17.55019085
   6.28015112  5.07645739 17.55156705
   7.53621949  7.25205617 17.55480183
   8.79222899  9.42769337 17.55818468
  10.04834041 11.60334705 17.55853671
  11.30453177 13.77898966 17.55606326
   3.76804355 -3.62601190 17.55559648
   5.02410132 -1.45029954 17.55553842
   6.28003167  0.72525548 17.55252342
   7.53622677  2.90081224 17.55085957
   8.79231364  5.07642342 17.55263354
  10.04835027  7.25204547 17.55647929
  11.30437681  9.42769820 17.55897183
  12.56052414 11.60334228 17.55736723
   5.02401383 -5.80167063 17.55629071
   6.28015568 -3.62600455 17.55542022
   7.53621202 -1.45036302 17.55367455
   8.79226360  0.72526135 17.55156602
  10.04840552  2.90081257 17.55221833
  11.30446980  5.07640794 17.55515459
  12.56048602  7.25205037 17.55800468
  13.81654963  9.42769395 17.55832431
   6.28001492 -7.97732603 17.55770508
   7.53616218 -5.80168514 17.55628456
   8.79226238 -3.62603586 17.55470995
  10.04835844 -1.45038380 17.55323458
  11.30450386  0.72520469 17.55330127
  12.56058556  2.90078414 17.55546344
  13.81661267  5.07640700 17.55744448
  15.07264210  7.25204426 17.55824705
   7.53611742-10.15296867 17.55793935
   8.79217934 -7.97734708 17.55837837
  10.04829059 -5.80170014 17.55738546
  11.30439293 -3.62606060 17.55582946
  12.56053601 -1.45044539 17.55559090
  13.81668649  0.72515165 17.55705591
  15.07274500  2.90077576 17.55834559
  16.32878407  5.07640246 17.55804555
   8.79229732-12.32857049 17.55649572
  10.04832463-10.15295376 17.55724334
  11.30434544 -7.97733181 17.55860615
  12.56044255 -5.80170551 17.55837989
  13.81657125 -3.62608394 17.55760367
  15.07272608 -1.45046271 17.55817458
  16.32886211  0.72516214 17.55869961
  17.58493127  2.90079398 17.55761168
  10.04842598-14.50416302 17.55480716
  11.30450169-12.32854366 17.55421131
  12.56053321-10.15291484 17.55562149
  13.81655738 -7.97731182 17.55751208
  15.07264179 -5.80169435 17.55820376
  16.32877952 -3.62606573 17.55818889
  17.58493513 -1.45043343 17.55779909
  18.84105792  0.72520307 17.55631469
   5.17339530 -0.76485484 23.63223312
   5.05123007 -0.48467652 22.12763976
   5.66682972  0.87302536 21.69204025
   6.46133089 -0.84406519 24.00238279
   4.57419097 -1.92537480 23.95763229
   4.58902216  0.21857975 24.33868876
   5.65619169 -1.52833107 21.48208392
   3.71968988 -0.54534947 21.82818344
   6.89945229  0.86417015 21.50734986
   4.87314536  1.82874358 21.60054838
 


--------------------------------------------------------------------------------------------------------


 k-point  1 :   0.2500 0.2500 0.0000  plane waves:  358590
 k-point  2 :   0.5000-0.2500 0.0000  plane waves:  358584
 k-point  3 :   0.2500 0.5000 0.0000  plane waves:  358584
 k-point  4 :  -0.2500 0.2500 0.0000  plane waves:  358603
 k-point  5 :  -0.0000 0.2500 0.0000  plane waves:  358599
 k-point  6 :   0.2500-0.0000 0.0000  plane waves:  358599

 maximum and minimum number of plane-waves per node :    358603   358584

 maximum number of plane-waves:    358603
 maximum index in each direction: 
   IXMAX=   38   IYMAX=   38   IZMAX=   66
   IXMIN=  -38   IYMIN=  -38   IZMIN=  -66


 serial   3D FFT for wavefunctions
 parallel 3D FFT for charge:
    minimum data exchange during FFTs selected (reduces bandwidth)


 total amount of memory used by VASP MPI-rank0  2733406. kBytes
=======================================================================

   base      :      30000. kBytes
   nonlr-proj:      63779. kBytes
   fftplans  :     108234. kBytes
   grid      :    1287382. kBytes
   one-center:        847. kBytes
   wavefun   :    1243164. kBytes
 
     INWAV:  cpu time  135.6465: real time  136.2821
 Broyden mixing: mesh for mixing (old mesh)
   NGX = 77   NGY = 77   NGZ =133
  (NGX  =320   NGY  =320   NGZ  =540)
  gives a total of 788557 points

 charge density for first step will be calculated from the start-wavefunctions


--------------------------------------------------------------------------------------------------------


 Maximum index for non-local projection operator         6396
 Maximum index for augmentation-charges          435 (set IRDMAX)


--------------------------------------------------------------------------------------------------------


 initial charge from wavefunction
 First call to EWALD:  gamma=   0.077
 Maximum number of real-space cells 3x 3x 2
 Maximum number of reciprocal cells 2x 2x 4

    FEWALD:  cpu time    0.0084: real time    0.0075


--------------------------------------- Iteration      1(   1)  ---------------------------------------


    POTLOK:  cpu time  129.7380: real time  129.8212
    SETDIJ:  cpu time    0.9359: real time    0.7358
     EDDAV:  cpu time  555.4464: real time  421.3729
       DOS:  cpu time    0.0092: real time    0.0046
    CHARGE:  cpu time   73.4392: real time   71.1522
    MIXING:  cpu time    0.2184: real time    0.2189
    --------------------------------------------
      LOOP:  cpu time  759.7871: real time  623.3057

 eigenvalue-minimisations  : 10416
 total energy-change (2. order) :-0.1322289E+04  (-0.6710830E-02)
 number of electron     569.9999973 magnetization       0.1892950
 augmentation part       22.4376836 magnetization       0.0433754

 Broyden mixing:
  rms(total) = 0.16129E-01    rms(broyden)= 0.16104E-01
  rms(prec ) = 0.16278E-01
  weight for this iteration     100.00

 Free energy of the ion-electron system (eV)
  ---------------------------------------------------
  alpha Z        PSCENC =       143.65704873
  Ewald energy   TEWEN  =    181393.03702135
  -Hartree energ DENC   =   -202949.66322870
  -exchange      EXHF   =         0.00000000
  -V(xc)+E(xc)   XCENC  =      2556.60326249
  PAW double counting   =     67617.65118095   -67883.35364056
  entropy T*S    EENTRO =        -0.03852168
  eigenvalues    EBANDS =     -8132.15759662
  atomic energy  EATOM  =     26089.46230379
  Solvation  Ediel_sol  =      -157.48721810
  ---------------------------------------------------
  free energy    TOTEN  =     -1322.28938836 eV

  energy without entropy =    -1322.25086669  energy(sigma->0) =    -1322.27012752


--------------------------------------------------------------------------------------------------------




--------------------------------------- Iteration      1(   2)  ---------------------------------------


    POTLOK:  cpu time   98.6271: real time   98.8549
    SETDIJ:  cpu time    1.5041: real time    1.1046
    EDDIAG:  cpu time  109.8736: real time   91.4736
  RMM-DIIS:  cpu time  631.1512: real time  520.9540
    ORTHCH:  cpu time    6.1397: real time    3.0807
       DOS:  cpu time    0.1978: real time    0.0991
    CHARGE:  cpu time   73.3255: real time   71.1631
    MIXING:  cpu time    0.2167: real time    0.2171
    --------------------------------------------
      LOOP:  cpu time  921.0357: real time  786.9471

 eigenvalue-minimisations  : 10733
 total energy-change (2. order) : 0.3252880E-04  (-0.9967473E-04)
 number of electron     569.9999973 magnetization       0.1889651
 augmentation part       22.4372624 magnetization       0.0589385

 Broyden mixing:
  rms(total) = 0.17351E-01    rms(broyden)= 0.17335E-01
  rms(prec ) = 0.17705E-01
  weight for this iteration     100.00

 eigenvalues of (default mixing * dielectric matrix)
  average eigenvalue GAMMA=   0.3046
  0.3046

 Free energy of the ion-electron system (eV)
  ---------------------------------------------------
  alpha Z        PSCENC =       143.65704873
  Ewald energy   TEWEN  =    181393.03702135
  -Hartree energ DENC   =   -202949.64439263
  -exchange      EXHF   =         0.00000000
  -V(xc)+E(xc)   XCENC  =      2556.64760243
  PAW double counting   =     67649.32160263   -67915.00071660
  entropy T*S    EENTRO =        -0.03796680
  eigenvalues    EBANDS =     -8132.33918766
  atomic energy  EATOM  =     26089.46230379
  Solvation  Ediel_sol  =      -157.39267108
  ---------------------------------------------------
  free energy    TOTEN  =     -1322.28935583 eV

  energy without entropy =    -1322.25138904  energy(sigma->0) =    -1322.27037244


--------------------------------------------------------------------------------------------------------




--------------------------------------- Iteration      1(   3)  ---------------------------------------


    POTLOK:  cpu time  100.6177: real time  100.8385
    SETDIJ:  cpu time    1.1706: real time    0.8559
    EDDIAG:  cpu time  110.0430: real time   91.5076
  RMM-DIIS:  cpu time  619.3593: real time  515.1293
    ORTHCH:  cpu time    6.0725: real time    3.0474
       DOS:  cpu time    0.2199: real time    0.1102
    CHARGE:  cpu time   73.1930: real time   71.1084
    MIXING:  cpu time    0.2152: real time    0.2157
    --------------------------------------------
      LOOP:  cpu time  910.8913: real time  782.8130

 eigenvalue-minimisations  : 10483
 total energy-change (2. order) : 0.4822553E-03  (-0.4397248E-04)
 number of electron     569.9999973 magnetization       0.1889393
 augmentation part       22.4343460 magnetization       0.0413408

 Broyden mixing:
  rms(total) = 0.10821E-01    rms(broyden)= 0.10803E-01
  rms(prec ) = 0.10947E-01
  weight for this iteration     100.00

 eigenvalues of (default mixing * dielectric matrix)
  average eigenvalue GAMMA=   1.2431
  2.2154  0.2708

 Free energy of the ion-electron system (eV)
  ---------------------------------------------------
  alpha Z        PSCENC =       143.65704873
  Ewald energy   TEWEN  =    181393.03702135
  -Hartree energ DENC   =   -202949.53838945
  -exchange      EXHF   =         0.00000000
  -V(xc)+E(xc)   XCENC  =      2556.64616198
  PAW double counting   =     67657.62660753   -67923.29887750
  entropy T*S    EENTRO =        -0.03856540
  eigenvalues    EBANDS =     -8132.44260712
  atomic energy  EATOM  =     26089.46230379
  Solvation  Ediel_sol  =      -157.39957749
  ---------------------------------------------------
  free energy    TOTEN  =     -1322.28887358 eV

  energy without entropy =    -1322.25030818  energy(sigma->0) =    -1322.26959088


--------------------------------------------------------------------------------------------------------




--------------------------------------- Iteration      1(   4)  ---------------------------------------


    POTLOK:  cpu time   99.5963: real time   99.8252
    SETDIJ:  cpu time    1.4362: real time    1.0356
    EDDIAG:  cpu time  110.0681: real time   91.6005
  RMM-DIIS:  cpu time  630.4429: real time  520.2751
    ORTHCH:  cpu time    6.0615: real time    3.0412
       DOS:  cpu time    0.2239: real time    0.1122
    CHARGE:  cpu time   73.0507: real time   70.9742
    MIXING:  cpu time    0.2182: real time    0.2186
    --------------------------------------------
      LOOP:  cpu time  921.0978: real time  787.0826

 eigenvalue-minimisations  : 10837
 total energy-change (2. order) :-0.7295328E-03  (-0.4486841E-04)
 number of electron     569.9999973 magnetization       0.1893859
 augmentation part       22.4309951 magnetization       0.0212481

 Broyden mixing:
  rms(total) = 0.26053E-01    rms(broyden)= 0.26030E-01
  rms(prec ) = 0.26888E-01
  weight for this iteration     100.00

 eigenvalues of (default mixing * dielectric matrix)
  average eigenvalue GAMMA=   1.0277
  2.3384  0.3723  0.3723

 Free energy of the ion-electron system (eV)
  ---------------------------------------------------
  alpha Z        PSCENC =       143.65704873
  Ewald energy   TEWEN  =    181393.03702135
  -Hartree energ DENC   =   -202949.07930092
  -exchange      EXHF   =         0.00000000
  -V(xc)+E(xc)   XCENC  =      2556.60691761
  PAW double counting   =     67691.67772624   -67957.32316315
  entropy T*S    EENTRO =        -0.03919403
  eigenvalues    EBANDS =     -8132.98237441
  atomic energy  EATOM  =     26089.46230379
  Solvation  Ediel_sol  =      -157.30658832
  ---------------------------------------------------
  free energy    TOTEN  =     -1322.28960311 eV

  energy without entropy =    -1322.25040908  energy(sigma->0) =    -1322.27000609


--------------------------------------------------------------------------------------------------------




--------------------------------------- Iteration      1(   5)  ---------------------------------------


    POTLOK:  cpu time  101.3780: real time  101.6008
    SETDIJ:  cpu time    1.2927: real time    0.9167
    EDDIAG:  cpu time  110.0267: real time   91.4740
  RMM-DIIS:  cpu time  547.4252: real time  456.7633
    ORTHCH:  cpu time    6.1004: real time    3.0614
       DOS:  cpu time    0.1222: real time    0.0612
    CHARGE:  cpu time   73.1656: real time   71.0922
    MIXING:  cpu time    0.2165: real time    0.2170
    --------------------------------------------
      LOOP:  cpu time  839.7272: real time  725.1864

 eigenvalue-minimisations  :  8597
 total energy-change (2. order) : 0.9839318E-04  (-0.5956113E-04)
 number of electron     569.9999973 magnetization       0.1892359
 augmentation part       22.4365843 magnetization       0.0653594

 Broyden mixing:
  rms(total) = 0.18731E-01    rms(broyden)= 0.18645E-01
  rms(prec ) = 0.19261E-01
  weight for this iteration     100.00

 eigenvalues of (default mixing * dielectric matrix)
  average eigenvalue GAMMA=   1.0971
  2.4009  1.3399  0.3238  0.3238

 Free energy of the ion-electron system (eV)
  ---------------------------------------------------
  alpha Z        PSCENC =       143.65704873
  Ewald energy   TEWEN  =    181393.03702135
  -Hartree energ DENC   =   -202949.05420881
  -exchange      EXHF   =         0.00000000
  -V(xc)+E(xc)   XCENC  =      2556.58490170
  PAW double counting   =     67693.93759250   -67959.58126375
  entropy T*S    EENTRO =        -0.03773490
  eigenvalues    EBANDS =     -8133.05142390
  atomic energy  EATOM  =     26089.46230379
  Solvation  Ediel_sol  =      -157.24374141
  ---------------------------------------------------
  free energy    TOTEN  =     -1322.28950472 eV

  energy without entropy =    -1322.25176982  energy(sigma->0) =    -1322.27063727


--------------------------------------------------------------------------------------------------------




--------------------------------------- Iteration      1(   6)  ---------------------------------------


    POTLOK:  cpu time  103.3211: real time  103.5477
    SETDIJ:  cpu time    0.9505: real time    0.7465
    EDDIAG:  cpu time  110.2943: real time   91.7483
  RMM-DIIS:  cpu time  612.1315: real time  505.6674
    ORTHCH:  cpu time    6.0647: real time    3.0427
       DOS:  cpu time    0.2180: real time    0.1093
    CHARGE:  cpu time   73.1638: real time   71.1590
    MIXING:  cpu time    0.2260: real time    0.2266
    --------------------------------------------
      LOOP:  cpu time  906.3700: real time  776.2475

 eigenvalue-minimisations  : 10374
 total energy-change (2. order) : 0.8286993E-04  (-0.1102334E-03)
 number of electron     569.9999973 magnetization       0.1892185
 augmentation part       22.4358984 magnetization       0.0545528

 Broyden mixing:
  rms(total) = 0.82490E-02    rms(broyden)= 0.82481E-02
  rms(prec ) = 0.85064E-02
  weight for this iteration     100.00

 eigenvalues of (default mixing * dielectric matrix)
  average eigenvalue GAMMA=   1.0046
  2.4751  1.4893  0.3258  0.3258  0.4072

 Free energy of the ion-electron system (eV)
  ---------------------------------------------------
  alpha Z        PSCENC =       143.65704873
  Ewald energy   TEWEN  =    181393.03702135
  -Hartree energ DENC   =   -202948.86282187
  -exchange      EXHF   =         0.00000000
  -V(xc)+E(xc)   XCENC  =      2556.59747022
  PAW double counting   =     67695.32342164   -67960.96647043
  entropy T*S    EENTRO =        -0.03812824
  eigenvalues    EBANDS =     -8133.25955994
  atomic energy  EATOM  =     26089.46230379
  Solvation  Ediel_sol  =      -157.23970710
  ---------------------------------------------------
  free energy    TOTEN  =     -1322.28942185 eV

  energy without entropy =    -1322.25129361  energy(sigma->0) =    -1322.27035773


--------------------------------------------------------------------------------------------------------




--------------------------------------- Iteration      1(   7)  ---------------------------------------


    POTLOK:  cpu time   92.8423: real time   93.0437
    SETDIJ:  cpu time    1.4271: real time    1.0271
    EDDIAG:  cpu time  109.9855: real time   91.4589
  RMM-DIIS:  cpu time  545.2430: real time  454.3874
    ORTHCH:  cpu time    6.1370: real time    3.0792
       DOS:  cpu time    0.0580: real time    0.0291
    --------------------------------------------
      LOOP:  cpu time  755.6928: real time  643.0253

 eigenvalue-minimisations  :  8569
 total energy-change (2. order) : 0.9023926E-05  (-0.4407320E-05)
 number of electron     569.9999973 magnetization       0.1892185
 augmentation part       22.4358984 magnetization       0.0545528

 Free energy of the ion-electron system (eV)
  ---------------------------------------------------
  alpha Z        PSCENC =       143.65704873
  Ewald energy   TEWEN  =    181393.03702135
  -Hartree energ DENC   =   -202948.84554120
  -exchange      EXHF   =         0.00000000
  -V(xc)+E(xc)   XCENC  =      2556.59655188
  PAW double counting   =     67695.74757600   -67961.39069783
  entropy T*S    EENTRO =        -0.03837633
  eigenvalues    EBANDS =     -8133.27709538
  atomic energy  EATOM  =     26089.46230379
  Solvation  Ediel_sol  =      -157.23820384
  ---------------------------------------------------
  free energy    TOTEN  =     -1322.28941282 eV

  energy without entropy =    -1322.25103650  energy(sigma->0) =    -1322.27022466


--------------------------------------------------------------------------------------------------------




 average (electrostatic) potential at core
  the test charge radii are     0.7672  0.7089  0.6991  0.7167  0.7215
  (the norm of the test charge is              1.0000)
       1 -38.8885       2 -38.8873       3 -38.8847       4 -38.8863       5 -38.8879
       6 -38.8886       7 -38.8887       8 -38.8885       9 -38.8890      10 -38.8891
      11 -38.8844      12 -38.8834      13 -38.8865      14 -38.8882      15 -38.8887
      16 -38.8886      17 -38.8888      18 -38.8893      19 -38.8863      20 -38.8832
      21 -38.8853      22 -38.8876      23 -38.8885      24 -38.8887      25 -38.8886
      26 -38.8886      27 -38.8875      28 -38.8855      29 -38.8856      30 -38.8873
      31 -38.8884      32 -38.8887      33 -38.8887      34 -38.8886      35 -38.8881
      36 -38.8873      37 -38.8870      38 -38.8876      39 -38.8884      40 -38.8887
      41 -38.8886      42 -38.8887      43 -38.8886      44 -38.8883      45 -38.8882
      46 -38.8883      47 -38.8885      48 -38.8886      49 -38.8881      50 -38.8882
      51 -38.8883      52 -38.8887      53 -38.8887      54 -38.8887      55 -38.8886
      56 -38.8884      57 -38.8878      58 -38.8871      59 -38.8871      60 -38.8880
      61 -38.8887      62 -38.8888      63 -38.8887      64 -38.8884      65 -76.4759
      66 -76.4749      67 -76.4743      68 -76.4758      69 -76.4763      70 -76.4763
      71 -76.4763      72 -76.4761      73 -76.4777      74 -76.4778      75 -76.4721
      76 -76.4741      77 -76.4758      78 -76.4764      79 -76.4762      80 -76.4762
      81 -76.4770      82 -76.4793      83 -76.4736      84 -76.4723      85 -76.4751
      86 -76.4761      87 -76.4762      88 -76.4763      89 -76.4762      90 -76.4770
      91 -76.4752      92 -76.4729      93 -76.4745      94 -76.4759      95 -76.4764
      96 -76.4763      97 -76.4763      98 -76.4762      99 -76.4754     100 -76.4748
     101 -76.4750     102 -76.4759     103 -76.4763     104 -76.4763     105 -76.4764
     106 -76.4763     107 -76.4761     108 -76.4758     109 -76.4759     110 -76.4761
     111 -76.4763     112 -76.4763     113 -76.4763     114 -76.4762     115 -76.4764
     116 -76.4762     117 -76.4763     118 -76.4764     119 -76.4762     120 -76.4762
     121 -76.4755     122 -76.4758     123 -76.4758     124 -76.4763     125 -76.4764
     126 -76.4764     127 -76.4762     128 -76.4760     129 -67.4151     130 -65.5486
     131 -63.8712     132 -91.9425     133 -91.9082     134 -91.9469     135 -91.3936
     136 -91.3922     137 -84.0104     138 -84.0083
 
 
 
 E-fermi :  -6.5254     XC(G=0):  -1.2955     alpha+bet : -1.0971


 spin component 1

 k-point     1 :       0.2500    0.2500    0.0000
  band No.  band energies     occupation 
      1     -35.6577      1.00000
      2     -34.0934      1.00000
      3     -33.3365      1.00000
      4     -33.2650      1.00000
      5     -32.5714      1.00000
      6     -28.4416      1.00000
      7     -26.1809      1.00000
      8     -25.0571      1.00000
      9     -24.9801      1.00000
     10     -24.9790      1.00000
     11     -24.7496      1.00000
     12     -24.7492      1.00000
     13     -24.5982      1.00000
     14     -24.5240      1.00000
     15     -24.5230      1.00000
     16     -24.3753      1.00000
     17     -24.3751      1.00000
     18     -24.3023      1.00000
     19     -24.3019      1.00000
     20     -23.9435      1.00000
     21     -23.9433      1.00000
     22     -23.8745      1.00000
     23     -23.8744      1.00000
     24     -23.7345      1.00000
     25     -23.6688      1.00000
     26     -23.6678      1.00000
     27     -23.4734      1.00000
     28     -23.4730      1.00000
     29     -23.4664      1.00000
     30     -23.4663      1.00000
     31     -23.2814      1.00000
     32     -23.2814      1.00000
     33     -23.1618      1.00000
     34     -23.1616      1.00000
     35     -22.9071      1.00000
     36     -22.9070      1.00000
     37     -22.7580      1.00000
     38     -22.7579      1.00000
     39     -22.6637      1.00000
     40     -22.6634      1.00000
     41     -22.6265      1.00000
     42     -22.5850      1.00000
     43     -22.5840      1.00000
     44     -22.4655      1.00000
     45     -22.4652      1.00000
     46     -22.3336      1.00000
     47     -22.3334      1.00000
     48     -22.3036      1.00000
     49     -22.3035      1.00000
     50     -22.2899      1.00000
     51     -22.2898      1.00000
     52     -22.1518      1.00000
     53     -22.1508      1.00000
     54     -22.0916      1.00000
     55     -22.0916      1.00000
     56     -21.9416      1.00000
     57     -21.9099      1.00000
     58     -21.9098      1.00000
     59     -21.8687      1.00000
     60     -21.8679      1.00000
     61     -21.8653      1.00000
     62     -21.8650      1.00000
     63     -21.7755      1.00000
     64     -21.7752      1.00000
     65     -21.6991      1.00000
     66     -21.6982      1.00000
     67     -21.6813      1.00000
     68     -21.6745      1.00000
     69     -21.5365      1.00000
     70     -21.5355      1.00000
     71     -21.4118      1.00000
     72     -20.8864      1.00000
     73     -18.1653      1.00000
     74     -16.3761      1.00000
     75     -15.9845      1.00000
     76     -15.9526      1.00000
     77     -15.6184      1.00000
     78     -15.5362      1.00000
     79     -15.5361      1.00000
     80     -15.4584      1.00000
     81     -15.4584      1.00000
     82     -15.3456      1.00000
     83     -15.3454      1.00000
     84     -15.2797      1.00000
     85     -15.2787      1.00000
     86     -15.2346      1.00000
     87     -15.1624      1.00000
     88     -15.1291      1.00000
     89     -15.1290      1.00000
     90     -14.9594      1.00000
     91     -14.9585      1.00000
     92     -14.9492      1.00000
     93     -14.9485      1.00000
     94     -14.7267      1.00000
     95     -14.7266      1.00000
     96     -14.7145      1.00000
     97     -14.7141      1.00000
     98     -14.6597      1.00000
     99     -14.6449      1.00000
    100     -14.6107      1.00000
    101     -14.6105      1.00000
    102     -14.5929      1.00000
    103     -14.5050      1.00000
    104     -14.5049      1.00000
    105     -14.3873      1.00000
    106     -14.3870      1.00000
    107     -14.2485      1.00000
    108     -14.2483      1.00000
    109     -14.0795      1.00000
    110     -14.0794      1.00000
    111     -14.0291      1.00000
    112     -14.0284      1.00000
    113     -13.8879      1.00000
    114     -13.7117      1.00000
    115     -13.4992      1.00000
    116     -13.4991      1.00000
    117     -13.4728      1.00000
    118     -13.4723      1.00000
    119     -13.3332      1.00000
    120     -13.3331      1.00000
    121     -13.2115      1.00000
    122     -13.1664      1.00000
    123     -13.1663      1.00000
    124     -12.8284      1.00000
    125     -12.8283      1.00000
    126     -12.7801      1.00000
    127     -12.7794      1.00000
    128     -12.7219      1.00000
    129     -12.6431      1.00000
    130     -12.6430      1.00000
    131     -12.4210      1.00000
    132     -12.4000      1.00000
    133     -12.3999      1.00000
    134     -12.3951      1.00000
    135     -12.3660      1.00000
    136     -12.3107      1.00000
    137     -12.3097      1.00000
    138     -12.2596      1.00000
    139     -12.1848      1.00000
    140     -12.1841      1.00000
    141     -11.9838      1.00000
    142     -11.9836      1.00000
    143     -11.9723      1.00000
    144     -11.9720      1.00000
    145     -11.8638      1.00000
    146     -11.8037      1.00000
    147     -11.7986      1.00000
    148     -11.7986      1.00000
    149     -11.6904      1.00000
    150     -11.6902      1.00000
    151     -11.6638      1.00000
    152     -11.6477      1.00000
    153     -11.5606      1.00000
    154     -11.5594      1.00000
    155     -11.5226      1.00000
    156     -11.5224      1.00000
    157     -11.4945      1.00000
    158     -11.4938      1.00000
    159     -11.4776      1.00000
    160     -11.3969      1.00000
    161     -11.3968      1.00000
    162     -11.3448      1.00000
    163     -11.2530      1.00000
    164     -11.2504      1.00000
    165     -11.2339      1.00000
    166     -11.2300      1.00000
    167     -11.2299      1.00000
    168     -11.0485      1.00000
    169     -11.0243      1.00000
    170     -10.9722      1.00000
    171     -10.9720      1.00000
    172     -10.9615      1.00000
    173     -10.9458      1.00000
    174     -10.9445      1.00000
    175     -10.8775      1.00000
    176     -10.8765      1.00000
    177     -10.8331      1.00000
    178     -10.8035      1.00000
    179     -10.8034      1.00000
    180     -10.7483      1.00000
    181     -10.7446      1.00000
    182     -10.7398      1.00000
    183     -10.7396      1.00000
    184     -10.7129      1.00000
    185     -10.7128      1.00000
    186     -10.6628      1.00000
    187     -10.6567      1.00000
    188     -10.6566      1.00000
    189     -10.6458      1.00000
    190     -10.6427      1.00000
    191     -10.6281      1.00000
    192     -10.6279      1.00000
    193     -10.6160      1.00000
[...]
      8.79231     13.77897     17.55751        -0.000607     -0.000494      0.006698
     10.04844     15.95460     17.55562        -0.000606     -0.000365      0.007077
      2.51193     -1.45037     17.55467        -0.000572     -0.001554      0.009015
      3.76807      0.72526     17.55398        -0.000946     -0.000462      0.009283
      5.02409      2.90095     17.55019        -0.001115     -0.000198      0.005684
      6.28015      5.07646     17.55157        -0.000310      0.000239      0.006378
      7.53622      7.25206     17.55480        -0.000373     -0.000033      0.006618
      8.79223      9.42769     17.55818         0.000004     -0.000068      0.006018
     10.04834     11.60335     17.55854        -0.000290     -0.000544      0.005877
     11.30453     13.77899     17.55606        -0.000687     -0.000745      0.007460
      3.76804     -3.62601     17.55560        -0.001085     -0.001017      0.007979
      5.02410     -1.45030     17.55554        -0.000873     -0.001491      0.009158
      6.28003      0.72526     17.55252        -0.000537     -0.000774      0.004977
      7.53623      2.90081     17.55086         0.000079      0.000209      0.007752
      8.79231      5.07642     17.55263        -0.000292      0.000116      0.006933
     10.04835      7.25205     17.55648        -0.000176      0.000077      0.006994
     11.30438      9.42770     17.55897         0.000409     -0.000282      0.005459
     12.56052     11.60334     17.55737        -0.000215     -0.000455      0.007004
      5.02401     -5.80167     17.55629        -0.000774     -0.000739      0.007659
      6.28016     -3.62600     17.55542        -0.000807     -0.001515      0.007601
      7.53621     -1.45036     17.55367        -0.000037     -0.000704      0.008763
      8.79226      0.72526     17.55157         0.000146     -0.000524      0.009175
     10.04841      2.90081     17.55222        -0.000044     -0.000110      0.006748
     11.30447      5.07641     17.55515        -0.000264     -0.000145      0.006840
     12.56049      7.25205     17.55800        -0.000112     -0.000079      0.006365
     13.81655      9.42769     17.55832        -0.000222     -0.000486      0.006270
      6.28001     -7.97733     17.55771        -0.000044     -0.000325      0.006907
      7.53616     -5.80169     17.55628        -0.000198     -0.000745      0.007322
      8.79226     -3.62604     17.55471        -0.000027     -0.000202      0.007495
     10.04836     -1.45038     17.55323        -0.000213     -0.000553      0.007678
     11.30450      0.72520     17.55330        -0.000480     -0.000365      0.007324
     12.56059      2.90078     17.55546        -0.000420      0.000144      0.006884
     13.81661      5.07641     17.55744        -0.000078     -0.000043      0.006774
     15.07264      7.25204     17.55825        -0.000106     -0.000347      0.006866
      7.53612    -10.15297     17.55794        -0.000070     -0.000210      0.007031
      8.79218     -7.97735     17.55838        -0.000080     -0.000120      0.005649
     10.04829     -5.80170     17.55739        -0.000193     -0.000469      0.006674
     11.30439     -3.62606     17.55583         0.000242     -0.000116      0.007273
     12.56054     -1.45045     17.55559        -0.000181     -0.000362      0.006859
     13.81669      0.72515     17.55706        -0.000451     -0.000059      0.006541
     15.07274      2.90078     17.55835        -0.000372     -0.000170      0.005629
     16.32878      5.07640     17.55805        -0.000287     -0.000037      0.006818
      8.79230    -12.32857     17.55650        -0.000964     -0.000252      0.007162
     10.04832    -10.15295     17.55724        -0.000487     -0.000079      0.006588
     11.30435     -7.97733     17.55861         0.000332     -0.000054      0.005306
     12.56044     -5.80171     17.55838         0.000124     -0.000365      0.005762
     13.81657     -3.62608     17.55760         0.000288     -0.000341      0.006799
     15.07273     -1.45046     17.55817        -0.000224     -0.000330      0.006056
     16.32886      0.72516     17.55870        -0.000674     -0.000233      0.005518
     17.58493      2.90079     17.55761        -0.000661     -0.000055      0.006350
     10.04843    -14.50416     17.55481        -0.000491     -0.000333      0.006931
     11.30450    -12.32854     17.55421        -0.001007     -0.000044      0.007004
     12.56053    -10.15291     17.55562         0.000018      0.000254      0.006811
     13.81656     -7.97731     17.55751        -0.000029      0.000368      0.006543
     15.07264     -5.80169     17.55820        -0.000065     -0.000354      0.006930
     16.32878     -3.62607     17.55819        -0.000196     -0.000253      0.007117
     17.58494     -1.45043     17.55780        -0.000743     -0.000336      0.006501
     18.84106      0.72520     17.55631        -0.000399     -0.000263      0.007454
      5.17340     -0.76485     23.63223        -0.002105      0.000619     -0.006607
      5.05123     -0.48468     22.12764        -0.009978     -0.012480     -0.010875
      5.66683      0.87303     21.69204        -0.009823      0.008942     -0.002879
      6.46133     -0.84407     24.00238         0.008619     -0.007808     -0.000954
      4.57419     -1.92537     23.95763         0.002951      0.004750     -0.007157
      4.58902      0.21858     24.33869        -0.012704      0.007601      0.007940
      5.65619     -1.52833     21.48208        -0.008798      0.011487     -0.004040
      3.71969     -0.54535     21.82818         0.011066     -0.007559     -0.003243
      6.89945      0.86417     21.50735         0.010074     -0.000435     -0.017918
      4.87315      1.82874     21.60055         0.005091     -0.000959     -0.011225
 -----------------------------------------------------------------------------------
    total drift:                                0.080207      0.004542      0.292234


--------------------------------------------------------------------------------------------------------



  FREE ENERGIE OF THE ION-ELECTRON SYSTEM (eV)
  ---------------------------------------------------
  free  energy   TOTEN  =     -1322.28941282 eV

  energy  without entropy=    -1322.25103650  energy(sigma->0) =    -1322.27022466
 


--------------------------------------------------------------------------------------------------------


    POTLOK:  cpu time   95.5898: real time   95.4697


--------------------------------------------------------------------------------------------------------


 writing wavefunctions
     LOOP+:  cpu time 8199.2655: real time 6966.0502
    4ORBIT:  cpu time    0.0000: real time    0.0000
 


 total charge     
 
# of ion       s       p       d       tot
------------------------------------------
    1        0.744   1.392   0.000   2.136
    2        0.744   1.392   0.000   2.136
    3        0.744   1.392   0.000   2.136
    4        0.744   1.392   0.000   2.136
    5        0.744   1.392   0.000   2.136
    6        0.744   1.392   0.000   2.136
    7        0.744   1.392   0.000   2.136
    8        0.744   1.392   0.000   2.136
    9        0.744   1.392   0.000   2.136
   10        0.744   1.392   0.000   2.136
   11        0.744   1.392   0.000   2.136
   12        0.744   1.392   0.000   2.136
   13        0.744   1.392   0.000   2.136
   14        0.744   1.392   0.000   2.136
   15        0.744   1.392   0.000   2.136
   16        0.744   1.392   0.000   2.136
   17        0.744   1.392   0.000   2.136
   18        0.744   1.392   0.000   2.136
   19        0.744   1.392   0.000   2.136
   20        0.744   1.392   0.000   2.136
   21        0.744   1.392   0.000   2.136
   22        0.744   1.392   0.000   2.136
   23        0.744   1.392   0.000   2.136
   24        0.744   1.392   0.000   2.136
   25        0.744   1.392   0.000   2.136
   26        0.744   1.392   0.000   2.136
   27        0.744   1.392   0.000   2.136
   28        0.744   1.392   0.000   2.136
   29        0.744   1.392   0.000   2.136
   30        0.744   1.392   0.000   2.136
   31        0.744   1.392   0.000   2.136
   32        0.744   1.392   0.000   2.136
   33        0.744   1.392   0.000   2.136
   34        0.744   1.392   0.000   2.136
   35        0.744   1.392   0.000   2.136
   36        0.744   1.392   0.000   2.136
   37        0.744   1.392   0.000   2.136
   38        0.744   1.392   0.000   2.136
   39        0.744   1.392   0.000   2.136
   40        0.744   1.392   0.000   2.136
   41        0.744   1.392   0.000   2.136
   42        0.744   1.392   0.000   2.136
   43        0.744   1.392   0.000   2.136
   44        0.744   1.392   0.000   2.136
   45        0.744   1.392   0.000   2.136
   46        0.744   1.392   0.000   2.136
   47        0.744   1.392   0.000   2.136
   48        0.744   1.392   0.000   2.136
   49        0.744   1.392   0.000   2.136
   50        0.744   1.392   0.000   2.136
   51        0.744   1.392   0.000   2.136
   52        0.744   1.392   0.000   2.136
   53        0.744   1.392   0.000   2.136
   54        0.744   1.392   0.000   2.136
   55        0.744   1.392   0.000   2.136
   56        0.744   1.392   0.000   2.136
   57        0.744   1.392   0.000   2.136
   58        0.744   1.392   0.000   2.136
   59        0.744   1.392   0.000   2.136
   60        0.744   1.392   0.000   2.136
   61        0.744   1.392   0.000   2.136
   62        0.744   1.392   0.000   2.136
   63        0.744   1.392   0.000   2.136
   64        0.744   1.392   0.000   2.136
   65        1.239   2.817   0.000   4.057
   66        1.239   2.817   0.000   4.057
   67        1.239   2.817   0.000   4.057
   68        1.239   2.817   0.000   4.057
   69        1.239   2.817   0.000   4.057
   70        1.239   2.817   0.000   4.057
   71        1.239   2.817   0.000   4.057
   72        1.239   2.817   0.000   4.057
   73        1.239   2.817   0.000   4.057
   74        1.239   2.817   0.000   4.056
   75        1.239   2.817   0.000   4.057
   76        1.239   2.817   0.000   4.057
   77        1.239   2.817   0.000   4.057
   78        1.239   2.817   0.000   4.057
   79        1.239   2.817   0.000   4.057
   80        1.239   2.817   0.000   4.057
   81        1.239   2.817   0.000   4.057
   82        1.239   2.817   0.000   4.056
   83        1.239   2.817   0.000   4.057
   84        1.239   2.817   0.000   4.057
   85        1.239   2.817   0.000   4.057
   86        1.239   2.817   0.000   4.057
   87        1.239   2.817   0.000   4.057
   88        1.239   2.817   0.000   4.057
   89        1.239   2.817   0.000   4.057
   90        1.239   2.817   0.000   4.057
   91        1.239   2.817   0.000   4.057
   92        1.239   2.817   0.000   4.057
   93        1.239   2.817   0.000   4.057
   94        1.239   2.817   0.000   4.057
   95        1.239   2.817   0.000   4.057
   96        1.239   2.817   0.000   4.057
   97        1.239   2.817   0.000   4.057
   98        1.239   2.817   0.000   4.057
   99        1.239   2.817   0.000   4.057
  100        1.239   2.817   0.000   4.057
  101        1.239   2.817   0.000   4.057
  102        1.239   2.817   0.000   4.057
  103        1.239   2.817   0.000   4.057
  104        1.239   2.817   0.000   4.057
  105        1.239   2.817   0.000   4.057
  106        1.239   2.817   0.000   4.057
  107        1.239   2.817   0.000   4.057
  108        1.239   2.817   0.000   4.057
  109        1.239   2.817   0.000   4.057
  110        1.239   2.817   0.000   4.057
  111        1.239   2.817   0.000   4.057
  112        1.239   2.817   0.000   4.057
  113        1.239   2.817   0.000   4.057
  114        1.239   2.817   0.000   4.057
  115        1.239   2.817   0.000   4.057
  116        1.239   2.817   0.000   4.057
  117        1.239   2.817   0.000   4.057
  118        1.239   2.817   0.000   4.057
  119        1.239   2.817   0.000   4.057
  120        1.239   2.817   0.000   4.057
  121        1.239   2.817   0.000   4.057
  122        1.239   2.817   0.000   4.057
  123        1.239   2.817   0.000   4.057
  124        1.239   2.817   0.000   4.057
  125        1.239   2.817   0.000   4.057
  126        1.239   2.817   0.000   4.057
  127        1.239   2.817   0.000   4.057
  128        1.239   2.817   0.000   4.057
  129        0.820   1.559   0.000   2.379
  130        0.836   1.593   0.000   2.429
  131        0.876   1.725   0.000   2.601
  132        1.758   4.414   0.000   6.172
  133        1.757   4.412   0.000   6.170
  134        1.758   4.413   0.000   6.171
  135        1.755   4.402   0.000   6.157
  136        1.755   4.403   0.000   6.159
  137        1.590   3.568   0.000   5.159
  138        1.590   3.569   0.000   5.159
--------------------------------------------------
tot        141.402 303.470   0.000 444.872
 


 magnetization (x)
 
# of ion       s       p       d       tot
------------------------------------------
    1       -0.000  -0.000   0.000  -0.000
    2       -0.000  -0.000   0.000  -0.000
    3       -0.000  -0.000   0.000  -0.000
    4       -0.000  -0.000   0.000  -0.000
    5       -0.000  -0.000   0.000  -0.000
    6       -0.000  -0.000   0.000  -0.000
    7       -0.000  -0.000   0.000  -0.000
    8       -0.000  -0.000   0.000  -0.000
    9       -0.000  -0.000   0.000  -0.000
   10       -0.000  -0.000   0.000  -0.000
   11       -0.000  -0.000   0.000  -0.000
   12       -0.000  -0.000   0.000  -0.000
   13       -0.000  -0.000   0.000  -0.000
   14       -0.000  -0.000   0.000  -0.000
   15       -0.000  -0.000   0.000  -0.000
   16       -0.000  -0.000   0.000  -0.000
   17       -0.000  -0.000   0.000  -0.000
   18       -0.000  -0.000   0.000  -0.000
   19       -0.000  -0.000   0.000  -0.000
   20       -0.000  -0.000   0.000  -0.000
   21       -0.000  -0.000   0.000  -0.000
   22       -0.000  -0.000   0.000  -0.000
   23       -0.000  -0.000   0.000  -0.000
   24       -0.000  -0.000   0.000  -0.000
   25       -0.000  -0.000   0.000  -0.000
   26       -0.000  -0.000   0.000  -0.000
   27       -0.000  -0.000   0.000  -0.000
   28       -0.000  -0.000   0.000  -0.000
   29       -0.000  -0.000   0.000  -0.000
   30       -0.000  -0.000   0.000  -0.000
   31       -0.000  -0.000   0.000  -0.000
   32       -0.000  -0.000   0.000  -0.000
   33       -0.000  -0.000   0.000  -0.000
   34       -0.000  -0.000   0.000  -0.000
   35       -0.000  -0.000   0.000  -0.000
   36       -0.000  -0.000   0.000  -0.000
   37       -0.000  -0.000   0.000  -0.000
   38       -0.000  -0.000   0.000  -0.000
   39       -0.000  -0.000   0.000  -0.000
   40       -0.000  -0.000   0.000  -0.000
   41       -0.000  -0.000   0.000  -0.000
   42       -0.000  -0.000   0.000  -0.000
   43       -0.000  -0.000   0.000  -0.000
   44       -0.000  -0.000   0.000  -0.000
   45       -0.000  -0.000   0.000  -0.000
   46       -0.000  -0.000   0.000  -0.000
   47       -0.000  -0.000   0.000  -0.000
   48       -0.000  -0.000   0.000  -0.000
   49       -0.000  -0.000   0.000  -0.000
   50       -0.000  -0.000   0.000  -0.000
   51       -0.000  -0.000   0.000  -0.000
   52       -0.000  -0.000   0.000  -0.000
   53       -0.000  -0.000   0.000  -0.000
   54       -0.000  -0.000   0.000  -0.000
   55       -0.000  -0.000   0.000  -0.000
   56       -0.000  -0.000   0.000  -0.000
   57       -0.000  -0.000   0.000  -0.000
   58       -0.000  -0.000   0.000  -0.000
   59       -0.000  -0.000   0.000  -0.000
   60       -0.000  -0.000   0.000  -0.000
   61       -0.000  -0.000   0.000  -0.000
   62       -0.000  -0.000   0.000  -0.000
   63       -0.000  -0.000   0.000  -0.000
   64       -0.000  -0.000   0.000  -0.000
   65        0.000   0.000   0.000   0.000
   66        0.000   0.000   0.000   0.000
   67        0.000   0.000   0.000   0.000
   68        0.000   0.000   0.000   0.000
   69        0.000   0.000   0.000   0.000
   70        0.000   0.000   0.000   0.000
   71        0.000   0.000   0.000   0.000
   72        0.000   0.000   0.000   0.000
   73        0.000   0.000   0.000   0.000
   74        0.000   0.000   0.000   0.000
   75        0.000   0.000   0.000   0.000
   76        0.000   0.000   0.000   0.000
   77        0.000   0.000   0.000   0.000
   78        0.000   0.000   0.000   0.000
   79        0.000   0.000   0.000   0.000
   80        0.000   0.000   0.000   0.000
   81        0.000   0.000   0.000   0.000
   82        0.000   0.000   0.000   0.000
   83       -0.000   0.000   0.000   0.000
   84        0.000   0.000   0.000   0.000
   85        0.000   0.000   0.000   0.000
   86        0.000   0.000   0.000   0.000
   87        0.000   0.000   0.000   0.000
   88        0.000   0.000   0.000   0.000
   89        0.000   0.000   0.000   0.000
   90        0.000   0.000   0.000   0.000
   91       -0.000   0.000   0.000   0.000
   92        0.000   0.000   0.000   0.000
   93        0.000   0.000   0.000   0.000
   94        0.000   0.000   0.000   0.000
   95        0.000   0.000   0.000   0.000
   96        0.000   0.000   0.000   0.000
   97        0.000   0.000   0.000   0.000
   98        0.000   0.000   0.000   0.000
   99        0.000   0.000   0.000   0.000
  100        0.000   0.000   0.000   0.000
  101        0.000   0.000   0.000   0.000
  102        0.000   0.000   0.000   0.000
  103        0.000   0.000   0.000   0.000
  104        0.000   0.000   0.000   0.000
  105        0.000   0.000   0.000   0.000
  106        0.000   0.000   0.000   0.000
  107        0.000   0.000   0.000   0.000
  108        0.000   0.000   0.000   0.000
  109        0.000   0.000   0.000   0.000
  110        0.000   0.000   0.000   0.000
  111        0.000   0.000   0.000   0.000
  112        0.000   0.000   0.000   0.000
  113        0.000   0.000   0.000   0.000
  114        0.000   0.000   0.000   0.000
  115        0.000   0.000   0.000   0.000
  116        0.000   0.000   0.000   0.000
  117        0.000   0.000   0.000   0.000
  118        0.000   0.000   0.000   0.000
  119        0.000   0.000   0.000   0.000
  120        0.000   0.000   0.000   0.000
  121        0.000   0.000   0.000   0.000
  122        0.000   0.000   0.000   0.000
  123        0.000   0.000   0.000   0.000
  124        0.000   0.000   0.000   0.000
  125        0.000   0.000   0.000   0.000
  126        0.000   0.000   0.000   0.000
  127        0.000   0.000   0.000   0.000
  128        0.000   0.000   0.000   0.000
  129       -0.000  -0.000   0.000  -0.000
  130       -0.000  -0.001   0.000  -0.001
  131       -0.001  -0.006   0.000  -0.007
  132        0.000   0.000   0.000   0.000
  133       -0.000  -0.000   0.000  -0.000
  134        0.000   0.000   0.000   0.000
  135        0.000   0.002   0.000   0.002
  136        0.000   0.002   0.000   0.002
  137        0.001   0.081   0.000   0.082
  138        0.001   0.078   0.000   0.079
--------------------------------------------------
tot          0.001   0.158   0.000   0.158
 

 total amount of memory used by VASP MPI-rank0  2733406. kBytes
=======================================================================

   base      :      30000. kBytes
   nonlr-proj:      63779. kBytes
   fftplans  :     108234. kBytes
   grid      :    1287382. kBytes
   one-center:        847. kBytes
   wavefun   :    1243164. kBytes
 
  
  
 General timing and accounting informations for this job:
 ========================================================
  
                  Total CPU time used (sec):    10263.751
                            User time (sec):     9263.868
                          System time (sec):      999.883
                         Elapsed time (sec):     8389.380
  
                   Maximum memory used (kb):     4963324.
                   Average memory used (kb):           0.
  
                          Minor page faults:      2028049
                          Major page faults:            0
                 Voluntary context switches:        77719
