 vasp.5.4.4.18Apr17-6-g9f103f2a35 (build Jun 11 2020 13:42:08) complex          
  
 executed on             LinuxIFC date 2021.02.03  10:06:04
 running on   48 total cores
 distrk:  each k-point on   16 cores,    3 groups
 distr:  one band on NCORES_PER_BAND=   1 cores,   16 groups


--------------------------------------------------------------------------------------------------------


 INCAR:
 POTCAR:    PAW_PBE B 06Sep2000                   
 POTCAR:    PAW_PBE N 08Apr2002                   
 POTCAR:    PAW_PBE C 08Apr2002                   
 POTCAR:    PAW_PBE F 08Apr2002                   
 POTCAR:    PAW_PBE O 08Apr2002                   

 ----------------------------------------------------------------------------- 
|                                                                             |
|           W    W    AA    RRRRR   N    N  II  N    N   GGGG   !!!           |
|           W    W   A  A   R    R  NN   N  II  NN   N  G    G  !!!           |
|           W    W  A    A  R    R  N N  N  II  N N  N  G       !!!           |
|           W WW W  AAAAAA  RRRRR   N  N N  II  N  N N  G  GGG   !            |
|           WW  WW  A    A  R   R   N   NN  II  N   NN  G    G                |
|           W    W  A    A  R    R  N    N  II  N    N   GGGG   !!!           |
|                                                                             |
|      For optimal performance we recommend to set                            |
|        NCORE= 4 - approx SQRT( number of cores)                             |
|      NCORE specifies how many cores store one orbital (NPAR=cpu/NCORE).     |
|      This setting can  greatly improve the performance of VASP for DFT.     |
|      The default,   NCORE=1            might be grossly inefficient         |
|      on modern multi-core architectures or massively parallel machines.     |
|      Do your own testing !!!!                                               |
|      Unfortunately you need to use the default for GW and RPA calculations. |
|      (for HF NCORE is supported but not extensively tested yet)             |
|                                                                             |
 ----------------------------------------------------------------------------- 


 ----------------------------------------------------------------------------- 
|                                                                             |
|           W    W    AA    RRRRR   N    N  II  N    N   GGGG   !!!           |
|           W    W   A  A   R    R  NN   N  II  NN   N  G    G  !!!           |
|           W    W  A    A  R    R  N N  N  II  N N  N  G       !!!           |
|           W WW W  AAAAAA  RRRRR   N  N N  II  N  N N  G  GGG   !            |
|           WW  WW  A    A  R   R   N   NN  II  N   NN  G    G                |
|           W    W  A    A  R    R  N    N  II  N    N   GGGG   !!!           |
|                                                                             |
|      You have enabled k-point parallelism (KPAR>1).                         |
|      This developmental code was originally  written by Paul Kent at ORNL,  |
|      and carefully double checked in Vienna.                                |
|      GW as well as linear response parallelism added by Martijn Marsman     |
|      and Georg Kresse.                                                      |
|      Carefully verify results versus KPAR=1.                                |
|      Report problems to Paul Kent and Vienna.                               |
|                                                                             |
 ----------------------------------------------------------------------------- 

 POTCAR:    PAW_PBE B 06Sep2000                   
   VRHFIN =B: s2p1                                                              
   LEXCH  = PE                                                                  
   EATOM  =    71.1703 eV,    5.2309 Ry                                         
                                                                                
   TITEL  = PAW_PBE B 06Sep2000                                                 
   LULTRA =        F    use ultrasoft PP ?                                      
   IUNSCR =        1    unscreen: 0-lin 1-nonlin 2-no                           
   RPACOR =    1.200    partial core radius                                     
   POMASS =   10.811; ZVAL   =    3.000    mass and valenz                      
   RCORE  =    1.700    outmost cutoff radius                                   
   RWIGS  =    1.710; RWIGS  =    0.905    wigner-seitz radius (au A)           
   ENMAX  =  318.614; ENMIN  =  238.960 eV                                      
   ICORE  =        2    local potential                                         
   LCOR   =        T    correct aug charges                                     
   LPAW   =        T    paw PP                                                  
   EAUG   =  535.514                                                            
   DEXC   =    0.000                                                            
   RMAX   =    1.732    core radius for proj-oper                               
   RAUG   =    1.300    factor for augmentation sphere                          
   RDEP   =    1.757    radius for radial grids                                 
   RDEPT  =    1.436    core radius for aug-charge                              
                                                                                
   Atomic configuration                                                         
    4 entries                                                                   
     n  l   j            E        occ.                                          
     1  0  0.50      -180.5896   2.0000                                         
     2  0  0.50        -9.4431   2.0000                                         
     2  1  0.50        -3.6068   1.0000                                         
     3  2  1.50        -4.0817   0.0000                                         
   Description                                                                  
     l       E           TYP  RCUT    TYP  RCUT                                 
     0     -9.4430752     23  1.500                                             
     0      0.8675899     23  1.500                                             
     1     -3.6067955     23  1.700                                             
     1      6.1086146     23  1.700                                             
     2     -4.0817478      7  1.700                                             
  local pseudopotential read in
  partial core-charges read in
  partial kinetic energy density read in
  atomic valenz-charges read in
  non local Contribution for L=           0  read in
    real space projection operators read in
  non local Contribution for L=           0  read in
    real space projection operators read in
  non local Contribution for L=           1  read in
    real space projection operators read in
  non local Contribution for L=           1  read in
    real space projection operators read in
    PAW grid and wavefunctions read in
 
   number of l-projection  operators is LMAX  =           4
   number of lm-projection operators is LMMAX =           8
 
 POTCAR:    PAW_PBE N 08Apr2002                   
   VRHFIN =N: s2p3                                                              
   LEXCH  = PE                                                                  
   EATOM  =   264.5486 eV,   19.4438 Ry                                         
                                                                                
   TITEL  = PAW_PBE N 08Apr2002                                                 
   LULTRA =        F    use ultrasoft PP ?                                      
   IUNSCR =        1    unscreen: 0-lin 1-nonlin 2-no                           
   RPACOR =    1.200    partial core radius                                     
   POMASS =   14.001; ZVAL   =    5.000    mass and valenz                      
   RCORE  =    1.500    outmost cutoff radius                                   
   RWIGS  =    1.400; RWIGS  =    0.741    wigner-seitz radius (au A)           
   ENMAX  =  400.000; ENMIN  =  300.000 eV                                      
   ICORE  =        2    local potential                                         
   LCOR   =        T    correct aug charges                                     
   LPAW   =        T    paw PP                                                  
   EAUG   =  627.112                                                            
   DEXC   =    0.000                                                            
   RMAX   =    1.529    core radius for proj-oper                               
   RAUG   =    1.300    factor for augmentation sphere                          
   RDEP   =    1.514    radius for radial grids                                 
   RDEPT  =    1.338    core radius for aug-charge                              
                                                                                
   Atomic configuration                                                         
    4 entries                                                                   
     n  l   j            E        occ.                                          
     1  0  0.50      -384.7179   2.0000                                         
     2  0  0.50       -18.5828   2.0000                                         
     2  1  0.50        -7.0898   3.0000                                         
     3  2  1.50        -6.8029   0.0000                                         
   Description                                                                  
     l       E           TYP  RCUT    TYP  RCUT                                 
     0    -18.5828119     23  1.200                                             
     0    -13.5018863     23  1.200                                             
     1     -7.0897853     23  1.500                                             
     1      9.5240782     23  1.500                                             
     2     -6.8029130      7  1.500                                             
  local pseudopotential read in
  partial core-charges read in
  partial kinetic energy density read in
  atomic valenz-charges read in
  non local Contribution for L=           0  read in
    real space projection operators read in
  non local Contribution for L=           0  read in
    real space projection operators read in
  non local Contribution for L=           1  read in
    real space projection operators read in
  non local Contribution for L=           1  read in
    real space projection operators read in
    PAW grid and wavefunctions read in
 
   number of l-projection  operators is LMAX  =           4
   number of lm-projection operators is LMMAX =           8
 
 POTCAR:    PAW_PBE C 08Apr2002                   
   VRHFIN =C: s2p2                                                              
   LEXCH  = PE                                                                  
   EATOM  =   147.1560 eV,   10.8157 Ry                                         
                                                                                
   TITEL  = PAW_PBE C 08Apr2002                                                 
   LULTRA =        F    use ultrasoft PP ?                                      
   IUNSCR =        1    unscreen: 0-lin 1-nonlin 2-no                           
   RPACOR =    1.200    partial core radius                                     
   POMASS =   12.011; ZVAL   =    4.000    mass and valenz                      
   RCORE  =    1.500    outmost cutoff radius                                   
   RWIGS  =    1.630; RWIGS  =    0.863    wigner-seitz radius (au A)           
   ENMAX  =  400.000; ENMIN  =  300.000 eV                                      
   ICORE  =        2    local potential                                         
   LCOR   =        T    correct aug charges                                     
   LPAW   =        T    paw PP                                                  
   EAUG   =  644.873                                                            
   DEXC   =    0.000                                                            
   RMAX   =    1.529    core radius for proj-oper                               
   RAUG   =    1.300    factor for augmentation sphere                          
   RDEP   =    1.501    radius for radial grids                                 
   RDEPT  =    1.300    core radius for aug-charge                              
                                                                                
   Atomic configuration                                                         
    4 entries                                                                   
     n  l   j            E        occ.                                          
     1  0  0.50      -273.3789   2.0000                                         
     2  0  0.50       -13.7508   2.0000                                         
     2  1  0.50        -5.2854   2.0000                                         
     3  2  1.50        -5.4423   0.0000                                         
   Description                                                                  
     l       E           TYP  RCUT    TYP  RCUT                                 
     0    -13.7508458     23  1.200                                             
     0     -8.2022199     23  1.200                                             
     1     -5.2854383     23  1.500                                             
     1     34.0145650     23  1.500                                             
     2     -5.4423304      7  1.500                                             
  local pseudopotential read in
  partial core-charges read in
  partial kinetic energy density read in
  atomic valenz-charges read in
  non local Contribution for L=           0  read in
    real space projection operators read in
  non local Contribution for L=           0  read in
    real space projection operators read in
  non local Contribution for L=           1  read in
    real space projection operators read in
  non local Contribution for L=           1  read in
    real space projection operators read in
    PAW grid and wavefunctions read in
 
   number of l-projection  operators is LMAX  =           4
   number of lm-projection operators is LMMAX =           8
 
 POTCAR:    PAW_PBE F 08Apr2002                   
   VRHFIN =F: s2p5                                                              
   LEXCH  = PE                                                                  
   EATOM  =   659.6475 eV,   48.4827 Ry                                         
                                                                                
   TITEL  = PAW_PBE F 08Apr2002                                                 
   LULTRA =        F    use ultrasoft PP ?                                      
   IUNSCR =        1    unscreen: 0-lin 1-nonlin 2-no                           
   RPACOR =    1.200    partial core radius                                     
   POMASS =   18.998; ZVAL   =    7.000    mass and valenz                      
   RCORE  =    1.520    outmost cutoff radius                                   
   RWIGS  =    1.500; RWIGS  =    0.794    wigner-seitz radius (au A)           
   ENMAX  =  400.000; ENMIN  =  300.000 eV                                      
   ICORE  =        2    local potential                                         
   LCOR   =        T    correct aug charges                                     
   LPAW   =        T    paw PP                                                  
   EAUG   =  613.614                                                            
   RMAX   =    1.555    core radius for proj-oper                               
   RAUG   =    1.300    factor for augmentation sphere                          
   RDEP   =    1.539    radius for radial grids                                 
   RDEPT  =    1.299    core radius for aug-charge                              
                                                                                
   Atomic configuration                                                         
    4 entries                                                                   
     n  l   j            E        occ.                                          
     1  0  0.50      -663.3661   2.0000                                         
     2  0  0.50       -29.8995   2.0000                                         
     2  1  0.50       -11.1114   5.0000                                         
     3  2  1.50       -10.8847   0.0000                                         
   Description                                                                  
     l       E           TYP  RCUT    TYP  RCUT                                 
     0    -29.8995018     23  1.200                                             
     0     -9.5240782     23  1.200                                             
     1    -11.1113914     23  1.520                                             
     1      1.3605826     23  1.520                                             
     2    -10.8846608      7  1.500                                             
  local pseudopotential read in
  partial core-charges read in
  partial kinetic energy density read in
  atomic valenz-charges read in
  non local Contribution for L=           0  read in
    real space projection operators read in
  non local Contribution for L=           0  read in
    real space projection operators read in
  non local Contribution for L=           1  read in
    real space projection operators read in
  non local Contribution for L=           1  read in
    real space projection operators read in
    PAW grid and wavefunctions read in
 
   number of l-projection  operators is LMAX  =           4
   number of lm-projection operators is LMMAX =           8
 
 POTCAR:    PAW_PBE O 08Apr2002                   
   VRHFIN =O: s2p4                                                              
   LEXCH  = PE                                                                  
   EATOM  =   432.3788 eV,   31.7789 Ry                                         
                                                                                
   TITEL  = PAW_PBE O 08Apr2002                                                 
   LULTRA =        F    use ultrasoft PP ?                                      
   IUNSCR =        1    unscreen: 0-lin 1-nonlin 2-no                           
   RPACOR =    1.200    partial core radius                                     
   POMASS =   16.000; ZVAL   =    6.000    mass and valenz                      
   RCORE  =    1.520    outmost cutoff radius                                   
   RWIGS  =    1.550; RWIGS  =    0.820    wigner-seitz radius (au A)           
   ENMAX  =  400.000; ENMIN  =  300.000 eV                                      
   ICORE  =        2    local potential                                         
   LCOR   =        T    correct aug charges                                     
   LPAW   =        T    paw PP                                                  
   EAUG   =  605.392                                                            
   DEXC   =    0.000                                                            
   RMAX   =    1.553    core radius for proj-oper                               
   RAUG   =    1.300    factor for augmentation sphere                          
   RDEP   =    1.550    radius for radial grids                                 
   RDEPT  =    1.329    core radius for aug-charge                              
                                                                                
   Atomic configuration                                                         
    4 entries                                                                   
     n  l   j            E        occ.                                          
     1  0  0.50      -514.6923   2.0000                                         
     2  0  0.50       -23.9615   2.0000                                         
     2  1  0.50        -9.0305   4.0000                                         
     3  2  1.50        -9.5241   0.0000                                         
   Description                                                                  
     l       E           TYP  RCUT    TYP  RCUT                                 
     0    -23.9615318     23  1.200                                             
     0     -9.5240782     23  1.200                                             
     1     -9.0304911     23  1.520                                             
     1      8.1634956     23  1.520                                             
     2     -9.5240782      7  1.500                                             
  local pseudopotential read in
  partial core-charges read in
  partial kinetic energy density read in
  kinetic energy density of atom read in
  atomic valenz-charges read in
  non local Contribution for L=           0  read in
    real space projection operators read in
  non local Contribution for L=           0  read in
    real space projection operators read in
  non local Contribution for L=           1  read in
    real space projection operators read in
  non local Contribution for L=           1  read in
    real space projection operators read in
    PAW grid and wavefunctions read in
 
   number of l-projection  operators is LMAX  =           4
   number of lm-projection operators is LMMAX =           8
 
 Optimization of the real space projectors (new method)

 maximal supplied QI-value         = 22.11
 optimisation between [QCUT,QGAM] = [ 11.94, 23.88] = [ 39.92,159.67] Ry 
 Optimized for a Real-space Cutoff    1.18 Angstroem

   l    n(q)    QCUT    max X(q) W(low)/X(q) W(high)/X(q)  e(spline) 
   0      8    11.939    53.033    0.11E-03    0.34E-03    0.60E-07
   0      8    11.939    34.740    0.11E-03    0.34E-03    0.59E-07
   1      8    11.939    30.949    0.22E-03    0.20E-03    0.17E-06
   1      8    11.939    19.518    0.20E-03    0.18E-03    0.16E-06
 Optimization of the real space projectors (new method)

 maximal supplied QI-value         = 25.13
 optimisation between [QCUT,QGAM] = [ 11.81, 23.88] = [ 39.08,159.64] Ry 
 Optimized for a Real-space Cutoff    1.41 Angstroem

   l    n(q)    QCUT    max X(q) W(low)/X(q) W(high)/X(q)  e(spline) 
   0     10    11.813    79.467    0.48E-04    0.30E-04    0.67E-06
   0     10    11.813    66.151    0.47E-04    0.30E-04    0.67E-06
   1     10    11.813    20.169    0.11E-03    0.17E-03    0.11E-05
   1     10    11.813    14.454    0.11E-03    0.17E-03    0.11E-05
 Optimization of the real space projectors (new method)

 maximal supplied QI-value         = 25.13
 optimisation between [QCUT,QGAM] = [ 11.81, 23.88] = [ 39.08,159.64] Ry 
 Optimized for a Real-space Cutoff    1.18 Angstroem

   l    n(q)    QCUT    max X(q) W(low)/X(q) W(high)/X(q)  e(spline) 
   0      8    11.813   115.676    0.10E-03    0.16E-03    0.35E-06
   0      8    11.813    87.132    0.10E-03    0.16E-03    0.35E-06
   1      8    11.813     4.429    0.16E-03    0.13E-04    0.22E-06
   1      8    11.813     2.733    0.13E-03    0.10E-04    0.18E-06
 Optimization of the real space projectors (new method)

 maximal supplied QI-value         = 24.76
 optimisation between [QCUT,QGAM] = [ 11.88, 24.01] = [ 39.54,161.47] Ry 
 Optimized for a Real-space Cutoff    1.18 Angstroem

   l    n(q)    QCUT    max X(q) W(low)/X(q) W(high)/X(q)  e(spline) 
   0      8    11.883    14.049    0.56E-04    0.86E-04    0.22E-06
   0      8    11.883     8.945    0.81E-04    0.11E-03    0.30E-06
   1      8    11.883     7.086    0.16E-03    0.15E-04    0.31E-06
   1      8    11.883     6.747    0.15E-03    0.14E-04    0.28E-06
 Optimization of the real space projectors (new method)

 maximal supplied QI-value         = 24.76
 optimisation between [QCUT,QGAM] = [ 11.88, 24.01] = [ 39.54,161.47] Ry 
 Optimized for a Real-space Cutoff    1.18 Angstroem

   l    n(q)    QCUT    max X(q) W(low)/X(q) W(high)/X(q)  e(spline) 
   0      8    11.883    20.381    0.86E-04    0.11E-03    0.31E-06
   0      8    11.883    15.268    0.94E-04    0.12E-03    0.33E-06
   1      8    11.883     5.964    0.19E-03    0.18E-04    0.33E-06
   1      8    11.883     5.382    0.17E-03    0.20E-04    0.29E-06
  PAW_PBE B 06Sep2000                   :
 energy of atom  1       EATOM=  -71.1703
 kinetic energy error for atom=    0.0009 (will be added to EATOM!!)
  PAW_PBE N 08Apr2002                   :
 energy of atom  2       EATOM= -264.5486
 kinetic energy error for atom=    0.0116 (will be added to EATOM!!)
  PAW_PBE C 08Apr2002                   :
 energy of atom  3       EATOM= -147.1560
 kinetic energy error for atom=    0.0066 (will be added to EATOM!!)
  PAW_PBE F 08Apr2002                   :
 energy of atom  4       EATOM= -659.6475
 kinetic energy error for atom=    0.0296 (will be added to EATOM!!)
  PAW_PBE O 08Apr2002                   :
 energy of atom  5       EATOM= -432.3788
 kinetic energy error for atom=    0.0194 (will be added to EATOM!!)
 
 
 POSCAR: B N C F O                               
  positions in direct lattice
  velocities in cartesian coordinates

 METAGGA = SCAN     LMAXTAU =  6    LMIXTAU =  F

 exchange correlation table for  LEXCH =        8
   RHO(1)=    0.500       N(1)  =     2000
   RHO(2)=  100.500       N(2)  =     4000

 VTST: version 3.1, (03/28/14)

 CHAIN: initializing optimizer
 
 OPT: Using VASP Conjugate-Gradient optimizer
 CHAIN: Read ICHAIN            0
 
 POSCAR: B N C F O                               
  positions in direct lattice
  velocities in cartesian coordinates
 


--------------------------------------------------------------------------------------------------------


 ion  position               nearest neighbor table
   1  0.167  0.083  0.500-  20 1.45  17 1.45  21 1.45
   2  0.167  0.333  0.500-  17 1.45  18 1.45  22 1.45
   3  0.167  0.583  0.500-  18 1.45  19 1.45  23 1.45
   4  0.167  0.833  0.500-  19 1.45  20 1.45  24 1.45
   5  0.417  0.083  0.500-  24 1.45  25 1.45  21 1.45
   6  0.417  0.333  0.500-  21 1.45  26 1.45  22 1.45
   7  0.417  0.583  0.500-  23 1.45  22 1.45  27 1.45
   8  0.417  0.833  0.500-  24 1.45  28 1.45  23 1.45
   9  0.667  0.083  0.500-  29 1.45  25 1.45  28 1.45
  10  0.667  0.333  0.500-  30 1.45  25 1.45  26 1.45
  11  0.667  0.583  0.500-  31 1.45  26 1.45  27 1.45
  12  0.667  0.833  0.500-  32 1.45  28 1.45  27 1.45
  13  0.917  0.083  0.500-  17 1.45  29 1.45  32 1.45
  14  0.917  0.333  0.500-  29 1.45  18 1.45  30 1.45
  15  0.917  0.583  0.500-  30 1.45  19 1.45  31 1.45
  16  0.917  0.833  0.500-  20 1.45  31 1.45  32 1.45
  17  0.083  0.167  0.500-   2 1.45  13 1.45   1 1.45
  18  0.083  0.417  0.500-   3 1.45   2 1.45  14 1.45
  19  0.083  0.667  0.500-  15 1.45   4 1.45   3 1.45
  20  0.083  0.917  0.500-   1 1.45  16 1.45   4 1.45
  21  0.333  0.167  0.500-   6 1.45   1 1.45   5 1.45
  22  0.333  0.417  0.500-   7 1.45   6 1.45   2 1.45
  23  0.333  0.667  0.500-   7 1.45   8 1.45   3 1.45
  24  0.333  0.917  0.500-   5 1.45   8 1.45   4 1.45
  25  0.583  0.167  0.500-  10 1.45   5 1.45   9 1.45
  26  0.583  0.417  0.500-  11 1.45   6 1.45  10 1.45
  27  0.583  0.667  0.500-   7 1.45  11 1.45  12 1.45
  28  0.583  0.917  0.500-  12 1.45   8 1.45   9 1.45
  29  0.833  0.167  0.500-   9 1.45  14 1.45  13 1.45
  30  0.833  0.417  0.500-  10 1.45  15 1.45  14 1.45
  31  0.833  0.667  0.500-  11 1.45  16 1.45  15 1.45
  32  0.833  0.917  0.500-  12 1.45  13 1.45  16 1.45
  33  0.560  0.470  0.673-  36 1.34  38 1.34  37 1.35  34 1.54
  34  0.533  0.465  0.630-  40 1.33  39 1.33  33 1.54  35 1.90
  35  0.514  0.639  0.617-  42 1.20  41 1.20  34 1.90
  36  0.693  0.594  0.682-  33 1.34
  37  0.567  0.344  0.683-  33 1.35
  38  0.445  0.470  0.692-  33 1.34
  39  0.650  0.476  0.610-  34 1.33
  40  0.403  0.340  0.620-  34 1.33
  41  0.644  0.742  0.613-  35 1.20
  42  0.378  0.592  0.616-  35 1.20
 

IMPORTANT INFORMATION: All symmetrisations will be switched off!
NOSYMM: (Re-)initialisation of all symmetry stuff for point group C_1.

 
 
 KPOINTS: K-Point Grid                            

Automatic generation of k-mesh.
Space group operators:
 irot       det(A)        alpha          n_x          n_y          n_z        tau_x        tau_y        tau_z
    1     1.000000     0.000000     1.000000     0.000000     0.000000     0.000000     0.000000     0.000000
 
 Subroutine IBZKPT returns following result:
 ===========================================
 
 Found     24 irreducible k-points:
 
 Following reciprocal coordinates:
            Coordinates               Weight
  0.125000  0.125000  0.000000     16.000000
  0.250000 -0.125000  0.000000     16.000000
  0.125000 -0.250000  0.000000     16.000000
  0.375000  0.125000  0.000000     16.000000
  0.500000 -0.375000  0.000000     16.000000
  0.125000  0.500000  0.000000     16.000000
 -0.125000 -0.375000  0.000000     16.000000
  0.375000  0.500000  0.000000     16.000000
  0.500000 -0.125000  0.000000     16.000000
 -0.375000  0.125000  0.000000     16.000000
 -0.250000  0.375000  0.000000     16.000000
  0.125000  0.250000  0.000000     16.000000
 -0.125000  0.375000  0.000000     16.000000
 -0.375000  0.250000  0.000000     16.000000
 -0.250000 -0.125000  0.000000     16.000000
 -0.125000  0.125000  0.000000     16.000000
  0.000000  0.125000  0.000000     16.000000
  0.125000  0.000000  0.000000     16.000000
  0.375000  0.375000  0.000000     16.000000
 -0.250000 -0.375000  0.000000     16.000000
  0.375000  0.250000  0.000000     16.000000
 -0.375000  0.375000  0.000000     16.000000
  0.000000  0.375000  0.000000     16.000000
  0.375000  0.000000  0.000000     16.000000
 
 Following cartesian coordinates:
            Coordinates               Weight
  0.024879  0.000000  0.000000     16.000000
  0.012439 -0.021546  0.000000     16.000000
 -0.012439 -0.021546  0.000000     16.000000
  0.049758 -0.014364  0.000000     16.000000
  0.012439 -0.050273  0.000000     16.000000
  0.062197  0.021546  0.000000     16.000000
 -0.049758 -0.014364  0.000000     16.000000
  0.087076  0.007182  0.000000     16.000000
  0.037318 -0.035909  0.000000     16.000000
 -0.024879  0.028727  0.000000     16.000000
  0.012439  0.035909  0.000000     16.000000
  0.037318  0.007182  0.000000     16.000000
  0.024879  0.028727  0.000000     16.000000
 -0.012439  0.035909  0.000000     16.000000
 -0.037318  0.007182  0.000000     16.000000
  0.000000  0.014364  0.000000     16.000000
  0.012439  0.007182  0.000000     16.000000
  0.012439 -0.007182  0.000000     16.000000
  0.074636  0.000000  0.000000     16.000000
 -0.062197 -0.007182  0.000000     16.000000
  0.062197 -0.007182  0.000000     16.000000
  0.000000  0.043091  0.000000     16.000000
  0.037318  0.021546  0.000000     16.000000
  0.037318 -0.021546  0.000000     16.000000
 


--------------------------------------------------------------------------------------------------------




 Dimension of arrays:
   k-points           NKPTS =     24   k-points in BZ     NKDIM =     24   number of bands    NBANDS=    144
   number of dos      NEDOS =   1200   number of ions     NIONS =     42
   non local maximal  LDIM  =      4   non local SUM 2l+1 LMDIM =      8
   total plane-waves  NPLWV = ******
   max r-space proj   IRMAX =   6598   max aug-charges    IRDMAX=   8974
   dimension x,y,z NGX =    80 NGY =   80 NGZ =  270
   dimension x,y,z NGXF=   160 NGYF=  160 NGZF=  540
   support grid    NGXF=   160 NGYF=  160 NGZF=  540
   ions per type =              16  16   3   5   2
   NGX,Y,Z   is equivalent  to a cutoff of  13.24, 13.24, 12.78 a.u.
   NGXF,Y,Z  is equivalent  to a cutoff of  26.47, 26.47, 25.57 a.u.

 SYSTEM =  hBN                                     
 POSCAR =  B N C F O                               

 Startparameter for this run:
   NWRITE =      2    write-flag & timer
   PREC   = accura    normal or accurate (medium, high low for compatibility)
   ISTART =      1    job   : 0-new  1-cont  2-samecut
   ICHARG =      0    charge: 1-file 2-atom 10-const
   ISPIN  =      2    spin polarized calculation?
   LNONCOLLINEAR =      F non collinear calculations
   LSORBIT =      F    spin-orbit coupling
   INIWAV =      1    electr: 0-lowe 1-rand  2-diag
   LASPH  =      T    aspherical Exc in radial PAW
   METAGGA=      F    non-selfconsistent MetaGGA calc.

 Electronic Relaxation 1
   ENCUT  =  550.0 eV  40.42 Ry    6.36 a.u.  19.22 19.22 67.15*2*pi/ulx,y,z
   ENINI  =  550.0     initial cutoff
   ENAUG  =  644.9 eV  augmentation charge cutoff
   NELM   =    100;   NELMIN=  2; NELMDL=  0     # of ELM steps 
   EDIFF  = 0.1E-04   stopping-criterion for ELM
   LREAL  =      T    real-space projection
   NLSPLINE    = F    spline interpolate recip. space projectors
   LCOMPAT=      F    compatible to vasp.4.4
   GGA_COMPAT  = T    GGA compatible to vasp.4.4-vasp.4.6
   LMAXPAW     = -100 max onsite density
   LMAXMIX     =    2 max onsite mixed and CHGCAR
   VOSKOWN=      0    Vosko Wilk Nusair interpolation
   ROPT   =   -0.00025  -0.00025  -0.00025  -0.00025
   ROPT   =   -0.00025
 Ionic relaxation
   EDIFFG = -.5E-01   stopping-criterion for IOM
   NSW    =      0    number of steps for IOM
   NBLOCK =      1;   KBLOCK =      1    inner block; outer block 
   IBRION =     -1    ionic relax: 0-MD 1-quasi-New 2-CG
   NFREE  =      1    steps in history (QN), initial steepest desc. (CG)
   ISIF   =      2    stress and relaxation
   IWAVPR =     10    prediction:  0-non 1-charg 2-wave 3-comb
   ISYM   =      0    0-nonsym 1-usesym 2-fastsym
   LCORR  =      T    Harris-Foulkes like correction to forces

   POTIM  = 0.5000    time-step for ionic-motion
   TEIN   =    0.0    initial temperature
   TEBEG  =    0.0;   TEEND  =   0.0 temperature during run
   SMASS  =  -3.00    Nose mass-parameter (am)
   estimated Nose-frequenzy (Omega)   =  0.10E-29 period in steps =****** mass=  -0.231E-26a.u.
   SCALEE = 1.0000    scale energy and forces
   NPACO  =    256;   APACO  = 16.0  distance and # of slots for P.C.
   PSTRESS=    0.0 pullay stress

  Mass of Ions in am
   POMASS =  10.81 14.00 12.01 19.00 16.00
  Ionic Valenz
   ZVAL   =   3.00  5.00  4.00  7.00  6.00
  Atomic Wigner-Seitz radii
   RWIGS  =  -1.00 -1.00 -1.00 -1.00 -1.00
  virtual crystal weights 
   VCA    =   1.00  1.00  1.00  1.00  1.00
   NELECT =     187.0000    total number of electrons
   NUPDOWN=      -1.0000    fix difference up-down

 DOS related values:
   EMIN   = -10.00;   EMAX   =  5.00  energy-range for DOS
   EFERMI =   0.00
   ISMEAR =     0;   SIGMA  =   0.05  broadening in eV -4-tet -1-fermi 0-gaus

 Electronic relaxation 2 (details)
   IALGO  =     68    algorithm
   LDIAG  =      T    sub-space diagonalisation (order eigenvalues)
   LSUBROT=      F    optimize rotation matrix (better conditioning)
   TURBO    =      0    0=normal 1=particle mesh
   IRESTART =      0    0=no restart 2=restart with 2 vectors
   NREBOOT  =      0    no. of reboots
   NMIN     =      0    reboot dimension
   EREF     =   0.00    reference energy to select bands
   IMIX   =      4    mixing-type and parameters
     AMIX     =   0.40;   BMIX     =  1.00
     AMIX_MAG =   1.60;   BMIX_MAG =  1.00
     AMIN     =   0.10
     WC   =   100.;   INIMIX=   1;  MIXPRE=   1;  MAXMIX= -45

 Intra band minimization:
   WEIMIN = 0.0000     energy-eigenvalue tresh-hold
   EBREAK =  0.17E-07  absolut break condition
   DEPER  =   0.30     relativ break condition  

   TIME   =   0.40     timestep for ELM

  volume/ion in A,a.u.               =      73.11       493.39
  Fermi-wavevector in a.u.,A,eV,Ry     =   0.644081  1.217137  5.644253  0.414841
  Thomas-Fermi vector in A             =   1.711293
 
 Write flags
   LWAVE        =      T    write WAVECAR
   LDOWNSAMPLE  =      F    k-point downsampling of WAVECAR
   LCHARG       =      T    write CHGCAR
   LVTOT        =      F    write LOCPOT, total local potential
   LVHAR        =      T    write LOCPOT, Hartree potential only
   LELF         =      F    write electronic localiz. function (ELF)
   LORBIT       =     11    0 simple, 1 ext, 2 COOP (PROOUT), +10 PAW based schemes


 Dipole corrections
   LMONO  =      F    monopole corrections only (constant potential shift)
   LDIPOL =      F    correct potential (dipole corrections)
   IDIPOL =      0    1-x, 2-y, 3-z, 4-all directions 
   EPSILON=  1.0000000 bulk dielectric constant

 Exchange correlation treatment:
   GGA     =    --    GGA type
   LEXCH   =     8    internal setting for exchange type
   VOSKOWN=      0    Vosko Wilk Nusair interpolation
   LHFCALC =     F    Hartree Fock is set to
   LHFONE  =     F    Hartree Fock one center treatment
   AEXX    =    0.0000 exact exchange contribution

 Linear response parameters
   LEPSILON=     F    determine dielectric tensor
   LRPA    =     F    only Hartree local field effects (RPA)
   LNABLA  =     F    use nabla operator in PAW spheres
   LVEL    =     F    velocity operator in full k-point grid
   LINTERFAST=   F  fast interpolation
   KINTER  =     0    interpolate to denser k-point grid
   CSHIFT  =0.1000    complex shift for real part using Kramers Kronig
   OMEGAMAX=  -1.0    maximum frequency
   DEG_THRESHOLD= 0.2000000E-02 threshold for treating states as degnerate
   RTIME   =   -0.100 relaxation time in fs
  (WPLASMAI=    0.000 imaginary part of plasma frequency in eV, 0.658/RTIME)
   DFIELD  = 0.0000000 0.0000000 0.0000000 field for delta impulse in time
 
 Orbital magnetization related:
   ORBITALMAG=     F  switch on orbital magnetization
   LCHIMAG   =     F  perturbation theory with respect to B field
   DQ        =  0.001000  dq finite difference perturbation B field
   LLRAUG    =     F  two centre corrections for induced B field

 Solvation model:
   LSOL    =     T         switch on solvation model
   EB_K    = 78.400000     relative permittivity of the bulk solvent
   SIGMA_K =  0.600000     width of the dielectric cavity
   NC_K    =  0.002500     cutoff charge density
   TAU     =  0.000000     cavity surface tension
   LAMBDA_D_K    =  3.040000     Debye length in Angstroms
   LRHOB     =     F     write boundcharge  density
   LRHOION     =     F     write ioniccharge density



--------------------------------------------------------------------------------------------------------


 Static calculation
 charge density and potential will be updated during run
 spin polarized calculation
 RMM-DIIS sequential band-by-band and
  variant of blocked Davidson during initial phase
 perform sub-space diagonalisation
    before iterative eigenvector-optimisation
 modified Broyden-mixing scheme, WC =      100.0
 initial mixing is a Kerker type mixing with AMIX =  0.4000 and BMIX =      1.0000
 Hartree-type preconditioning will be used
 using additional bands           50
 real space projection scheme for non local part
 use partial core corrections
 calculate Harris-corrections to forces 
   (improved forces if not selfconsistent)
 use gradient corrections 
 use of overlap-Matrix (Vanderbilt PP)
 Gauss-broadening in eV      SIGMA  =   0.05


--------------------------------------------------------------------------------------------------------


  energy-cutoff  :      550.00
  volume of cell :     3070.74
      direct lattice vectors                 reciprocal lattice vectors
     5.024366704 -8.702497373  0.000000000     0.099515029 -0.057454772  0.000000000
     5.024366704  8.702497373  0.000000000     0.099515029  0.057454772  0.000000000
     0.000000000  0.000000000 35.114664386     0.000000000  0.000000000  0.028478131

  length of vectors
    10.048767154 10.048767154 35.114664386     0.114909929  0.114909929  0.028478131


 
 old parameters found on file WAVECAR:
  energy-cutoff  :      550.00
  volume of cell :     3070.74
      direct lattice vectors                 reciprocal lattice vectors
     5.024366704 -8.702497373  0.000000000     0.099515029 -0.057454772  0.000000000
     5.024366704  8.702497373  0.000000000     0.099515029  0.057454772  0.000000000
     0.000000000  0.000000000 35.114664386     0.000000000  0.000000000  0.028478131

  length of vectors

 
 k-points in units of 2pi/SCALE and weight: K-Point Grid                            
   0.02487876  0.00000000  0.00000000       0.042
   0.01243938 -0.02154554  0.00000000       0.042
  -0.01243938 -0.02154554  0.00000000       0.042
   0.04975751 -0.01436369  0.00000000       0.042
   0.01243938 -0.05027293  0.00000000       0.042
   0.06219689  0.02154554  0.00000000       0.042
  -0.04975751 -0.01436369  0.00000000       0.042
   0.08707565  0.00718185  0.00000000       0.042
   0.03731814 -0.03590923  0.00000000       0.042
  -0.02487876  0.02872739  0.00000000       0.042
   0.01243938  0.03590923  0.00000000       0.042
   0.03731814  0.00718185  0.00000000       0.042
   0.02487876  0.02872739  0.00000000       0.042
  -0.01243938  0.03590923  0.00000000       0.042
  -0.03731814  0.00718185  0.00000000       0.042
   0.00000000  0.01436369  0.00000000       0.042
   0.01243938  0.00718185  0.00000000       0.042
   0.01243938 -0.00718185  0.00000000       0.042
   0.07463627  0.00000000  0.00000000       0.042
  -0.06219689 -0.00718185  0.00000000       0.042
   0.06219689 -0.00718185  0.00000000       0.042
   0.00000000  0.04309108  0.00000000       0.042
   0.03731814  0.02154554  0.00000000       0.042
   0.03731814 -0.02154554  0.00000000       0.042
 
 k-points in reciprocal lattice and weights: K-Point Grid                            
   0.12500000  0.12500000  0.00000000       0.042
   0.25000000 -0.12500000  0.00000000       0.042
   0.12500000 -0.25000000  0.00000000       0.042
   0.37500000  0.12500000  0.00000000       0.042
   0.50000000 -0.37500000  0.00000000       0.042
   0.12500000  0.50000000  0.00000000       0.042
  -0.12500000 -0.37500000  0.00000000       0.042
   0.37500000  0.50000000  0.00000000       0.042
   0.50000000 -0.12500000  0.00000000       0.042
  -0.37500000  0.12500000  0.00000000       0.042
  -0.25000000  0.37500000  0.00000000       0.042
   0.12500000  0.25000000  0.00000000       0.042
  -0.12500000  0.37500000  0.00000000       0.042
  -0.37500000  0.25000000  0.00000000       0.042
  -0.25000000 -0.12500000  0.00000000       0.042
  -0.12500000  0.12500000  0.00000000       0.042
   0.00000000  0.12500000  0.00000000       0.042
   0.12500000  0.00000000  0.00000000       0.042
   0.37500000  0.37500000  0.00000000       0.042
  -0.25000000 -0.37500000  0.00000000       0.042
   0.37500000  0.25000000  0.00000000       0.042
  -0.37500000  0.37500000  0.00000000       0.042
   0.00000000  0.37500000  0.00000000       0.042
   0.37500000  0.00000000  0.00000000       0.042
 
 position of ions in fractional coordinates (direct lattice) 
   0.16664613  0.08336828  0.50003118
   0.16663062  0.33335753  0.50005127
   0.16663704  0.58336823  0.50003930
   0.16665840  0.83338804  0.50001953
   0.41666593  0.08337561  0.50003390
   0.41664701  0.33334163  0.50005418
   0.41662823  0.58337012  0.50004808
   0.41665803  0.83339082  0.50004163
   0.66667712  0.08338642  0.50004568
   0.66667945  0.33336609  0.50006517
   0.66668439  0.58337551  0.50007763
   0.66668247  0.83340406  0.50008209
   0.91665887  0.08338378  0.50003860
   0.91666038  0.33337599  0.50003798
   0.91666818  0.58337265  0.50005079
   0.91666711  0.83338045  0.50005161
   0.08332803  0.16672044  0.50003699
   0.08333757  0.41672125  0.50003856
   0.08332908  0.66672581  0.50002465
   0.08332019  0.91671894  0.50002267
   0.33332810  0.16672029  0.50003551
   0.33334095  0.41672197  0.50008032
   0.33332987  0.66671795  0.50004252
   0.33333478  0.91672403  0.50001707
   0.58333032  0.16671797  0.50005051
   0.58331342  0.41671679  0.50010789
   0.58329950  0.66668982  0.50014471
   0.58332708  0.91670459  0.50006549
   0.83332725  0.16672099  0.50002923
   0.83332007  0.41671996  0.50005764
   0.83330660  0.66670679  0.50006756
   0.83331427  0.91670725  0.50005267
   0.56034326  0.46955704  0.67290522
   0.53278182  0.46533996  0.62978393
   0.51354305  0.63877824  0.61673638
   0.69297510  0.59397297  0.68237911
   0.56669782  0.34378774  0.68306059
   0.44525565  0.47008158  0.69189730
   0.65047615  0.47573338  0.61021352
   0.40328804  0.34023984  0.61998129
   0.64363066  0.74170729  0.61302821
   0.37791854  0.59212622  0.61616874
 
 position of ions in cartesian coordinates  (Angst):
   1.25616408 -0.72472530 17.55842719
   2.51212380  1.45094053 17.55913262
   3.76830153  3.62660208 17.55871235
   5.02460004  5.80221295 17.55801787
   2.51239205 -2.90045817 17.55852247
   3.76821792 -0.72496483 17.55923454
   5.02435845  1.45107086 17.55902055
   6.28070378  3.62661600 17.55879410
   3.76859425 -5.07608576 17.55893618
   5.02459553 -2.90065864 17.55962064
   6.28075936 -0.72499526 17.56005826
   7.53698484  1.45089423 17.56021480
   5.02458099 -7.25157428 17.55868779
   6.28064113 -5.07603085 17.55866571
   7.53675523 -2.90050346 17.55911580
   8.79288068 -0.72480190 17.55914445
   1.25633521  0.72572230 17.55863112
   2.51247886  2.90127062 17.55868628
   3.76855085  5.07700852 17.55819777
   5.02456333  7.25265040 17.55812836
   2.51242653 -1.44990402 17.55857903
   3.76859118  0.72562313 17.56015259
   5.02460696  2.90130895 17.55882543
   6.28075384  5.07694338 17.55793153
   3.76851768 -3.62556786 17.55910574
   5.02451848 -1.44980674 17.56112076
   6.28040470  0.72570405 17.56241381
   7.53670918  2.90121691 17.55963196
   5.02460907 -5.80113927 17.55835845
   6.28065951 -3.62546133 17.55935614
   7.53661730 -1.44983443 17.55970440
   8.79274987  0.72572722 17.55918168
   5.17459677 -0.79006680 23.62884087
   5.01492980 -0.58691260 22.11465128
   5.78968472  1.08985888 21.65649113
   6.46609901 -0.86156580 23.96151353
   4.57461332 -1.93987435 23.98544346
   4.59898989  0.21604764 24.29574162
   5.65848965 -1.52069852 21.42744307
   3.73575673 -0.54867685 21.77043482
   6.96044587  0.85351165 21.52627988
   4.87386058  1.86414180 21.63655865
 


--------------------------------------------------------------------------------------------------------


 k-point  1 :   0.1250 0.1250 0.0000  plane waves:   89921
 k-point  2 :   0.2500-0.1250 0.0000  plane waves:   89921
 k-point  3 :   0.1250-0.2500 0.0000  plane waves:   89921
 k-point  4 :   0.3750 0.1250 0.0000  plane waves:   89970
 k-point  5 :   0.5000-0.3750 0.0000  plane waves:   89970
 k-point  6 :   0.1250 0.5000 0.0000  plane waves:   89970
 k-point  7 :  -0.1250-0.3750 0.0000  plane waves:   89970
 k-point  8 :   0.3750 0.5000 0.0000  plane waves:   89970
 k-point  9 :   0.5000-0.1250 0.0000  plane waves:   89970
 k-point 10 :  -0.3750 0.1250 0.0000  plane waves:   89943
 k-point 11 :  -0.2500 0.3750 0.0000  plane waves:   89943
 k-point 12 :   0.1250 0.2500 0.0000  plane waves:   89943
 k-point 13 :  -0.1250 0.3750 0.0000  plane waves:   89943
 k-point 14 :  -0.3750 0.2500 0.0000  plane waves:   89943
 k-point 15 :  -0.2500-0.1250 0.0000  plane waves:   89943
 k-point 16 :  -0.1250 0.1250 0.0000  plane waves:   89893
 k-point 17 :   0.0000 0.1250 0.0000  plane waves:   89893
 k-point 18 :   0.1250 0.0000 0.0000  plane waves:   89893
 k-point 19 :   0.3750 0.3750 0.0000  plane waves:   89957
 k-point 20 :  -0.2500-0.3750 0.0000  plane waves:   89957
 k-point 21 :   0.3750 0.2500 0.0000  plane waves:   89957
 k-point 22 :  -0.3750 0.3750 0.0000  plane waves:   89980
 k-point 23 :   0.0000 0.3750 0.0000  plane waves:   89980
 k-point 24 :   0.3750 0.0000 0.0000  plane waves:   89980

 maximum and minimum number of plane-waves per node :     89980    89893

 maximum number of plane-waves:     89980
 maximum index in each direction: 
   IXMAX=   19   IYMAX=   19   IZMAX=   67
   IXMIN=  -19   IYMIN=  -19   IZMIN=  -67


 serial   3D FFT for wavefunctions
 parallel 3D FFT for charge:
    minimum data exchange during FFTs selected (reduces bandwidth)


 total amount of memory used by VASP MPI-rank0  1062326. kBytes
=======================================================================

   base      :      30000. kBytes
   nonlr-proj:      18708. kBytes
   fftplans  :      36020. kBytes
   grid      :     353049. kBytes
   one-center:        258. kBytes
   wavefun   :     624291. kBytes
 
     INWAV:  cpu time   22.2277: real time   22.3964
 Broyden mixing: mesh for mixing (old mesh)
   NGX = 39   NGY = 39   NGZ =135
  (NGX  =160   NGY  =160   NGZ  =540)
  gives a total of 205335 points

 charge density for first step will be calculated from the start-wavefunctions


--------------------------------------------------------------------------------------------------------


 Maximum index for non-local projection operator         6376
 Maximum index for augmentation-charges          581 (set IRDMAX)


--------------------------------------------------------------------------------------------------------


 initial charge from wavefunction
 First call to EWALD:  gamma=   0.122
 Maximum number of real-space cells 4x 4x 1
 Maximum number of reciprocal cells 2x 2x 6

    FEWALD:  cpu time    0.0393: real time    0.0372


--------------------------------------- Iteration      1(   1)  ---------------------------------------


    POTLOK:  cpu time   37.3913: real time   37.5149
    SETDIJ:  cpu time    0.5857: real time    0.3891
     EDDAV:  cpu time  357.7428: real time  197.8191
       DOS:  cpu time    0.0745: real time    0.0878
    CHARGE:  cpu time   33.1430: real time   32.2735
    MIXING:  cpu time    0.1330: real time    0.0819
    --------------------------------------------
      LOOP:  cpu time  429.0706: real time  268.1664

 eigenvalue-minimisations  : 16608
 total energy-change (2. order) :-0.3867342E+03  (-0.1988560E-02)
 number of electron     186.9999989 magnetization       0.8572706
 augmentation part       11.5159195 magnetization       0.1584788

 Broyden mixing:
  rms(total) = 0.97339E-02    rms(broyden)= 0.97168E-02
  rms(prec ) = 0.97757E-02
  weight for this iteration     100.00

 Free energy of the ion-electron system (eV)
  ---------------------------------------------------
  alpha Z        PSCENC =        57.55240194
  Ewald energy   TEWEN  =     62173.32457846
  -Hartree energ DENC   =    -70759.29183370
  -exchange      EXHF   =         0.00000000
  -V(xc)+E(xc)   XCENC  =       896.36924531
  PAW double counting   =     21029.04864416   -21125.39504428
  entropy T*S    EENTRO =        -0.01202646
  eigenvalues    EBANDS =     -2824.78227509
  atomic energy  EATOM  =      9975.55785330
  Solvation  Ediel_sol  =       190.89426966
  ---------------------------------------------------
  free energy    TOTEN  =      -386.73418670 eV

  energy without entropy =     -386.72216024  energy(sigma->0) =     -386.72817347


--------------------------------------------------------------------------------------------------------




--------------------------------------- Iteration      1(   2)  ---------------------------------------


    POTLOK:  cpu time   26.2164: real time   26.2506
    SETDIJ:  cpu time    0.5954: real time    0.3939
    EDDIAG:  cpu time   56.8060: real time   39.9992
  RMM-DIIS:  cpu time  442.3728: real time  272.4050
    ORTHCH:  cpu time    1.5231: real time    0.7676
       DOS:  cpu time    0.0044: real time    0.0022
    CHARGE:  cpu time   33.3054: real time   32.3713
    MIXING:  cpu time    0.1080: real time    0.0596
    --------------------------------------------
      LOOP:  cpu time  560.9316: real time  372.2494

 eigenvalue-minimisations  : 16293
 total energy-change (2. order) : 0.1204994E-03  (-0.3044365E-04)
 number of electron     186.9999989 magnetization       0.8570324
 augmentation part       11.5155766 magnetization       0.1593214

 Broyden mixing:
  rms(total) = 0.60912E-02    rms(broyden)= 0.60888E-02
  rms(prec ) = 0.61340E-02
  weight for this iteration     100.00

 eigenvalues of (default mixing * dielectric matrix)
  average eigenvalue GAMMA=   1.5424
  1.5424

 Free energy of the ion-electron system (eV)
  ---------------------------------------------------
  alpha Z        PSCENC =        57.55240194
  Ewald energy   TEWEN  =     62173.32457846
  -Hartree energ DENC   =    -70759.22992092
  -exchange      EXHF   =         0.00000000
  -V(xc)+E(xc)   XCENC  =       896.37624873
  PAW double counting   =     21041.31988121   -21137.66052542
  entropy T*S    EENTRO =        -0.01208111
  eigenvalues    EBANDS =     -2824.86889013
  atomic energy  EATOM  =      9975.55785330
  Solvation  Ediel_sol  =       190.90638774
  ---------------------------------------------------
  free energy    TOTEN  =      -386.73406620 eV

  energy without entropy =     -386.72198509  energy(sigma->0) =     -386.72802565


--------------------------------------------------------------------------------------------------------




--------------------------------------- Iteration      1(   3)  ---------------------------------------


    POTLOK:  cpu time   27.2925: real time   27.3086
    SETDIJ:  cpu time    0.5839: real time    0.3875
    EDDIAG:  cpu time   56.7537: real time   39.8836
  RMM-DIIS:  cpu time  446.3995: real time  280.7061
    ORTHCH:  cpu time    1.5049: real time    0.8023
       DOS:  cpu time    0.0040: real time    0.0020
    CHARGE:  cpu time   33.1141: real time   32.2963
    MIXING:  cpu time    0.0973: real time    0.0487
    --------------------------------------------
      LOOP:  cpu time  565.7499: real time  381.4351

 eigenvalue-minimisations  : 16893
 total energy-change (2. order) : 0.1587712E-03  (-0.1577121E-04)
 number of electron     186.9999989 magnetization       0.8570769
 augmentation part       11.5151718 magnetization       0.1555881

 Broyden mixing:
  rms(total) = 0.31936E-02    rms(broyden)= 0.31926E-02
  rms(prec ) = 0.32592E-02
  weight for this iteration     100.00

 eigenvalues of (default mixing * dielectric matrix)
  average eigenvalue GAMMA=   1.3559
  2.1552  0.5566

 Free energy of the ion-electron system (eV)
  ---------------------------------------------------
  alpha Z        PSCENC =        57.55240194
  Ewald energy   TEWEN  =     62173.32457846
  -Hartree energ DENC   =    -70759.08115567
  -exchange      EXHF   =         0.00000000
  -V(xc)+E(xc)   XCENC  =       896.36856841
  PAW double counting   =     21057.32737160   -21153.66088026
  entropy T*S    EENTRO =        -0.01188724
  eigenvalues    EBANDS =     -2825.00980009
  atomic energy  EATOM  =      9975.55785330
  Solvation  Ediel_sol  =       190.89904213
  ---------------------------------------------------
  free energy    TOTEN  =      -386.73390743 eV

  energy without entropy =     -386.72202019  energy(sigma->0) =     -386.72796381


--------------------------------------------------------------------------------------------------------




--------------------------------------- Iteration      1(   4)  ---------------------------------------


    POTLOK:  cpu time   25.9824: real time   25.9824
    SETDIJ:  cpu time    0.5843: real time    0.3877
    EDDIAG:  cpu time   56.7467: real time   39.8557
  RMM-DIIS:  cpu time  398.4880: real time  249.7422
    ORTHCH:  cpu time    1.5100: real time    0.7618
       DOS:  cpu time    0.0042: real time    0.0021
    CHARGE:  cpu time   33.1859: real time   32.2970
    MIXING:  cpu time    0.0969: real time    0.0486
    --------------------------------------------
      LOOP:  cpu time  516.5984: real time  349.0775

 eigenvalue-minimisations  : 14078
 total energy-change (2. order) :-0.3438144E-03  (-0.4390576E-05)
 number of electron     186.9999989 magnetization       0.8571645
 augmentation part       11.5150206 magnetization       0.1541985

 Broyden mixing:
  rms(total) = 0.24401E-02    rms(broyden)= 0.24394E-02
  rms(prec ) = 0.26080E-02
  weight for this iteration     100.00

 eigenvalues of (default mixing * dielectric matrix)
  average eigenvalue GAMMA=   1.2231
  2.0501  0.8096  0.8096

 Free energy of the ion-electron system (eV)
  ---------------------------------------------------
  alpha Z        PSCENC =        57.55240194
  Ewald energy   TEWEN  =     62173.32457846
  -Hartree energ DENC   =    -70759.02997537
  -exchange      EXHF   =         0.00000000
  -V(xc)+E(xc)   XCENC  =       896.36495250
  PAW double counting   =     21060.02096812   -21156.35308285
  entropy T*S    EENTRO =        -0.01180039
  eigenvalues    EBANDS =     -2825.07137837
  atomic energy  EATOM  =      9975.55785330
  Solvation  Ediel_sol  =       190.91123143
  ---------------------------------------------------
  free energy    TOTEN  =      -386.73425124 eV

  energy without entropy =     -386.72245085  energy(sigma->0) =     -386.72835105


--------------------------------------------------------------------------------------------------------




--------------------------------------- Iteration      1(   5)  ---------------------------------------


    POTLOK:  cpu time   25.9470: real time   25.9797
    SETDIJ:  cpu time    0.5843: real time    0.3877
    EDDIAG:  cpu time   56.6497: real time   39.8216
  RMM-DIIS:  cpu time  386.7889: real time  240.8845
    ORTHCH:  cpu time    1.4958: real time    0.7507
       DOS:  cpu time    0.0305: real time    0.0153
    CHARGE:  cpu time   33.1250: real time   32.2545
    MIXING:  cpu time    0.1005: real time    0.0504
    --------------------------------------------
      LOOP:  cpu time  504.7217: real time  340.1444

 eigenvalue-minimisations  : 12923
 total energy-change (2. order) :-0.8214390E-04  (-0.1580444E-05)
 number of electron     186.9999989 magnetization       0.8572040
 augmentation part       11.5151597 magnetization       0.1565041

 Broyden mixing:
  rms(total) = 0.90222E-03    rms(broyden)= 0.90122E-03
  rms(prec ) = 0.95897E-03
  weight for this iteration     100.00

 eigenvalues of (default mixing * dielectric matrix)
  average eigenvalue GAMMA=   1.1182
  2.5450  0.6834  0.6223  0.6223

 Free energy of the ion-electron system (eV)
  ---------------------------------------------------
  alpha Z        PSCENC =        57.55240194
  Ewald energy   TEWEN  =     62173.32457846
  -Hartree energ DENC   =    -70759.02170727
  -exchange      EXHF   =         0.00000000
  -V(xc)+E(xc)   XCENC  =       896.36422942
  PAW double counting   =     21060.00063913   -21156.33257600
  entropy T*S    EENTRO =        -0.01191753
  eigenvalues    EBANDS =     -2825.09128601
  atomic energy  EATOM  =      9975.55785330
  Solvation  Ediel_sol  =       190.92345118
  ---------------------------------------------------
  free energy    TOTEN  =      -386.73433339 eV

  energy without entropy =     -386.72241585  energy(sigma->0) =     -386.72837462


--------------------------------------------------------------------------------------------------------




--------------------------------------- Iteration      1(   6)  ---------------------------------------


    POTLOK:  cpu time   25.3299: real time   25.3269
    SETDIJ:  cpu time    0.5976: real time    0.3952
    EDDIAG:  cpu time   56.6999: real time   39.8473
  RMM-DIIS:  cpu time  386.3985: real time  240.2167
    ORTHCH:  cpu time    1.5054: real time    0.7560
       DOS:  cpu time    0.0038: real time    0.0019
    CHARGE:  cpu time   33.1266: real time   32.2892
    MIXING:  cpu time    0.1073: real time    0.0538
    --------------------------------------------
      LOOP:  cpu time  503.7689: real time  338.8870

 eigenvalue-minimisations  : 12863
 total energy-change (2. order) : 0.5240993E-04  (-0.1421448E-05)
 number of electron     186.9999989 magnetization       0.8571466
 augmentation part       11.5153529 magnetization       0.1588681

 Broyden mixing:
  rms(total) = 0.10931E-02    rms(broyden)= 0.10910E-02
  rms(prec ) = 0.11354E-02
  weight for this iteration     100.00

 eigenvalues of (default mixing * dielectric matrix)
  average eigenvalue GAMMA=   1.1391
  2.5562  1.2068  0.6513  0.6405  0.6405

 Free energy of the ion-electron system (eV)
  ---------------------------------------------------
  alpha Z        PSCENC =        57.55240194
  Ewald energy   TEWEN  =     62173.32457846
  -Hartree energ DENC   =    -70758.99388475
  -exchange      EXHF   =         0.00000000
  -V(xc)+E(xc)   XCENC  =       896.36256681
  PAW double counting   =     21060.78612264   -21157.11778842
  entropy T*S    EENTRO =        -0.01204534
  eigenvalues    EBANDS =     -2825.12354590
  atomic energy  EATOM  =      9975.55785330
  Solvation  Ediel_sol  =       190.92946029
  ---------------------------------------------------
  free energy    TOTEN  =      -386.73428098 eV

  energy without entropy =     -386.72223564  energy(sigma->0) =     -386.72825831


--------------------------------------------------------------------------------------------------------




--------------------------------------- Iteration      1(   7)  ---------------------------------------


    POTLOK:  cpu time   25.4822: real time   25.4848
    SETDIJ:  cpu time    0.5839: real time    0.3874
    EDDIAG:  cpu time   56.6646: real time   39.8116
  RMM-DIIS:  cpu time  380.2720: real time  236.7849
    ORTHCH:  cpu time    1.5139: real time    0.7599
       DOS:  cpu time    0.0048: real time    0.0024
    CHARGE:  cpu time   33.1170: real time   32.2551
    MIXING:  cpu time    0.1044: real time    0.0525
    --------------------------------------------
      LOOP:  cpu time  497.7429: real time  335.5387

 eigenvalue-minimisations  : 12611
 total energy-change (2. order) : 0.4873697E-04  (-0.1367947E-05)
 number of electron     186.9999989 magnetization       0.8571526
 augmentation part       11.5153311 magnetization       0.1573684

 Broyden mixing:
  rms(total) = 0.30105E-03    rms(broyden)= 0.30023E-03
  rms(prec ) = 0.31562E-03
  weight for this iteration     100.00

 eigenvalues of (default mixing * dielectric matrix)
  average eigenvalue GAMMA=   1.1411
  2.6006  1.5730  0.6313  0.6313  0.7797  0.6309

 Free energy of the ion-electron system (eV)
  ---------------------------------------------------
  alpha Z        PSCENC =        57.55240194
  Ewald energy   TEWEN  =     62173.32457846
  -Hartree energ DENC   =    -70758.97461486
  -exchange      EXHF   =         0.00000000
  -V(xc)+E(xc)   XCENC  =       896.36208459
  PAW double counting   =     21060.72834666   -21157.06037343
  entropy T*S    EENTRO =        -0.01196876
  eigenvalues    EBANDS =     -2825.13176604
  atomic energy  EATOM  =      9975.55785330
  Solvation  Ediel_sol  =       190.91922591
  ---------------------------------------------------
  free energy    TOTEN  =      -386.73423224 eV

  energy without entropy =     -386.72226348  energy(sigma->0) =     -386.72824786


--------------------------------------------------------------------------------------------------------




--------------------------------------- Iteration      1(   8)  ---------------------------------------


    POTLOK:  cpu time   23.9601: real time   23.9529
    SETDIJ:  cpu time    0.5826: real time    0.3861
    EDDIAG:  cpu time   56.5258: real time   39.6887
  RMM-DIIS:  cpu time  373.1316: real time  231.4682
    ORTHCH:  cpu time    1.5298: real time    0.7676
       DOS:  cpu time    0.0040: real time    0.0020
    CHARGE:  cpu time   33.1353: real time   32.3201
    MIXING:  cpu time    0.1080: real time    0.0541
    --------------------------------------------
      LOOP:  cpu time  488.9772: real time  328.6396

 eigenvalue-minimisations  : 12266
 total energy-change (2. order) :-0.1165270E-04  (-0.5511104E-06)
 number of electron     186.9999989 magnetization       0.8571639
 augmentation part       11.5153349 magnetization       0.1573352

 Broyden mixing:
  rms(total) = 0.27123E-03    rms(broyden)= 0.27118E-03
  rms(prec ) = 0.28903E-03
  weight for this iteration     100.00

 eigenvalues of (default mixing * dielectric matrix)
  average eigenvalue GAMMA=   1.1295
  2.6400  0.6292  0.6292  1.4065  1.1958  0.6356  0.7700

 Free energy of the ion-electron system (eV)
  ---------------------------------------------------
  alpha Z        PSCENC =        57.55240194
  Ewald energy   TEWEN  =     62173.32457846
  -Hartree energ DENC   =    -70758.97305969
  -exchange      EXHF   =         0.00000000
  -V(xc)+E(xc)   XCENC  =       896.36249905
  PAW double counting   =     21060.81455793   -21157.14662623
  entropy T*S    EENTRO =        -0.01196675
  eigenvalues    EBANDS =     -2825.13267219
  atomic energy  EATOM  =      9975.55785330
  Solvation  Ediel_sol  =       190.91819028
  ---------------------------------------------------
  free energy    TOTEN  =      -386.73424389 eV

  energy without entropy =     -386.72227714  energy(sigma->0) =     -386.72826052


--------------------------------------------------------------------------------------------------------




--------------------------------------- Iteration      1(   9)  ---------------------------------------


    POTLOK:  cpu time   23.8172: real time   23.8122
    SETDIJ:  cpu time    0.5831: real time    0.3866
    EDDIAG:  cpu time   56.7001: real time   39.7962
  RMM-DIIS:  cpu time  368.7582: real time  228.7331
    ORTHCH:  cpu time    1.5232: real time    0.7642
       DOS:  cpu time    0.0039: real time    0.0020
    --------------------------------------------
      LOOP:  cpu time  451.3857: real time  293.4942

 eigenvalue-minimisations  : 12131
 total energy-change (2. order) :-0.6396551E-05  (-0.2541034E-06)
 number of electron     186.9999989 magnetization       0.8571639
 augmentation part       11.5153349 magnetization       0.1573352

 Free energy of the ion-electron system (eV)
  ---------------------------------------------------
  alpha Z        PSCENC =        57.55240194
  Ewald energy   TEWEN  =     62173.32457846
  -Hartree energ DENC   =    -70758.97623413
  -exchange      EXHF   =         0.00000000
  -V(xc)+E(xc)   XCENC  =       896.36286339
  PAW double counting   =     21060.85686013   -21157.18896647
  entropy T*S    EENTRO =        -0.01199542
  eigenvalues    EBANDS =     -2825.12853244
  atomic energy  EATOM  =      9975.55785330
  Solvation  Ediel_sol  =       190.91692094
  ---------------------------------------------------
  free energy    TOTEN  =      -386.73425029 eV

  energy without entropy =     -386.72225487  energy(sigma->0) =     -386.72825258


--------------------------------------------------------------------------------------------------------




 average (electrostatic) potential at core
  the test charge radii are     0.7672  0.7089  0.6991  0.7167  0.7215
  (the norm of the test charge is              1.0000)
       1 -38.6965       2 -38.6980       3 -38.6962       4 -38.6953       5 -38.6966
       6 -38.7009       7 -38.7015       8 -38.6968       9 -38.6961      10 -38.6986
      11 -38.7016      12 -38.6989      13 -38.6957      14 -38.6960      15 -38.6968
      16 -38.6966      17 -76.2582      18 -76.2584      19 -76.2572      20 -76.2574
      21 -76.2609      22 -76.2660      23 -76.2616      24 -76.2576      25 -76.2592
      26 -76.2662      27 -76.2689      28 -76.2598      29 -76.2573      30 -76.2595
      31 -76.2617      32 -76.2589      33 -68.0068      34 -66.6754      35 -65.5604
      36 -92.3158      37 -92.2450      38 -92.3135      39 -92.5591      40 -92.5475
      41 -85.9901      42 -85.9847
 
 
 
 E-fermi :  -6.2757     XC(G=0):  -1.6125     alpha+bet : -1.2828


 spin component 1

 k-point     1 :       0.1250    0.1250    0.0000
  band No.  band energies     occupation 
      1     -36.1441      1.00000
      2     -35.4410      1.00000
      3     -34.0200      1.00000
      4     -33.6829      1.00000
      5     -33.6591      1.00000
      6     -30.3454      1.00000
      7     -28.8992      1.00000
      8     -24.8700      1.00000
      9     -24.1152      1.00000
     10     -24.1127      1.00000
     11     -23.6857      1.00000
     12     -23.6855      1.00000
     13     -23.2848      1.00000
     14     -23.2825      1.00000
     15     -22.4353      1.00000
     16     -22.1421      1.00000
     17     -22.1408      1.00000
     18     -21.8988      1.00000
     19     -21.8987      1.00000
     20     -21.7481      1.00000
     21     -21.6726      1.00000
     22     -21.6712      1.00000
     23     -21.4808      1.00000
     24     -21.3793      1.00000
     25     -18.4659      1.00000
     26     -16.7928      1.00000
     27     -16.5994      1.00000
     28     -16.5297      1.00000
     29     -15.6626      1.00000
     30     -15.6122      1.00000
     31     -15.4344      1.00000
     32     -15.2743      1.00000
     33     -15.2742      1.00000
     34     -14.5410      1.00000
     35     -14.5401      1.00000
     36     -14.4732      1.00000
     37     -14.2127      1.00000
     38     -14.0617      1.00000
     39     -14.0605      1.00000
     40     -13.5237      1.00000
     41     -13.1215      1.00000
     42     -13.0242      1.00000
     43     -13.0127      1.00000
     44     -12.7748      1.00000
     45     -12.7539      1.00000
     46     -12.6405      1.00000
     47     -12.6391      1.00000
     48     -12.5958      1.00000
     49     -12.4593      1.00000
     50     -12.4542      1.00000
     51     -12.4537      1.00000
     52     -12.2315      1.00000
     53     -12.0310      1.00000
     54     -11.7835      1.00000
     55     -11.7815      1.00000
     56     -11.6754      1.00000
     57     -11.6134      1.00000
     58     -11.6079      1.00000
     59     -11.6076      1.00000
     60     -11.5171      1.00000
     61     -11.5119      1.00000
     62     -11.1548      1.00000
     63     -10.8332      1.00000
     64     -10.7687      1.00000
     65     -10.5459      1.00000
     66     -10.5456      1.00000
     67     -10.5219      1.00000
     68     -10.5203      1.00000
     69     -10.4966      1.00000
     70     -10.4943      1.00000
     71      -9.9122      1.00000
     72      -9.9116      1.00000
     73      -9.7540      1.00000
     74      -9.7531      1.00000
     75      -9.5157      1.00000
     76      -9.5155      1.00000
     77      -9.3620      1.00000
     78      -9.3548      1.00000
     79      -9.0935      1.00000
     80      -9.0309      1.00000
     81      -8.9377      1.00000
     82      -8.9360      1.00000
     83      -8.1576      1.00000
     84      -7.8950      1.00000
     85      -7.7574      1.00000
     86      -7.7284      1.00000
     87      -7.7259      1.00000
     88      -7.5627      1.00000
     89      -7.3407      1.00000
     90      -7.3402      1.00000
     91      -7.1056      1.00000
     92      -7.0117      1.00000
     93      -7.0101      1.00000
     94      -6.7090      1.00000
     95      -1.1040      0.00000
     96      -0.8789      0.00000
     97      -0.8451      0.00000
     98      -0.6034      0.00000
     99      -0.5969      0.00000
    100      -0.5417      0.00000
    101      -0.3261      0.00000
    102      -0.3214      0.00000
    103      -0.2947      0.00000
    104      -0.1283      0.00000
    105       0.0421      0.00000
    106       0.1200      0.00000
    107       0.1855      0.00000
    108       0.2512      0.00000
    109       0.4213      0.00000
    110       0.4300      0.00000
    111       0.4377      0.00000
    112       0.5570      0.00000
    113       0.7243      0.00000
    114       0.8694      0.00000
    115       0.9006      0.00000
    116       0.9819      0.00000
    117       1.0140      0.00000
    118       1.0833      0.00000
    119       1.1133      0.00000
    120       1.1205      0.00000
    121       1.1635      0.00000
    122       1.3377      0.00000
    123       1.3715      0.00000
    124       1.4147      0.00000
    125       1.4534      0.00000
    126       1.5283      0.00000
    127       1.6174      0.00000
    128       1.6418      0.00000
    129       1.7186      0.00000
    130       1.8076      0.00000
    131       1.8523      0.00000
    132       1.8578      0.00000
    133       1.9080      0.00000
    134       1.9190      0.00000
    135       1.9305      0.00000
    136       1.9666      0.00000
    137       2.0268      0.00000
    138       2.0969      0.00000
    139       2.1196      0.00000
    140       2.1653      0.00000
    141       2.4679      0.00000
    142       2.6707      0.00000
    143       3.7799      0.00000
    144       4.0921      0.00000

 k-point     2 :       0.2500   -0.1250    0.0000
  band No.  band energies     occupation 
      1     -36.1441      1.00000
      2     -35.4410      1.00000
      3     -34.0200      1.00000
      4     -33.6829      1.00000
      5     -33.6591      1.00000
      6     -30.3454      1.00000
      7     -28.8992      1.00000
      8     -24.8700      1.00000
      9     -24.1152      1.00000
     10     -24.1127      1.00000
     11     -23.6858      1.00000
     12     -23.6855      1.00000
     13     -23.2848      1.00000
     14     -23.2824      1.00000
     15     -22.4353      1.00000
     16     -22.1422      1.00000
     17     -22.1409      1.00000
     18     -21.8988      1.00000
     19     -21.8986      1.00000
     20     -21.7482      1.00000
     21     -21.6726      1.00000
     22     -21.6712      1.00000
     23     -21.4807      1.00000
     24     -21.3793      1.00000
     25     -18.4659      1.00000
     26     -16.7928      1.00000
     27     -16.5994      1.00000
     28     -16.5297      1.00000
     29     -15.6626      1.00000
     30     -15.6122      1.00000
     31     -15.4346      1.00000
     32     -15.2743      1.00000
     33     -15.2740      1.00000
     34     -14.5408      1.00000
     35     -14.5403      1.00000
     36     -14.4730      1.00000
     37     -14.2128      1.00000
     38     -14.0622      1.00000
     39     -14.0607      1.00000
     40     -13.5233      1.00000
     41     -13.1215      1.00000
     42     -13.0246      1.00000
     43     -13.0128      1.00000
     44     -12.7748      1.00000
     45     -12.7539      1.00000
     46     -12.6400      1.00000
     47     -12.6391      1.00000
     48     -12.5958      1.00000
     49     -12.4594      1.00000
     50     -12.4544      1.00000
     51     -12.4536      1.00000
     52     -12.2315      1.00000
     53     -12.0310      1.00000
     54     -11.7828      1.00000
     55     -11.7811      1.00000
     56     -11.6754      1.00000
     57     -11.6140      1.00000
     58     -11.6085      1.00000
     59     -11.6084      1.00000
     60     -11.5170      1.00000
     61     -11.5120      1.00000
     62     -11.1548      1.00000
     63     -10.8332      1.00000
     64     -10.7680      1.00000
     65     -10.5464      1.00000
     66     -10.5459      1.00000
     67     -10.5215      1.00000
     68     -10.5201      1.00000
     69     -10.4965      1.00000
     70     -10.4944      1.00000
     71      -9.9121      1.00000
     72      -9.9116      1.00000
     73      -9.7549      1.00000
     74      -9.7533      1.00000
     75      -9.5148      1.00000
     76      -9.5144      1.00000
     77      -9.3617      1.00000
     78      -9.3550      1.00000
     79      -9.0937      1.00000
     80      -9.0309      1.00000
     81      -8.9382      1.00000
     82      -8.9362      1.00000
     83      -8.1578      1.00000
     84      -7.8935      1.00000
     85      -7.7589      1.00000
     86      -7.7278      1.00000
     87      -7.7258      1.00000
     88      -7.5629      1.00000
     89      -7.3410      1.00000
     90      -7.3403      1.00000
     91      -7.1051      1.00000
     92      -7.0115      1.00000
     93      -7.0103      1.00000
     94      -6.7093      1.00000
     95      -1.1047      0.00000
     96      -0.8828      0.00000
     97      -0.8398      0.00000
     98      -0.6032      0.00000
     99      -0.5982      0.00000
    100      -0.5422      0.00000
    101      -0.3266      0.00000
    102      -0.3210      0.00000
    103      -0.2937      0.00000
    104      -0.1287      0.00000
    105       0.0412      0.00000
    106       0.1259      0.00000
    107       0.1867      0.00000
    108       0.2457      0.00000
    109       0.4242      0.00000
    110       0.4297      0.00000
    111       0.4395      0.00000
    112       0.5446      0.00000
    113       0.7220      0.00000
    114       0.8737      0.00000
    115       0.9005      0.00000
    116       0.9821      0.00000
    117       1.0119      0.00000
    118       1.0951      0.00000
    119       1.1099      0.00000
    120       1.1193      0.00000
    121       1.1652      0.00000
    122       1.3364      0.00000
    123       1.3647      0.00000
    124       1.4173      0.00000
    125       1.4538      0.00000
    126       1.5250      0.00000
    127       1.6169      0.00000
    128       1.6504      0.00000
    129       1.7174      0.00000
    130       1.8095      0.00000
    131       1.8493      0.00000
    132       1.8571      0.00000
    133       1.9106      0.00000
    134       1.9262      0.00000
    135       1.9421      0.00000
    136       1.9736      0.00000
    137       2.0346      0.00000
    138       2.0871      0.00000
    139       2.1047      0.00000
    140       2.1415      0.00000
    141       2.4521      0.00000
    142       2.5629      0.00000
    143       2.6731      0.00000
    144       4.0246      0.00000

 k-point     3 :       0.1250   -0.2500    0.0000
  band No.  band energies     occupation 
      1     -36.1441      1.00000
      2     -35.4410      1.00000
      3     -34.0200      1.00000
      4     -33.6829      1.00000
      5     -33.6591      1.00000
      6     -30.3454      1.00000
      7     -28.8992      1.00000
      8     -24.8700      1.00000
      9     -24.1154      1.00000
     10     -24.1125      1.00000
     11     -23.6858      1.00000
     12     -23.6854      1.00000
     13     -23.2850      1.00000
     14     -23.2823      1.00000
     15     -22.4353      1.00000
     16     -22.1421      1.00000
     17     -22.1409      1.00000
     18     -21.8988      1.00000
     19     -21.8986      1.00000
     20     -21.7482      1.00000
     21     -21.6726      1.00000
     22     -21.6712      1.00000
     23     -21.4807      1.00000
     24     -21.3793      1.00000
     25     -18.4659      1.00000
     26     -16.7928      1.00000
     27     -16.5994      1.00000
     28     -16.5297      1.00000
     29     -15.6626      1.00000
     30     -15.6122      1.00000
     31     -15.4346      1.00000
     32     -15.2743      1.00000
     33     -15.2740      1.00000
     34     -14.5410      1.00000
     35     -14.5401      1.00000
     36     -14.4730      1.00000
     37     -14.2128      1.00000
     38     -14.0621      1.00000
     39     -14.0606      1.00000
     40     -13.5234      1.00000
     41     -13.1215      1.00000
     42     -13.0245      1.00000
     43     -13.0127      1.00000
     44     -12.7748      1.00000
     45     -12.7539      1.00000
     46     -12.6405      1.00000
     47     -12.6390      1.00000
     48     -12.5956      1.00000
     49     -12.4595      1.00000
     50     -12.4543      1.00000
     51     -12.4536      1.00000
     52     -12.2316      1.00000
     53     -12.0309      1.00000
     54     -11.7831      1.00000
     55     -11.7811      1.00000
     56     -11.6754      1.00000
     57     -11.6138      1.00000
[...]
    3       -0.000  -0.000   0.000  -0.000
    4       -0.000  -0.000   0.000  -0.000
    5       -0.000  -0.000   0.000  -0.000
    6       -0.000  -0.000   0.000  -0.000
    7       -0.000   0.000   0.000  -0.000
    8       -0.000  -0.000   0.000  -0.000
    9       -0.000  -0.000   0.000  -0.000
   10       -0.000  -0.000   0.000  -0.000
   11       -0.000  -0.000   0.000  -0.000
   12        0.000   0.000   0.000   0.000
   13       -0.000  -0.000   0.000  -0.000
   14       -0.000  -0.000   0.000  -0.000
   15       -0.000  -0.000   0.000  -0.000
   16       -0.000  -0.000   0.000  -0.000
   17        0.000   0.000   0.000   0.000
   18        0.000   0.000   0.000   0.000
   19        0.000   0.000   0.000   0.000
   20        0.000   0.000   0.000   0.000
   21        0.000   0.000   0.000   0.000
   22        0.000   0.000   0.000   0.000
   23        0.000   0.000   0.000   0.000
   24        0.000   0.000   0.000   0.000
   25        0.000   0.000   0.000   0.000
   26       -0.000   0.000   0.000   0.000
   27        0.000   0.000   0.000   0.000
   28        0.000  -0.000   0.000  -0.000
   29        0.000   0.000   0.000   0.000
   30        0.000   0.000   0.000   0.000
   31        0.000   0.000   0.000   0.000
   32        0.000   0.000   0.000   0.000
   33        0.005   0.014   0.000   0.019
   34        0.038   0.203   0.000   0.241
   35       -0.013  -0.027   0.000  -0.040
   36       -0.000  -0.001   0.000  -0.001
   37        0.000   0.019   0.000   0.020
   38       -0.000  -0.001   0.000  -0.001
   39        0.001   0.051   0.000   0.053
   40        0.001   0.049   0.000   0.051
   41        0.002   0.152   0.000   0.155
   42        0.002   0.144   0.000   0.146
--------------------------------------------------
tot          0.037   0.606   0.000   0.642
 
    CHARGE:  cpu time    3.6948: real time    3.4953
    FORLOC:  cpu time    0.3286: real time    0.2156
    FORNL :  cpu time   27.4684: real time   13.8684
    STRESS:  cpu time  641.2071: real time  590.7742
    FORCOR:  cpu time    2.2966: real time    2.3181
    FORHAR:  cpu time    0.3054: real time    0.3285
    MIXING:  cpu time    0.0490: real time    0.0491
    OFIELD:  cpu time    0.0002: real time    0.0110

  FORCE on cell =-STRESS in cart. coord.  units (eV):
  Direction    XX          YY          ZZ          XY          YZ          ZX
  --------------------------------------------------------------------------------------
  Alpha Z    57.55240    57.55240    57.55240
  Ewald   65440.53756 65382.90856-68650.13592   -90.86125  -291.37769  -135.05465
  Hartree 66326.81991 66508.80701-62076.67816    58.03502  -305.67393   -97.11760
  E(xc)    -834.17965  -833.87385  -839.10777     0.15962    -0.25579     0.00597
  Local  ************************128257.25716    -0.01825   611.81313   226.85524
  n-local  -490.19594  -487.12465  -483.10440     1.95897     0.09623     0.37776
  augment   118.73803   122.50058   129.81189     2.14230    -1.77110     0.45546
  Kinetic  3265.40700  3314.26764  3604.78232    29.30060   -12.68353     4.78250
  Fock        0.00000     0.00000     0.00000     0.00000     0.00000     0.00000
  -------------------------------------------------------------------------------------
  Total     -13.31012   -12.19284     0.37752     0.71700     0.14732     0.30468
  in kB      -6.94463    -6.36168     0.19697     0.37410     0.07687     0.15897
  external pressure =       -4.37 kB  Pullay stress =        0.00 kB


 VOLUME and BASIS-vectors are now :
 -----------------------------------------------------------------------------
  energy-cutoff  :      550.00
  volume of cell :     3070.74
      direct lattice vectors                 reciprocal lattice vectors
     5.024366704 -8.702497373  0.000000000     0.099515029 -0.057454772  0.000000000
     5.024366704  8.702497373  0.000000000     0.099515029  0.057454772  0.000000000
     0.000000000  0.000000000 35.114664386     0.000000000  0.000000000  0.028478131

  length of vectors
    10.048767154 10.048767154 35.114664386     0.114909929  0.114909929  0.028478131


 FORCES acting on ions
    electron-ion (+dipol)            ewald-force                    non-local-force                 convergence-correction
 -----------------------------------------------------------------------------------------------
   0.808E+01 0.147E+01 0.123E+03   -.814E+01 -.143E+01 -.123E+03   0.527E-02 0.186E-03 0.903E-04   0.543E-05 -.190E-04 -.353E-03
   0.126E+02 -.630E+01 0.130E+03   -.126E+02 0.636E+01 -.129E+03   0.109E-01 -.383E-02 0.190E-02   -.485E-04 0.419E-05 -.384E-03
   0.372E+01 -.842E+01 0.125E+03   -.370E+01 0.838E+01 -.124E+03   0.615E-02 -.313E-02 0.739E-03   -.499E-04 0.541E-04 -.382E-03
   -.772E+00 -.463E+00 0.118E+03   0.738E+00 0.442E+00 -.118E+03   0.950E-03 -.672E-03 -.891E-03   -.582E-05 0.210E-04 -.350E-03
   0.760E+01 0.545E+01 0.125E+03   -.765E+01 -.548E+01 -.125E+03   0.218E-02 0.401E-02 -.323E-04   0.313E-04 0.130E-04 -.336E-03
   0.132E+02 0.439E+01 0.147E+03   -.133E+02 -.434E+01 -.147E+03   0.912E-02 0.701E-02 0.102E-02   -.289E-04 -.717E-04 -.385E-03
   0.371E+01 -.120E+02 0.150E+03   -.371E+01 0.121E+02 -.150E+03   0.470E-02 -.719E-02 0.153E-03   -.331E-04 -.111E-05 -.465E-03
   -.178E+01 -.111E+02 0.127E+03   0.175E+01 0.110E+02 -.127E+03   -.186E-02 -.462E-02 0.913E-03   0.231E-04 0.670E-04 -.405E-03
   -.306E+01 0.710E+00 0.121E+03   0.304E+01 -.792E+00 -.121E+03   -.451E-02 0.183E-02 0.296E-03   0.474E-04 0.562E-04 -.343E-03
   0.125E+01 0.149E+02 0.136E+03   -.122E+01 -.150E+02 -.136E+03   -.103E-02 0.116E-01 0.242E-02   0.637E-05 -.293E-04 -.309E-03
   -.925E+01 0.603E+01 0.153E+03   0.935E+01 -.599E+01 -.152E+03   -.757E-02 0.945E-02 0.252E-02   0.696E-05 -.985E-04 -.402E-03
   -.133E+02 -.771E+01 0.138E+03   0.133E+02 0.770E+01 -.137E+03   -.131E-01 -.362E-02 0.415E-02   0.580E-04 0.641E-05 -.431E-03
   -.306E+01 -.213E+01 0.120E+03   0.301E+01 0.211E+01 -.119E+03   -.130E-02 -.130E-02 -.122E-04   0.247E-04 0.146E-04 -.361E-03
   0.111E+01 0.324E+01 0.120E+03   -.107E+01 -.328E+01 -.119E+03   0.183E-02 0.240E-02 0.475E-04   -.193E-04 0.465E-04 -.322E-03
   -.811E+01 0.856E+01 0.127E+03   0.815E+01 -.856E+01 -.127E+03   -.161E-02 0.625E-02 0.114E-02   -.309E-04 -.139E-04 -.323E-03
   -.121E+02 0.308E+01 0.127E+03   0.121E+02 -.302E+01 -.126E+03   -.486E-02 0.189E-02 0.999E-03   0.173E-04 -.389E-04 -.368E-03
   0.125E+02 -.375E+01 0.204E+03   -.126E+02 0.380E+01 -.204E+03   0.443E-02 0.241E-02 -.143E-02   -.113E-04 -.104E-04 -.603E-03
   0.115E+02 -.853E+01 0.206E+03   -.114E+02 0.851E+01 -.205E+03   -.336E-02 -.168E-02 -.514E-03   -.858E-04 0.705E-04 -.605E-03
   -.460E+01 -.821E+00 0.201E+03   0.462E+01 0.767E+00 -.200E+03   -.100E-01 -.386E-02 0.805E-02   -.641E-04 0.519E-04 -.579E-03
   -.333E+01 0.389E+01 0.199E+03   0.325E+01 -.385E+01 -.199E+03   -.502E-03 0.253E-03 0.693E-02   0.114E-04 -.245E-04 -.586E-03
   0.222E+02 0.915E+01 0.219E+03   -.223E+02 -.912E+01 -.219E+03   0.155E-01 0.503E-02 0.706E-02   0.117E-04 -.530E-04 -.577E-03
   0.224E+02 -.104E+02 0.243E+03   -.224E+02 0.106E+02 -.242E+03   0.147E-01 -.373E-02 -.136E-01   -.885E-04 -.619E-04 -.695E-03
   0.398E+01 -.245E+02 0.224E+03   -.402E+01 0.245E+02 -.224E+03   0.833E-03 -.203E-01 -.134E-02   -.438E-04 0.874E-04 -.724E-03
   0.412E+01 -.462E+01 0.201E+03   -.420E+01 0.454E+01 -.200E+03   0.351E-02 -.380E-02 0.125E-01   0.352E-04 0.776E-04 -.605E-03
   0.583E+01 0.148E+02 0.211E+03   -.586E+01 -.149E+02 -.210E+03   0.610E-02 0.279E-02 -.505E-02   0.667E-04 0.418E-04 -.520E-03
   0.446E+01 0.190E+02 0.251E+03   -.438E+01 -.190E+02 -.251E+03   0.231E-02 0.114E-01 -.313E-01   -.139E-04 -.155E-03 -.573E-03
   -.140E+02 -.102E+02 0.253E+03   0.142E+02 0.102E+02 -.252E+03   -.152E-01 -.683E-02 -.616E-01   0.277E-04 -.795E-04 -.747E-03
   -.121E+02 -.144E+02 0.214E+03   0.121E+02 0.143E+02 -.213E+03   0.513E-03 -.637E-02 -.111E-01   0.923E-04 0.922E-04 -.667E-03
   -.333E+01 0.128E+01 0.198E+03   0.331E+01 -.139E+01 -.197E+03   -.233E-02 0.668E-04 0.746E-02   0.368E-04 0.826E-04 -.562E-03
   -.534E+01 0.190E+02 0.212E+03   0.543E+01 -.191E+02 -.211E+03   -.557E-02 0.965E-03 -.106E-01   -.375E-04 0.179E-04 -.490E-03
   -.233E+02 0.137E+02 0.227E+03   0.234E+02 -.136E+02 -.227E+03   -.144E-01 0.504E-02 -.109E-01   -.979E-05 -.112E-03 -.583E-03
   -.209E+02 -.345E+01 0.213E+03   0.208E+02 0.346E+01 -.212E+03   -.812E-02 0.410E-02 -.129E-02   0.714E-04 -.235E-04 -.653E-03
   0.287E+01 0.197E+02 -.431E+03   -.369E+01 -.186E+02 0.423E+03   0.945E+00 -.905E+00 0.830E+01   0.104E-03 -.748E-03 0.140E-02
   -.146E+02 -.476E+02 -.314E+03   0.205E+02 0.569E+02 0.321E+03   -.561E+01 -.880E+01 -.658E+01   -.782E-03 -.195E-02 -.378E-03
   -.374E+02 -.970E+02 -.294E+03   0.371E+02 0.963E+02 0.294E+03   0.556E+00 0.114E+01 -.174E+00   0.737E-03 0.147E-02 -.133E-02
   -.509E+03 0.744E+02 -.946E+03   0.568E+03 -.776E+02 0.962E+03   -.575E+02 0.337E+01 -.156E+02   0.134E-02 -.102E-02 0.969E-03
   0.229E+03 0.478E+03 -.931E+03   -.255E+03 -.529E+03 0.947E+03   0.256E+02 0.494E+02 -.161E+02   -.425E-03 -.166E-02 0.554E-03
   0.229E+03 -.354E+03 -.108E+04   -.256E+03 0.399E+03 0.111E+04   0.254E+02 -.442E+02 -.304E+02   -.631E-03 0.155E-03 0.149E-02
   -.206E+03 0.385E+03 -.272E+03   0.237E+03 -.426E+03 0.240E+03   -.295E+02 0.417E+02 0.320E+02   0.114E-02 -.417E-02 -.326E-02
   0.516E+03 0.198E+02 -.408E+03   -.575E+03 -.158E+02 0.392E+03   0.579E+02 -.255E+01 0.165E+02   -.403E-02 -.156E-02 -.225E-02
   -.416E+03 -.983E+02 -.410E+03   0.476E+03 0.865E+02 0.404E+03   -.578E+02 0.117E+02 0.650E+01   0.268E-02 0.463E-03 -.187E-02
   0.201E+03 -.388E+03 -.451E+03   -.249E+03 0.428E+03 0.451E+03   0.455E+02 -.383E+02 0.103E+01   -.118E-02 0.239E-02 -.168E-02
 -----------------------------------------------------------------------------------------------
   -.572E+01 -.126E+02 0.471E+01   0.142E-12 0.000E+00 0.227E-12   0.569E+01 0.125E+02 -.467E+01   -.104E-02 -.662E-02 -.220E-01
 
 
 POSITION                                       TOTAL-FORCE (eV/Angst)
 -----------------------------------------------------------------------------------
      1.25616     -0.72473     17.55843         0.003344      0.003590      0.000994
      2.51212      1.45094     17.55913         0.007235      0.001825      0.002185
      3.76830      3.62660     17.55871         0.007629      0.000659      0.000870
      5.02460      5.80221     17.55802         0.001593     -0.000143      0.001342
      2.51239     -2.90046     17.55852         0.001141      0.002795      0.001052
      3.76822     -0.72496     17.55923         0.004310      0.007245      0.001872
      5.02436      1.45107     17.55902         0.003318      0.004384      0.007089
      6.28070      3.62662     17.55879         0.000473     -0.001065      0.002545
      3.76859     -5.07609     17.55894        -0.003227      0.002847      0.001739
      5.02460     -2.90066     17.55962        -0.001492      0.008382      0.005366
      6.28076     -0.72500     17.56006        -0.000768      0.007543      0.008003
      7.53698      1.45089     17.56021        -0.004749      0.002776      0.007959
      5.02458     -7.25157     17.55869        -0.000635      0.001572      0.001271
      6.28064     -5.07603     17.55867         0.002502      0.002052      0.001993
      7.53676     -2.90050     17.55912         0.002324      0.006756      0.001729
      8.79288     -0.72480     17.55914        -0.001366      0.007016      0.002290
      1.25634      0.72572     17.55863        -0.003798     -0.002126     -0.001054
      2.51248      2.90127     17.55869        -0.006516      0.001656     -0.000528
      3.76855      5.07701     17.55820        -0.003627     -0.001841      0.000238
      5.02456      7.25265     17.55813        -0.000376     -0.003444     -0.000353
      2.51243     -1.44990     17.55858        -0.005166     -0.004194      0.000514
      3.76859      0.72562     17.56015        -0.007962     -0.001040     -0.002913
      5.02461      2.90131     17.55883        -0.003797      0.002318     -0.001181
      6.28075      5.07694     17.55793        -0.003078      0.001315      0.000440
      3.76852     -3.62557     17.55911         0.000088     -0.002579     -0.001629
      5.02452     -1.44981     17.56112         0.000278     -0.008551     -0.004797
      6.28040      0.72570     17.56241         0.005212     -0.003510     -0.008094
      7.53671      2.90122     17.55963         0.003338      0.002090     -0.001415
      5.02461     -5.80114     17.55836         0.000345     -0.002965      0.000133
      6.28066     -3.62546     17.55936         0.000824     -0.006893     -0.001695
      7.53662     -1.44983     17.55970         0.004983     -0.007625     -0.001362
      8.79275      0.72573     17.55918         0.004939     -0.003688     -0.000057
      5.17460     -0.79007     23.62884        -0.003392     -0.013605     -0.001151
      5.01493     -0.58691     22.11465        -0.013139     -0.021138      0.011087
      5.78968      1.08986     21.65649         0.056728     -0.006058     -0.004786
      6.46610     -0.86157     23.96151        -0.018706      0.016448     -0.034139
      4.57461     -1.93987     23.98544         0.010622      0.004824      0.031277
      4.59899      0.21605     24.29574         0.007127     -0.004843     -0.031354
      5.65849     -1.52070     21.42744        -0.017791     -0.009015      0.001166
      3.73576     -0.54868     21.77043        -0.002665     -0.026789     -0.004437
      6.96045      0.85351     21.52628        -0.018316      0.015612      0.002148
      4.87386      1.86414     21.63656        -0.007786      0.027409      0.005643
 -----------------------------------------------------------------------------------
    total drift:                               -0.034394     -0.066270      0.020916


--------------------------------------------------------------------------------------------------------



  FREE ENERGIE OF THE ION-ELECTRON SYSTEM (eV)
  ---------------------------------------------------
  free  energy   TOTEN  =      -386.73425029 eV

  energy  without entropy=     -386.72225487  energy(sigma->0) =     -386.72825258
 


--------------------------------------------------------------------------------------------------------


    POTLOK:  cpu time   23.0645: real time   22.9348


--------------------------------------------------------------------------------------------------------


 stress matrix after NEB project (eV)
    -13.31012      0.71693      0.30468
      0.71700    -12.19284      0.14759
      0.30328      0.14732      0.37752
  FORCES: max atom, RMS     0.057251    0.017037
  FORCE total and by dimension    0.110415    0.056728
  Stress total and by dimension   18.089324   13.310124
 writing wavefunctions
     LOOP+:  cpu time 5430.2029: real time 3779.8868
    4ORBIT:  cpu time    0.0000: real time    0.0000
 


 total charge     
 
# of ion       s       p       d       tot
------------------------------------------
    1        0.744   1.393   0.000   2.137
    2        0.744   1.393   0.000   2.137
    3        0.744   1.393   0.000   2.137
    4        0.744   1.393   0.000   2.137
    5        0.744   1.393   0.000   2.137
    6        0.744   1.394   0.000   2.138
    7        0.744   1.394   0.000   2.138
    8        0.744   1.393   0.000   2.137
    9        0.744   1.393   0.000   2.137
   10        0.744   1.393   0.000   2.137
   11        0.744   1.394   0.000   2.138
   12        0.744   1.393   0.000   2.137
   13        0.744   1.393   0.000   2.137
   14        0.744   1.393   0.000   2.137
   15        0.744   1.393   0.000   2.137
   16        0.744   1.393   0.000   2.137
   17        1.238   2.821   0.000   4.059
   18        1.238   2.821   0.000   4.059
   19        1.238   2.821   0.000   4.059
   20        1.238   2.821   0.000   4.059
   21        1.238   2.821   0.000   4.059
   22        1.238   2.821   0.000   4.059
   23        1.238   2.821   0.000   4.059
   24        1.238   2.821   0.000   4.059
   25        1.238   2.821   0.000   4.059
   26        1.238   2.821   0.000   4.059
   27        1.238   2.820   0.000   4.059
   28        1.238   2.821   0.000   4.059
   29        1.238   2.821   0.000   4.059
   30        1.238   2.821   0.000   4.059
   31        1.238   2.821   0.000   4.059
   32        1.238   2.821   0.000   4.059
   33        0.813   1.563   0.000   2.376
   34        0.838   1.551   0.000   2.389
   35        0.907   1.730   0.000   2.637
   36        1.759   4.413   0.000   6.172
   37        1.759   4.406   0.000   6.165
   38        1.759   4.413   0.000   6.171
   39        1.759   4.400   0.000   6.159
   40        1.759   4.402   0.000   6.160
   41        1.605   3.560   0.000   5.165
   42        1.605   3.563   0.000   5.168
--------------------------------------------------
tot         46.280 101.427   0.000 147.707
 


 magnetization (x)
 
# of ion       s       p       d       tot
------------------------------------------
    1       -0.000  -0.000   0.000  -0.000
    2       -0.000  -0.000   0.000  -0.000
    3       -0.000  -0.000   0.000  -0.000
    4       -0.000  -0.000   0.000  -0.000
    5       -0.000  -0.000   0.000  -0.000
    6       -0.000  -0.000   0.000  -0.000
    7       -0.000   0.000   0.000  -0.000
    8       -0.000  -0.000   0.000  -0.000
    9       -0.000  -0.000   0.000  -0.000
   10       -0.000  -0.000   0.000  -0.000
   11       -0.000  -0.000   0.000  -0.000
   12        0.000   0.000   0.000   0.000
   13       -0.000  -0.000   0.000  -0.000
   14       -0.000  -0.000   0.000  -0.000
   15       -0.000  -0.000   0.000  -0.000
   16       -0.000  -0.000   0.000  -0.000
   17        0.000   0.000   0.000   0.000
   18        0.000   0.000   0.000   0.000
   19        0.000   0.000   0.000   0.000
   20        0.000   0.000   0.000   0.000
   21        0.000   0.000   0.000   0.000
   22        0.000   0.000   0.000   0.000
   23        0.000   0.000   0.000   0.000
   24        0.000   0.000   0.000   0.000
   25        0.000   0.000   0.000   0.000
   26       -0.000   0.000   0.000   0.000
   27        0.000   0.000   0.000   0.000
   28        0.000  -0.000   0.000  -0.000
   29        0.000   0.000   0.000   0.000
   30        0.000   0.000   0.000   0.000
   31        0.000   0.000   0.000   0.000
   32        0.000   0.000   0.000   0.000
   33        0.005   0.014   0.000   0.019
   34        0.038   0.203   0.000   0.241
   35       -0.013  -0.027   0.000  -0.040
   36       -0.000  -0.001   0.000  -0.001
   37        0.000   0.019   0.000   0.020
   38       -0.000  -0.001   0.000  -0.001
   39        0.001   0.051   0.000   0.053
   40        0.001   0.049   0.000   0.051
   41        0.002   0.152   0.000   0.155
   42        0.002   0.144   0.000   0.146
--------------------------------------------------
tot          0.037   0.606   0.000   0.642
 

 total amount of memory used by VASP MPI-rank0  1062326. kBytes
=======================================================================

   base      :      30000. kBytes
   nonlr-proj:      18708. kBytes
   fftplans  :      36020. kBytes
   grid      :     353049. kBytes
   one-center:        258. kBytes
   wavefun   :     624291. kBytes
 
  
  
 General timing and accounting informations for this job:
 ========================================================
  
                  Total CPU time used (sec):     6132.056
                            User time (sec):     5722.526
                          System time (sec):      409.529
                         Elapsed time (sec):     4182.137
  
                   Maximum memory used (kb):     1930812.
                   Average memory used (kb):           0.
  
                          Minor page faults:       932091
                          Major page faults:           11
                 Voluntary context switches:        44675
