Job started on bc4u21n1 at Wed Jan  5 18:22:13 CST 2022
 argument  1 = mol.nw
 


============================== echo of input deck ==============================
echo
start mol
title "mol"

geometry nocenter noautosym noautoz
  load mol.xyz
end

charge -1

basis noprint
  * library aug-cc-pVDZ
end

scf
  tol2e 1d-9
  uhf
  singlet
  vectors output PFCA_q_1.movecs
end

task scf
================================================================================


                                         
                                         
 
 
              Northwest Computational Chemistry Package (NWChem) 6.8
              ------------------------------------------------------
 
 
                    Environmental Molecular Sciences Laboratory
                       Pacific Northwest National Laboratory
                                Richland, WA 99352
 
                              Copyright (c) 1994-2017
                       Pacific Northwest National Laboratory
                            Battelle Memorial Institute
 
             NWChem is an open-source computational chemistry package
                        distributed under the terms of the
                      Educational Community License (ECL) 2.0
             A copy of the license is included with this distribution
                              in the LICENSE.TXT file
 
                                  ACKNOWLEDGMENT
                                  --------------

            This software and its documentation were developed at the
            EMSL at Pacific Northwest National Laboratory, a multiprogram
            national laboratory, operated for the U.S. Department of Energy
            by Battelle under Contract Number DE-AC05-76RL01830. Support
            for this work was provided by the Department of Energy Office
            of Biological and Environmental Research, Office of Basic
            Energy Sciences, and the Office of Advanced Scientific Computing.


           Job information
           ---------------

    hostname        = bc4u21n1
    program         = /opt/apps/software/MPI/intel/2019.3.199-GCC-8.3.0/impi/2019.4.243/NWChem/6.8.revision47/bin/nwchem
    date            = Wed Jan  5 18:22:14 2022

    compiled        = Sat Jan 11 14:38:06 CST 2020
    source          = /tmp/eb-_UtWhd/tmp6zSplu-NWChem-6.8.revision47
    nwchem branch   = 6.8
    nwchem revision = v6.8-47-gdf6c956
    ga revision     = ga-5.6.3
    use scalapack   = T
    input           = mol.nw
    prefix          = mol.
    data base       = ./mol.db
    status          = startup
    nproc           =      184
    time left       =     -1s



           Memory information
           ------------------

    heap     =  130136320 doubles =    992.9 Mbytes
    stack    =  130136317 doubles =    992.9 Mbytes
    global   =  260272640 doubles =   1985.7 Mbytes (distinct from heap & stack)
    total    =  520545277 doubles =   3971.4 Mbytes
    verify   = yes
    hardfail = no 


           Directory information
           ---------------------
 
  0 permanent = .
  0 scratch   = .
 
 
 
 
                                NWChem Input Module
                                -------------------
 
 
                                        mol
                                        ---

 Scaling coordinates for geometry "geometry" by  1.889725989
 (inverse scale =  0.529177249)

 
 
                             Geometry "geometry" -> ""
                             -------------------------
 
 Output coordinates in angstroms (scale by  1.889725989 to convert to a.u.)
 
  No.       Tag          Charge          X              Y              Z
 ---- ---------------- ---------- -------------- -------------- --------------
    1 C                    6.0000    10.07462943     8.62050732     9.54279851
    2 C                    6.0000    10.06851448     9.88635113    10.43414452
    3 C                    6.0000    10.01311797    11.22185646     9.60469835
    4 F                    9.0000    11.11467919     8.65438072     8.68497095
    5 F                    9.0000    10.18176452     7.50106846    10.28788860
    6 F                    9.0000     8.93786232     8.53651147     8.82459485
    7 F                    9.0000     8.99118069     9.77453825    11.27509892
    8 F                    9.0000    11.19217652     9.82516806    11.21496522
    9 O                    8.0000    11.12397188    11.74172856     9.35843542
   10 O                    8.0000     8.86210100    11.58446358     9.27217865
 
      Atomic Mass 
      ----------- 
 
      C                 12.000000
      F                 18.998400
      O                 15.994910
 

 Effective nuclear repulsion energy (a.u.)     616.8042055066

            Nuclear Dipole moment (a.u.) 
            ----------------------------
        X                 Y               Z
 ---------------- ---------------- ----------------
  1501.5481579792  1443.0076702342  1472.3278999102
 
 
            XYZ format geometry
            -------------------
    10
 geometry
 C                    10.07462943     8.62050732     9.54279851
 C                    10.06851448     9.88635113    10.43414452
 C                    10.01311797    11.22185646     9.60469835
 F                    11.11467919     8.65438072     8.68497095
 F                    10.18176452     7.50106846    10.28788860
 F                     8.93786232     8.53651147     8.82459485
 F                     8.99118069     9.77453825    11.27509892
 F                    11.19217652     9.82516806    11.21496522
 O                    11.12397188    11.74172856     9.35843542
 O                     8.86210100    11.58446358     9.27217865
 
 ==============================================================================
                                internuclear distances
 ------------------------------------------------------------------------------
       center one      |      center two      | atomic units |  angstroms
 ------------------------------------------------------------------------------
    2 C                |   1 C                |     2.92566  |     1.54819
    3 C                |   2 C                |     2.97272  |     1.57309
    4 F                |   1 C                |     2.54848  |     1.34860
    5 F                |   1 C                |     2.54923  |     1.34899
    6 F                |   1 C                |     2.54595  |     1.34726
    7 F                |   2 C                |     2.59131  |     1.37126
    8 F                |   2 C                |     2.58833  |     1.36969
    9 O                |   3 C                |     2.36398  |     1.25096
   10 O                |   3 C                |     2.36548  |     1.25176
 ------------------------------------------------------------------------------
                         number of included internuclear distances:          9
 ==============================================================================



 ==============================================================================
                                 internuclear angles
 ------------------------------------------------------------------------------
        center 1       |       center 2       |       center 3       |  degrees
 ------------------------------------------------------------------------------
    2 C                |   1 C                |   4 F                |   110.41
    2 C                |   1 C                |   5 F                |   111.15
    2 C                |   1 C                |   6 F                |   110.77
    4 F                |   1 C                |   5 F                |   108.12
    4 F                |   1 C                |   6 F                |   108.25
    5 F                |   1 C                |   6 F                |   108.04
    1 C                |   2 C                |   3 C                |   113.00
    1 C                |   2 C                |   7 F                |   106.83
    1 C                |   2 C                |   8 F                |   106.76
    3 C                |   2 C                |   7 F                |   111.40
    3 C                |   2 C                |   8 F                |   111.56
    7 F                |   2 C                |   8 F                |   106.93
    2 C                |   3 C                |   9 O                |   115.17
    2 C                |   3 C                |  10 O                |   114.73
    9 O                |   3 C                |  10 O                |   130.08
 ------------------------------------------------------------------------------
                            number of included internuclear angles:         15
 ==============================================================================



  library name resolved from: environment
  library file name is: <
 /opt/apps/software/MPI/intel/2019.3.199-GCC-8.3.0/impi/2019.4.243/NWChem/6.8.re
 vision47/data/libraries/>
  
                                 NWChem SCF Module
                                 -----------------
 
 
                                        mol
 
 

  ao basis        = "ao basis"
  functions       =   250
  atoms           =    10
  alpha electrons =    40
  beta  electrons =    40
  charge          =  -1.00
  wavefunction    = UHF 
  input vectors   = atomic
  output vectors  = ./PFCA_q_1.movecs
  use symmetry    = F
  symmetry adapt  = F


 Summary of "ao basis" -> "ao basis" (cartesian)
 ------------------------------------------------------------------------------
       Tag                 Description            Shells   Functions and Types
 ---------------- ------------------------------  ------  ---------------------
 C                        aug-cc-pVDZ                9       25   4s3p2d
 F                        aug-cc-pVDZ                9       25   4s3p2d
 O                        aug-cc-pVDZ                9       25   4s3p2d



 Forming initial guess at       0.2s

 
      Superposition of Atomic Density Guess
      -------------------------------------
 
 Sum of atomic energies:        -759.47761771

 Renormalizing density from      79.00 to     80
 
      Non-variational initial energy
      ------------------------------

 Total energy =    -768.334954
 1-e energy   =   -2312.124785
 2-e energy   =     926.985625
 HOMO         =      -0.032922
 LUMO         =       0.180777
 

 Starting SCF solution at       0.7s



 ----------------------------------------------
         Quadratically convergent UHF

 Convergence threshold     :          1.000E-04
 Maximum no. of iterations :           30
 Integral*density screening:          1.000E-09
 ----------------------------------------------


              iter       energy          gnorm     gmax       time
             ----- ------------------- --------- --------- --------
                 1     -760.2705712463  1.93D+00  1.43D-01      1.6
                 2     -760.6566715704  4.39D-01  3.27D-02      3.6
                 3     -760.6883593091  1.43D-02  9.28D-04      6.8
                 4     -760.6884008919  1.04D-04  2.18D-05     10.4
                 5     -760.6884008964  8.60D-06  1.86D-06     12.7


       Final UHF  results 
       ------------------ 

         Total SCF energy =   -760.688400896353
      One electron energy =  -2298.447528509567
      Two electron energy =    920.954922106653
 Nuclear repulsion energy =    616.804205506561

                       Sz =      0.0000
                 Sz(Sz+1) =      0.0000
                      S^2 =      0.0000

        Time for solution =     12.5s


          Final alpha eigenvalues
          -----------------------

              1      
    1  -26.2396
    2  -26.2336
    3  -26.2327
    4  -26.1960
    5  -26.1952
    6  -20.3446
    7  -20.3444
    8  -11.4038
    9  -11.2980
   10  -11.1964
   11   -1.6168
   12   -1.5359
   13   -1.5247
   14   -1.5215
   15   -1.4752
   16   -1.2165
   17   -1.1164
   18   -0.9288
   19   -0.8087
   20   -0.7190
   21   -0.7085
   22   -0.7064
   23   -0.6585
   24   -0.6277
   25   -0.5901
   26   -0.5887
   27   -0.5772
   28   -0.5510
   29   -0.5481
   30   -0.5394
   31   -0.5338
   32   -0.5321
   33   -0.5004
   34   -0.4746
   35   -0.4357
   36   -0.4287
   37   -0.3888
   38   -0.2523
   39   -0.2504
   40   -0.2284
   41    0.1688
   42    0.1860
   43    0.2023
   44    0.2056
   45    0.2242
   46    0.2366
   47    0.2428
   48    0.2464
   49    0.2632
   50    0.2731
 
          Final beta eigenvalues
          ----------------------

              1      
    1  -26.2396
    2  -26.2336
    3  -26.2327
    4  -26.1960
    5  -26.1952
    6  -20.3446
    7  -20.3444
    8  -11.4038
    9  -11.2980
   10  -11.1964
   11   -1.6168
   12   -1.5359
   13   -1.5247
   14   -1.5215
   15   -1.4752
   16   -1.2165
   17   -1.1164
   18   -0.9288
   19   -0.8087
   20   -0.7190
   21   -0.7085
   22   -0.7064
   23   -0.6585
   24   -0.6277
   25   -0.5901
   26   -0.5887
   27   -0.5772
   28   -0.5510
   29   -0.5481
   30   -0.5394
   31   -0.5338
   32   -0.5321
   33   -0.5004
   34   -0.4746
   35   -0.4357
   36   -0.4287
   37   -0.3888
   38   -0.2523
   39   -0.2504
   40   -0.2284
   41    0.1688
   42    0.1860
   43    0.2023
   44    0.2056
   45    0.2242
   46    0.2366
   47    0.2428
   48    0.2464
   49    0.2632
   50    0.2731
 
                    UHF Final Alpha Molecular Orbital Analysis
                    ------------------------------------------
 
 Vector   15  Occ=1.000000D+00  E=-1.475172D+00
              MO Center=  1.0D+01,  9.8D+00,  1.1D+01, r^2= 1.5D+00
   Bfn.  Coefficient  Atom+Function         Bfn.  Coefficient  Atom+Function  
  ----- ------------  ---------------      ----- ------------  ---------------
   153      0.416519   7 F  s               178     -0.417329   8 F  s         
   152      0.331235   7 F  s               177     -0.332091   8 F  s         
 
 Vector   16  Occ=1.000000D+00  E=-1.216474D+00
              MO Center=  1.0D+01,  1.2D+01,  9.4D+00, r^2= 1.2D+00
   Bfn.  Coefficient  Atom+Function         Bfn.  Coefficient  Atom+Function  
  ----- ------------  ---------------      ----- ------------  ---------------
   203      0.270151   9 O  s               228      0.269881  10 O  s         
    52      0.267632   3 C  s               202      0.261407   9 O  s         
   227      0.261046  10 O  s         
 
 Vector   17  Occ=1.000000D+00  E=-1.116447D+00
              MO Center=  1.0D+01,  1.2D+01,  9.4D+00, r^2= 1.4D+00
   Bfn.  Coefficient  Atom+Function         Bfn.  Coefficient  Atom+Function  
  ----- ------------  ---------------      ----- ------------  ---------------
   203      0.318991   9 O  s               228     -0.317101  10 O  s         
   202      0.301472   9 O  s               227     -0.301267  10 O  s         
    55      0.269499   3 C  px        
 
 Vector   18  Occ=1.000000D+00  E=-9.287964D-01
              MO Center=  1.0D+01,  9.1D+00,  9.9D+00, r^2= 2.3D+00
   Bfn.  Coefficient  Atom+Function         Bfn.  Coefficient  Atom+Function  
  ----- ------------  ---------------      ----- ------------  ---------------
     2      0.280174   1 C  s                27      0.254669   2 C  s         
    29     -0.220312   2 C  s                54      0.200962   3 C  s         
 
 Vector   19  Occ=1.000000D+00  E=-8.086606D-01
              MO Center=  1.0D+01,  9.0D+00,  9.9D+00, r^2= 3.2D+00
   Bfn.  Coefficient  Atom+Function         Bfn.  Coefficient  Atom+Function  
  ----- ------------  ---------------      ----- ------------  ---------------
    28      0.272032   2 C  s                27      0.218014   2 C  s         
     4      0.212127   1 C  s                 2     -0.210752   1 C  s         
   130     -0.189749   6 F  px              107      0.184209   5 F  pz        
    80      0.170827   4 F  px               29     -0.165375   2 C  s         
   106     -0.155017   5 F  py        
 
 Vector   20  Occ=1.000000D+00  E=-7.190236D-01
              MO Center=  1.0D+01,  8.9D+00,  9.7D+00, r^2= 2.9D+00
   Bfn.  Coefficient  Atom+Function         Bfn.  Coefficient  Atom+Function  
  ----- ------------  ---------------      ----- ------------  ---------------
     7      0.273352   1 C  pz              106      0.271610   5 F  py        
    34     -0.262094   2 C  py               80      0.256861   4 F  px        
   130     -0.242012   6 F  px               31     -0.193459   2 C  py        
    53      0.190595   3 C  s                83      0.174818   4 F  px        
   109      0.173348   5 F  py              133     -0.164606   6 F  px        
 
 Vector   21  Occ=1.000000D+00  E=-7.084859D-01
              MO Center=  1.0D+01,  8.5D+00,  9.3D+00, r^2= 2.2D+00
   Bfn.  Coefficient  Atom+Function         Bfn.  Coefficient  Atom+Function  
  ----- ------------  ---------------      ----- ------------  ---------------
     5      0.302884   1 C  px               82      0.299757   4 F  pz        
   105      0.271202   5 F  px              132     -0.272469   6 F  pz        
    85      0.191139   4 F  pz              130     -0.187639   6 F  px        
   108      0.185823   5 F  px              135     -0.175466   6 F  pz        
 
 Vector   22  Occ=1.000000D+00  E=-7.064113D-01
              MO Center=  1.0D+01,  8.7D+00,  1.0D+01, r^2= 2.9D+00
   Bfn.  Coefficient  Atom+Function         Bfn.  Coefficient  Atom+Function  
  ----- ------------  ---------------      ----- ------------  ---------------
    28      0.302150   2 C  s               107      0.266961   5 F  pz        
     6      0.255066   1 C  py              131      0.228385   6 F  py        
    81      0.223159   4 F  py              110      0.180123   5 F  pz        
   180      0.175854   8 F  px              155     -0.164550   7 F  px        
   134      0.156767   6 F  py               84      0.153710   4 F  py        
 
 Vector   23  Occ=1.000000D+00  E=-6.584713D-01
              MO Center=  1.0D+01,  9.8D+00,  1.0D+01, r^2= 3.0D+00
   Bfn.  Coefficient  Atom+Function         Bfn.  Coefficient  Atom+Function  
  ----- ------------  ---------------      ----- ------------  ---------------
   155      0.278630   7 F  px              180     -0.269527   8 F  px        
    32      0.218183   2 C  pz              158      0.193317   7 F  px        
   183     -0.186481   8 F  px               31     -0.162538   2 C  py        
 
 Vector   24  Occ=1.000000D+00  E=-6.276941D-01
              MO Center=  1.0D+01,  9.6D+00,  1.1D+01, r^2= 2.5D+00
   Bfn.  Coefficient  Atom+Function         Bfn.  Coefficient  Atom+Function  
  ----- ------------  ---------------      ----- ------------  ---------------
   157      0.324497   7 F  pz              182     -0.309520   8 F  pz        
    30      0.283808   2 C  px              160      0.215978   7 F  pz        
   185     -0.205196   8 F  pz              180     -0.192745   8 F  px        
   155     -0.170560   7 F  px              105     -0.159351   5 F  px        
 
 Vector   25  Occ=1.000000D+00  E=-5.900993D-01
              MO Center=  1.0D+01,  8.2D+00,  9.6D+00, r^2= 2.4D+00
   Bfn.  Coefficient  Atom+Function         Bfn.  Coefficient  Atom+Function  
  ----- ------------  ---------------      ----- ------------  ---------------
   106      0.386500   5 F  py              132     -0.300980   6 F  pz        
    82     -0.284042   4 F  pz              109      0.268054   5 F  py        
    29      0.239728   2 C  s               107      0.230584   5 F  pz        
   135     -0.209067   6 F  pz               85     -0.197490   4 F  pz        
    54     -0.170889   3 C  s               110      0.169977   5 F  pz        
 
 Vector   26  Occ=1.000000D+00  E=-5.887318D-01
              MO Center=  1.0D+01,  8.4D+00,  9.4D+00, r^2= 2.5D+00
   Bfn.  Coefficient  Atom+Function         Bfn.  Coefficient  Atom+Function  
  ----- ------------  ---------------      ----- ------------  ---------------
   105     -0.335831   5 F  px               81      0.331282   4 F  py        
   131     -0.319557   6 F  py               84      0.237171   4 F  py        
   108     -0.235675   5 F  px              134     -0.227408   6 F  py        
 
 Vector   27  Occ=1.000000D+00  E=-5.772460D-01
              MO Center=  1.0D+01,  9.3D+00,  1.0D+01, r^2= 3.4D+00
   Bfn.  Coefficient  Atom+Function         Bfn.  Coefficient  Atom+Function  
  ----- ------------  ---------------      ----- ------------  ---------------
     3      0.493008   1 C  s                34      0.473366   2 C  py        
     9      0.329537   1 C  py               53     -0.257924   3 C  s         
    10      0.249719   1 C  pz              157     -0.233267   7 F  pz        
   156     -0.228115   7 F  py              182     -0.228817   8 F  pz        
   131     -0.225853   6 F  py               28     -0.219937   2 C  s         
 
 Vector   28  Occ=1.000000D+00  E=-5.510238D-01
              MO Center=  1.0D+01,  8.8D+00,  9.7D+00, r^2= 3.2D+00
   Bfn.  Coefficient  Atom+Function         Bfn.  Coefficient  Atom+Function  
  ----- ------------  ---------------      ----- ------------  ---------------
   130      0.287761   6 F  px               80      0.269626   4 F  px        
   105      0.261421   5 F  px              181     -0.242669   8 F  py        
   131     -0.239848   6 F  py              156      0.221801   7 F  py        
    81      0.215015   4 F  py              133      0.186929   6 F  px        
   108      0.182155   5 F  px              184     -0.182592   8 F  py        
 
 Vector   29  Occ=1.000000D+00  E=-5.481072D-01
              MO Center=  1.0D+01,  8.3D+00,  9.5D+00, r^2= 2.5D+00
   Bfn.  Coefficient  Atom+Function         Bfn.  Coefficient  Atom+Function  
  ----- ------------  ---------------      ----- ------------  ---------------
   107      0.446500   5 F  pz               81     -0.310826   4 F  py        
   110      0.306610   5 F  pz              131     -0.251821   6 F  py        
    84     -0.222901   4 F  py              132      0.199444   6 F  pz        
    82      0.196313   4 F  pz              134     -0.181204   6 F  py        
    59      0.170409   3 C  py               34      0.167430   2 C  py        
 
 Vector   30  Occ=1.000000D+00  E=-5.393700D-01
              MO Center=  1.0D+01,  1.0D+01,  1.0D+01, r^2= 3.9D+00
   Bfn.  Coefficient  Atom+Function         Bfn.  Coefficient  Atom+Function  
  ----- ------------  ---------------      ----- ------------  ---------------
   156      0.245632   7 F  py              182     -0.235233   8 F  pz        
   157     -0.227352   7 F  pz               52     -0.220392   3 C  s         
   203      0.199224   9 O  s               228      0.199649  10 O  s         
   181      0.192434   8 F  py              230     -0.188350  10 O  px        
   205      0.180841   9 O  px              159      0.175213   7 F  py        
 
 Vector   31  Occ=1.000000D+00  E=-5.338369D-01
              MO Center=  1.0D+01,  8.7D+00,  9.4D+00, r^2= 2.9D+00
   Bfn.  Coefficient  Atom+Function         Bfn.  Coefficient  Atom+Function  
  ----- ------------  ---------------      ----- ------------  ---------------
   132     -0.313002   6 F  pz               80      0.303569   4 F  px        
    82      0.264513   4 F  pz              130      0.259016   6 F  px        
   135     -0.223763   6 F  pz               83      0.210171   4 F  px        
   156     -0.205080   7 F  py              105     -0.202416   5 F  px        
   181      0.194456   8 F  py               85      0.190143   4 F  pz        
 
 Vector   32  Occ=1.000000D+00  E=-5.320611D-01
              MO Center=  1.0D+01,  9.0D+00,  1.0D+01, r^2= 3.3D+00
   Bfn.  Coefficient  Atom+Function         Bfn.  Coefficient  Atom+Function  
  ----- ------------  ---------------      ----- ------------  ---------------
   181      0.366416   8 F  py              105      0.343020   5 F  px        
   156     -0.335489   7 F  py              184      0.268398   8 F  py        
   159     -0.247846   7 F  py              108      0.243920   5 F  px        
   131     -0.213649   6 F  py               81      0.187222   4 F  py        
    46     -0.182384   2 C  dxy       
 
 Vector   33  Occ=1.000000D+00  E=-5.004026D-01
              MO Center=  1.0D+01,  9.8D+00,  1.1D+01, r^2= 1.9D+00
   Bfn.  Coefficient  Atom+Function         Bfn.  Coefficient  Atom+Function  
  ----- ------------  ---------------      ----- ------------  ---------------
   155      0.406824   7 F  px              180      0.392111   8 F  px        
   158      0.280668   7 F  px              183      0.269747   8 F  px        
   182     -0.267631   8 F  pz              157      0.253415   7 F  pz        
   185     -0.196337   8 F  pz              160      0.186981   7 F  pz        
 
 Vector   34  Occ=1.000000D+00  E=-4.746321D-01
              MO Center=  1.0D+01,  1.1D+01,  9.9D+00, r^2= 3.7D+00
   Bfn.  Coefficient  Atom+Function         Bfn.  Coefficient  Atom+Function  
  ----- ------------  ---------------      ----- ------------  ---------------
    53      0.287741   3 C  s               205     -0.251283   9 O  px        
   182     -0.249356   8 F  pz              157     -0.242754   7 F  pz        
    56      0.235071   3 C  py              230      0.230256  10 O  px        
    29     -0.200199   2 C  s                 3     -0.197094   1 C  s         
    32      0.184308   2 C  pz               34     -0.184418   2 C  py        
 
 Vector   35  Occ=1.000000D+00  E=-4.356939D-01
              MO Center=  1.0D+01,  1.2D+01,  9.3D+00, r^2= 2.2D+00
   Bfn.  Coefficient  Atom+Function         Bfn.  Coefficient  Atom+Function  
  ----- ------------  ---------------      ----- ------------  ---------------
    55      0.382536   3 C  px              230     -0.307870  10 O  px        
   205     -0.252649   9 O  px              228      0.240227  10 O  s         
   203     -0.222539   9 O  s               206     -0.221162   9 O  py        
   231      0.162215  10 O  py              233     -0.158765  10 O  px        
 
 Vector   36  Occ=1.000000D+00  E=-4.287275D-01
              MO Center=  1.0D+01,  9.9D+00,  1.0D+01, r^2= 3.4D+00
   Bfn.  Coefficient  Atom+Function         Bfn.  Coefficient  Atom+Function  
  ----- ------------  ---------------      ----- ------------  ---------------
   156     -0.250805   7 F  py              181     -0.247614   8 F  py        
    34      0.236916   2 C  py               31      0.230888   2 C  py        
     6     -0.211265   1 C  py              159     -0.188826   7 F  py        
   184     -0.186014   8 F  py               57      0.165459   3 C  pz        
   205      0.157234   9 O  px                7     -0.156262   1 C  pz        
 
 Vector   37  Occ=1.000000D+00  E=-3.887885D-01
              MO Center=  1.0D+01,  1.1D+01,  9.5D+00, r^2= 2.1D+00
   Bfn.  Coefficient  Atom+Function         Bfn.  Coefficient  Atom+Function  
  ----- ------------  ---------------      ----- ------------  ---------------
    57      0.272354   3 C  pz              207      0.268136   9 O  pz        
   232      0.266581  10 O  pz               29      0.199115   2 C  s         
   210      0.193751   9 O  pz              235      0.192978  10 O  pz        
   231      0.184570  10 O  py              206      0.183026   9 O  py        
    56      0.180321   3 C  py        
 
 Vector   38  Occ=1.000000D+00  E=-2.523205D-01
              MO Center=  1.0D+01,  1.2D+01,  9.4D+00, r^2= 2.0D+00
   Bfn.  Coefficient  Atom+Function         Bfn.  Coefficient  Atom+Function  
  ----- ------------  ---------------      ----- ------------  ---------------
   205      0.304489   9 O  px              206     -0.300142   9 O  py        
   231      0.300023  10 O  py              230      0.272760  10 O  px        
   209     -0.252416   9 O  py              234      0.253191  10 O  py        
   208      0.218907   9 O  px              207      0.194793   9 O  pz        
   233      0.189660  10 O  px              210      0.159803   9 O  pz        
 
 Vector   39  Occ=1.000000D+00  E=-2.504206D-01
              MO Center=  9.9D+00,  1.1D+01,  9.5D+00, r^2= 2.5D+00
   Bfn.  Coefficient  Atom+Function         Bfn.  Coefficient  Atom+Function  
  ----- ------------  ---------------      ----- ------------  ---------------
   231      0.343179  10 O  py              206      0.305445   9 O  py        
    31      0.266081   2 C  py              234      0.246338  10 O  py        
   232     -0.215899  10 O  pz               34      0.206451   2 C  py        
   209      0.206999   9 O  py              207     -0.193833   9 O  pz        
 
 Vector   40  Occ=1.000000D+00  E=-2.283608D-01
              MO Center=  1.0D+01,  1.2D+01,  9.3D+00, r^2= 2.0D+00
   Bfn.  Coefficient  Atom+Function         Bfn.  Coefficient  Atom+Function  
  ----- ------------  ---------------      ----- ------------  ---------------
   207      0.369707   9 O  pz              232     -0.368134  10 O  pz        
   210      0.282678   9 O  pz              235     -0.281880  10 O  pz        
   206      0.215932   9 O  py              231     -0.216753  10 O  py        
   209      0.167350   9 O  py              234     -0.167742  10 O  py        
 
 Vector   41  Occ=0.000000D+00  E= 1.688347D-01
              MO Center=  1.0D+01,  6.4D+00,  8.6D+00, r^2= 1.0D+01
   Bfn.  Coefficient  Atom+Function         Bfn.  Coefficient  Atom+Function  
  ----- ------------  ---------------      ----- ------------  ---------------
     4     11.464017   1 C  s                54     -8.230346   3 C  s         
    29     -5.739202   2 C  s                12      4.272496   1 C  py        
    37      3.729486   2 C  py               13      2.528294   1 C  pz        
   204      1.615783   9 O  s               229      1.572355  10 O  s         
    62      1.546673   3 C  py               53     -0.989438   3 C  s         
 
 Vector   42  Occ=0.000000D+00  E= 1.859950D-01
              MO Center=  1.0D+01,  9.2D+00,  1.3D+01, r^2= 1.0D+01
   Bfn.  Coefficient  Atom+Function         Bfn.  Coefficient  Atom+Function  
  ----- ------------  ---------------      ----- ------------  ---------------
    29     20.596210   2 C  s                 4    -11.705524   1 C  s         
    54     -8.341371   3 C  s                38     -6.473888   2 C  pz        
    12     -2.378684   1 C  py              179     -1.222782   8 F  s         
   154     -1.168456   7 F  s               104      1.138966   5 F  s         
    37      1.047286   2 C  py               13     -0.859966   1 C  pz        
 
 Vector   43  Occ=0.000000D+00  E= 2.022815D-01
              MO Center=  1.0D+01,  1.1D+01,  9.2D+00, r^2= 2.1D+01
   Bfn.  Coefficient  Atom+Function         Bfn.  Coefficient  Atom+Function  
  ----- ------------  ---------------      ----- ------------  ---------------
    54      8.036279   3 C  s                 4     -6.081714   1 C  s         
    62     -3.484149   3 C  py               37     -2.839107   2 C  py        
    29     -2.210019   2 C  s                13      1.955409   1 C  pz        
    63      1.909286   3 C  pz               38     -1.869077   2 C  pz        
    12     -1.272396   1 C  py               53     -1.062449   3 C  s         
 
 Vector   44  Occ=0.000000D+00  E= 2.056008D-01
              MO Center=  1.0D+01,  7.9D+00,  9.4D+00, r^2= 1.5D+01
   Bfn.  Coefficient  Atom+Function         Bfn.  Coefficient  Atom+Function  
  ----- ------------  ---------------      ----- ------------  ---------------
    11      3.391420   1 C  px               54      1.061433   3 C  s         
     4     -1.029746   1 C  s               129      0.898363   6 F  s         
    86     -0.646227   4 F  px              111     -0.621725   5 F  px        
    79     -0.598299   4 F  s               136     -0.574721   6 F  px        
   229      0.577560  10 O  s               204     -0.570010   9 O  s         
 
 Vector   45  Occ=0.000000D+00  E= 2.241627D-01
              MO Center=  1.0D+01,  1.0D+01,  9.2D+00, r^2= 2.3D+01
   Bfn.  Coefficient  Atom+Function         Bfn.  Coefficient  Atom+Function  
  ----- ------------  ---------------      ----- ------------  ---------------
    54     10.968651   3 C  s                29     -8.097435   2 C  s         
     4     -5.505047   1 C  s                37     -4.985986   2 C  py        
    13     -3.973783   1 C  pz               62     -3.579334   3 C  py        
    38      3.550806   2 C  pz               63      2.247967   3 C  pz        
   104      2.089087   5 F  s                12      1.045196   1 C  py        
 
 Vector   46  Occ=0.000000D+00  E= 2.366204D-01
              MO Center=  1.0D+01,  1.0D+01,  1.1D+01, r^2= 1.8D+01
   Bfn.  Coefficient  Atom+Function         Bfn.  Coefficient  Atom+Function  
  ----- ------------  ---------------      ----- ------------  ---------------
    36      5.316857   2 C  px               11     -3.434111   1 C  px        
   204     -1.799940   9 O  s               179     -1.116255   8 F  s         
   229      1.093692  10 O  s               154      1.021286   7 F  s         
   186     -0.522243   8 F  px              161     -0.511016   7 F  px        
   238      0.479300  10 O  pz               54      0.461936   3 C  s         
 
 Vector   47  Occ=0.000000D+00  E= 2.427602D-01
              MO Center=  1.0D+01,  1.1D+01,  9.7D+00, r^2= 1.8D+01
   Bfn.  Coefficient  Atom+Function         Bfn.  Coefficient  Atom+Function  
  ----- ------------  ---------------      ----- ------------  ---------------
    54      4.482099   3 C  s                 4     -3.989514   1 C  s         
    37     -3.707420   2 C  py               29      3.446862   2 C  s         
   229     -1.876036  10 O  s               204     -1.804943   9 O  s         
    63     -1.418632   3 C  pz               12      1.304774   1 C  py        
   154     -1.055869   7 F  s                36     -1.020948   2 C  px        
 
 Vector   48  Occ=0.000000D+00  E= 2.464239D-01
              MO Center=  9.9D+00,  1.1D+01,  9.6D+00, r^2= 2.0D+01
   Bfn.  Coefficient  Atom+Function         Bfn.  Coefficient  Atom+Function  
  ----- ------------  ---------------      ----- ------------  ---------------
    61     -5.618266   3 C  px               36      5.202229   2 C  px        
   229     -2.623473  10 O  s               204      2.283678   9 O  s         
   179     -0.955013   8 F  s                11     -0.898469   1 C  px        
   154      0.804042   7 F  s                 4     -0.683441   1 C  s         
    29      0.500364   2 C  s                46     -0.463241   2 C  dxy       
 
 Vector   49  Occ=0.000000D+00  E= 2.631940D-01
              MO Center=  1.0D+01,  1.0D+01,  9.5D+00, r^2= 1.8D+01
   Bfn.  Coefficient  Atom+Function         Bfn.  Coefficient  Atom+Function  
  ----- ------------  ---------------      ----- ------------  ---------------
    54      4.802884   3 C  s                38     -4.152683   2 C  pz        
    63      4.129533   3 C  pz               79     -2.565647   4 F  s         
   129     -2.482715   6 F  s                37     -2.348164   2 C  py        
   204     -2.296767   9 O  s               229     -2.268435  10 O  s         
    12      2.050633   1 C  py              179     -1.655613   8 F  s         
 
 Vector   50  Occ=0.000000D+00  E= 2.730612D-01
              MO Center=  1.0D+01,  1.1D+01,  1.0D+01, r^2= 1.9D+01
   Bfn.  Coefficient  Atom+Function         Bfn.  Coefficient  Atom+Function  
  ----- ------------  ---------------      ----- ------------  ---------------
    37     11.603619   2 C  py                4     10.288009   1 C  s         
    54     -8.624296   3 C  s                13      3.908238   1 C  pz        
    63     -3.727193   3 C  pz               62     -3.239226   3 C  py        
    12     -1.048818   1 C  py              104     -0.922405   5 F  s         
   237      0.886692  10 O  py              212      0.861612   9 O  py        
 
 Vector   51  Occ=0.000000D+00  E= 3.203030D-01
              MO Center=  1.0D+01,  9.2D+00,  1.0D+01, r^2= 1.6D+01
   Bfn.  Coefficient  Atom+Function         Bfn.  Coefficient  Atom+Function  
  ----- ------------  ---------------      ----- ------------  ---------------
    29     32.879487   2 C  s                 4    -27.325499   1 C  s         
    38     -5.215268   2 C  pz               12     -5.149726   1 C  py        
   154     -4.202305   7 F  s               179     -4.182555   8 F  s         
    37     -3.976595   2 C  py              104      3.662181   5 F  s         
    13     -2.834090   1 C  pz               54     -2.799930   3 C  s         
 
 Vector   52  Occ=0.000000D+00  E= 3.319992D-01
              MO Center=  1.0D+01,  1.1D+01,  9.6D+00, r^2= 1.8D+01
   Bfn.  Coefficient  Atom+Function         Bfn.  Coefficient  Atom+Function  
  ----- ------------  ---------------      ----- ------------  ---------------
    54     33.579103   3 C  s                 4    -17.620081   1 C  s         
    29    -14.147393   2 C  s                37     -8.450311   2 C  py        
   204     -6.658037   9 O  s               229     -6.570952  10 O  s         
    62     -6.256039   3 C  py               63      3.968212   3 C  pz        
    53      3.757496   3 C  s                28     -3.637599   2 C  s         
 
 Vector   53  Occ=0.000000D+00  E= 3.412712D-01
              MO Center=  1.0D+01,  1.0D+01,  9.9D+00, r^2= 6.1D+00
   Bfn.  Coefficient  Atom+Function         Bfn.  Coefficient  Atom+Function  
  ----- ------------  ---------------      ----- ------------  ---------------
     4      3.218088   1 C  s                54     -2.657052   3 C  s         
    37      2.609876   2 C  py               63     -1.690469   3 C  pz        
    13      1.193812   1 C  pz              154     -0.945066   7 F  s         
   112      0.755820   5 F  py               53      0.744136   3 C  s         
   179     -0.742366   8 F  s                12     -0.733967   1 C  py        
 
 Vector   54  Occ=0.000000D+00  E= 3.606206D-01
              MO Center=  1.0D+01,  9.0D+00,  8.9D+00, r^2= 1.3D+01
   Bfn.  Coefficient  Atom+Function         Bfn.  Coefficient  Atom+Function  
  ----- ------------  ---------------      ----- ------------  ---------------
    11      2.300637   1 C  px               36     -2.143858   2 C  px        
    29     -2.090042   2 C  s               129     -2.048428   6 F  s         
    79      1.874114   4 F  s               136     -1.868047   6 F  px        
     4      1.703327   1 C  s                86     -1.642488   4 F  px        
     8     -1.520391   1 C  px               88      1.235866   4 F  pz        
 
 Vector   55  Occ=0.000000D+00  E= 3.824832D-01
              MO Center=  1.0D+01,  9.7D+00,  9.6D+00, r^2= 1.4D+01
   Bfn.  Coefficient  Atom+Function         Bfn.  Coefficient  Atom+Function  
  ----- ------------  ---------------      ----- ------------  ---------------
    29     14.721535   2 C  s                54     -6.875959   3 C  s         
     4     -5.344517   1 C  s                28      5.074213   2 C  s         
    53     -4.048965   3 C  s                38     -3.852030   2 C  pz        
   154     -2.388485   7 F  s                 3     -2.374257   1 C  s         
   179     -2.308267   8 F  s                59      1.885467   3 C  py        
 
 Vector   56  Occ=0.000000D+00  E= 3.905700D-01
              MO Center=  9.8D+00,  1.0D+01,  9.6D+00, r^2= 1.5D+01
   Bfn.  Coefficient  Atom+Function         Bfn.  Coefficient  Atom+Function  
  ----- ------------  ---------------      ----- ------------  ---------------
    54     14.481460   3 C  s                29     -7.380802   2 C  s         
     4     -5.509249   1 C  s                37     -3.133692   2 C  py        
    62     -2.367460   3 C  py               28      2.310340   2 C  s         
   104      2.187137   5 F  s               204     -2.170826   9 O  s         
     3     -2.155774   1 C  s                12     -2.089797   1 C  py        
 
 Vector   57  Occ=0.000000D+00  E= 3.962747D-01
              MO Center=  1.0D+01,  1.1D+01,  1.0D+01, r^2= 1.3D+01
   Bfn.  Coefficient  Atom+Function         Bfn.  Coefficient  Atom+Function  
  ----- ------------  ---------------      ----- ------------  ---------------
    54      5.431200   3 C  s                 4     -3.943760   1 C  s         
    36     -3.288750   2 C  px               61      3.160705   3 C  px        
   229     -2.636672  10 O  s               211     -2.146546   9 O  px        
    37     -1.645018   2 C  py              236     -1.609929  10 O  px        
   204      1.414769   9 O  s                58     -1.339490   3 C  px        
 
 Vector   58  Occ=0.000000D+00  E= 4.081130D-01
              MO Center=  9.8D+00,  1.0D+01,  9.8D+00, r^2= 1.2D+01
   Bfn.  Coefficient  Atom+Function         Bfn.  Coefficient  Atom+Function  
  ----- ------------  ---------------      ----- ------------  ---------------
    29      6.152368   2 C  s                 4     -4.038340   1 C  s         
     3      2.103775   1 C  s                54     -2.013389   3 C  s         
    36     -1.207130   2 C  px               72      1.207130   3 C  dxz       
    28     -1.191688   2 C  s               129     -1.009512   6 F  s         
   213     -0.886260   9 O  pz               38     -0.841040   2 C  pz        
 
 Vector   59  Occ=0.000000D+00  E= 4.149813D-01
              MO Center=  1.0D+01,  9.0D+00,  1.0D+01, r^2= 1.3D+01
   Bfn.  Coefficient  Atom+Function         Bfn.  Coefficient  Atom+Function  
  ----- ------------  ---------------      ----- ------------  ---------------
    29     26.868939   2 C  s                 4    -14.930595   1 C  s         
    54    -10.050817   3 C  s                 3      6.021214   1 C  s         
    38     -4.827681   2 C  pz               28     -4.138112   2 C  s         
    12     -2.703085   1 C  py              179     -2.086087   8 F  s         
    23      2.006092   1 C  dyy              34      1.778996   2 C  py        
 
 Vector   60  Occ=0.000000D+00  E= 4.337889D-01
              MO Center=  1.0D+01,  1.0D+01,  9.8D+00, r^2= 1.1D+01
   Bfn.  Coefficient  Atom+Function         Bfn.  Coefficient  Atom+Function  
  ----- ------------  ---------------      ----- ------------  ---------------
    29      8.325133   2 C  s                 4     -4.320937   1 C  s         
    54     -2.785512   3 C  s                28     -2.636399   2 C  s         
    61     -2.024124   3 C  px              236      1.959942  10 O  px        
   211      1.915181   9 O  px               38     -1.700394   2 C  pz        
    72     -1.270803   3 C  dxz             229      1.203066  10 O  s         
 
 Vector   61  Occ=0.000000D+00  E= 4.364212D-01
              MO Center=  9.7D+00,  9.4D+00,  1.1D+01, r^2= 1.2D+01
   Bfn.  Coefficient  Atom+Function         Bfn.  Coefficient  Atom+Function  
  ----- ------------  ---------------      ----- ------------  ---------------
    29     10.675454   2 C  s                 4     -5.140965   1 C  s         
    28     -4.307923   2 C  s                54     -3.849029   3 C  s         
    38     -2.620010   2 C  pz                3     -1.438396   1 C  s         
    50     -1.427374   2 C  dzz              59     -1.231830   3 C  py        
   129      1.207375   6 F  s                 9      1.101648   1 C  py        
 
 Vector   62  Occ=0.000000D+00  E= 4.610419D-01
              MO Center=  1.0D+01,  9.1D+00,  9.9D+00, r^2= 1.5D+01
   Bfn.  Coefficient  Atom+Function         Bfn.  Coefficient  Atom+Function  
  ----- ------------  ---------------      ----- ------------  ---------------
    61     -2.883193   3 C  px               11      2.763688   1 C  px        
   111     -2.336321   5 F  px              212      1.643542   9 O  py        
   237     -1.620011  10 O  py               36      1.366301   2 C  px        
    71     -1.242515   3 C  dxy             136     -1.190194   6 F  px        
    21     -1.150189   1 C  dxy             129     -0.976629   6 F  s         
 
 Vector   63  Occ=0.000000D+00  E= 4.671275D-01
              MO Center=  1.0D+01,  8.3D+00,  1.0D+01, r^2= 1.2D+01
   Bfn.  Coefficient  Atom+Function         Bfn.  Coefficient  Atom+Function  
  ----- ------------  ---------------      ----- ------------  ---------------
    37      4.728904   2 C  py                4      4.070050   1 C  s         
    53      3.798715   3 C  s                54     -3.640494   3 C  s         
    34     -2.215165   2 C  py               13      1.975415   1 C  pz        
    12     -1.686820   1 C  py               28     -1.675384   2 C  s         
   113      1.659353   5 F  pz               35      1.607949   2 C  pz        
 
 Vector   64  Occ=0.000000D+00  E= 4.698163D-01
              MO Center=  9.8D+00,  1.0D+01,  9.9D+00, r^2= 1.5D+01
   Bfn.  Coefficient  Atom+Function         Bfn.  Coefficient  Atom+Function  
  ----- ------------  ---------------      ----- ------------  ---------------
    29      3.564954   2 C  s                54     -2.953505   3 C  s         
   236     -2.186038  10 O  px              211     -2.148013   9 O  px        
   129      2.118874   6 F  s               229     -1.849444  10 O  s         
    37      1.796528   2 C  py              136      1.774320   6 F  px        
    11     -1.763336   1 C  px               79     -1.753712   4 F  s         
 
 Vector   65  Occ=0.000000D+00  E= 4.743003D-01
              MO Center=  1.0D+01,  9.7D+00,  9.2D+00, r^2= 1.1D+01
   Bfn.  Coefficient  Atom+Function         Bfn.  Coefficient  Atom+Function  
  ----- ------------  ---------------      ----- ------------  ---------------
    29     14.007831   2 C  s                54     -9.190641   3 C  s         
     4     -6.566707   1 C  s                62      3.960462   3 C  py        
    53     -3.161910   3 C  s                38     -3.082289   2 C  pz        
   229      2.019855  10 O  s               204      1.957120   9 O  s         
   212     -1.831579   9 O  py              179     -1.633556   8 F  s         
 
 Vector   66  Occ=0.000000D+00  E= 4.776334D-01
              MO Center=  1.0D+01,  1.1D+01,  9.1D+00, r^2= 1.3D+01
   Bfn.  Coefficient  Atom+Function         Bfn.  Coefficient  Atom+Function  
  ----- ------------  ---------------      ----- ------------  ---------------
    29      7.029843   2 C  s                54     -4.500062   3 C  s         
     3      2.805791   1 C  s                34      2.766513   2 C  py        
    53     -2.735843   3 C  s               212      2.170141   9 O  py        
     4     -1.959304   1 C  s                49     -1.947413   2 C  dyz       
    62     -1.902123   3 C  py               38     -1.833843   2 C  pz        
 
 Vector   67  Occ=0.000000D+00  E= 4.830172D-01
              MO Center=  1.0D+01,  9.7D+00,  9.6D+00, r^2= 1.3D+01
   Bfn.  Coefficient  Atom+Function         Bfn.  Coefficient  Atom+Function  
  ----- ------------  ---------------      ----- ------------  ---------------
    36      3.226796   2 C  px               61     -2.857975   3 C  px        
    46      2.117239   2 C  dxy             211      1.765976   9 O  px        
   138      1.673756   6 F  pz              236      1.556051  10 O  px        
    11     -1.449744   1 C  px               88     -1.339390   4 F  pz        
     8      1.262856   1 C  px              186     -1.202739   8 F  px        
 
 Vector   68  Occ=0.000000D+00  E= 4.947919D-01
              MO Center=  9.9D+00,  9.4D+00,  8.8D+00, r^2= 1.3D+01
   Bfn.  Coefficient  Atom+Function         Bfn.  Coefficient  Atom+Function  
  ----- ------------  ---------------      ----- ------------  ---------------
    36     -4.465106   2 C  px               11      4.273122   1 C  px        
    61      2.260095   3 C  px               29      2.097391   2 C  s         
     4     -1.826307   1 C  s               238     -1.828167  10 O  pz        
   136     -1.626606   6 F  px               86     -1.616471   4 F  px        
    87      1.388400   4 F  py               71      1.344936   3 C  dxy       
 
 Vector   69  Occ=0.000000D+00  E= 4.977038D-01
              MO Center=  9.9D+00,  1.1D+01,  9.3D+00, r^2= 1.3D+01
   Bfn.  Coefficient  Atom+Function         Bfn.  Coefficient  Atom+Function  
  ----- ------------  ---------------      ----- ------------  ---------------
     4      6.827531   1 C  s                29     -6.310216   2 C  s         
    63     -3.748659   3 C  pz               13      3.181145   1 C  pz        
   213      2.247019   9 O  pz               37      2.170380   2 C  py        
   238      1.846902  10 O  pz               36     -1.429057   2 C  px        
   138     -1.222718   6 F  pz               34     -1.137232   2 C  py        
 
 Vector   70  Occ=0.000000D+00  E= 5.055177D-01
              MO Center=  1.0D+01,  9.3D+00,  1.0D+01, r^2= 1.0D+01
   Bfn.  Coefficient  Atom+Function         Bfn.  Coefficient  Atom+Function  
  ----- ------------  ---------------      ----- ------------  ---------------
    29      8.698440   2 C  s                 4     -6.575301   1 C  s         
    37     -3.327695   2 C  py               13     -3.275565   1 C  pz        
    53     -3.023769   3 C  s               104     -2.552308   5 F  s         
   112     -2.316141   5 F  py               79      2.129052   4 F  s         
    10      2.025702   1 C  pz               34      1.951558   2 C  py        
 
 
                     UHF Final Beta Molecular Orbital Analysis
                     -----------------------------------------
 
 Vector   15  Occ=1.000000D+00  E=-1.475172D+00
              MO Center=  1.0D+01,  9.8D+00,  1.1D+01, r^2= 1.5D+00
   Bfn.  Coefficient  Atom+Function         Bfn.  Coefficient  Atom+Function  
  ----- ------------  ---------------      ----- ------------  ---------------
   153      0.416519   7 F  s               178     -0.417329   8 F  s         
   152      0.331235   7 F  s               177     -0.332091   8 F  s         
 
 Vector   16  Occ=1.000000D+00  E=-1.216474D+00
              MO Center=  1.0D+01,  1.2D+01,  9.4D+00, r^2= 1.2D+00
   Bfn.  Coefficient  Atom+Function         Bfn.  Coefficient  Atom+Function  
  ----- ------------  ---------------      ----- ------------  ---------------
   203      0.270151   9 O  s               228      0.269881  10 O  s         
    52      0.267632   3 C  s               202      0.261407   9 O  s         
   227      0.261046  10 O  s         
 
 Vector   17  Occ=1.000000D+00  E=-1.116447D+00
              MO Center=  1.0D+01,  1.2D+01,  9.4D+00, r^2= 1.4D+00
   Bfn.  Coefficient  Atom+Function         Bfn.  Coefficient  Atom+Function  
  ----- ------------  ---------------      ----- ------------  ---------------
   203      0.318991   9 O  s               228     -0.317101  10 O  s         
   202      0.301472   9 O  s               227     -0.301267  10 O  s         
    55      0.269499   3 C  px        
 
 Vector   18  Occ=1.000000D+00  E=-9.287964D-01
              MO Center=  1.0D+01,  9.1D+00,  9.9D+00, r^2= 2.3D+00
   Bfn.  Coefficient  Atom+Function         Bfn.  Coefficient  Atom+Function  
  ----- ------------  ---------------      ----- ------------  ---------------
     2      0.280174   1 C  s                27      0.254669   2 C  s         
    29     -0.220312   2 C  s                54      0.200962   3 C  s         
 
 Vector   19  Occ=1.000000D+00  E=-8.086606D-01
              MO Center=  1.0D+01,  9.0D+00,  9.9D+00, r^2= 3.2D+00
   Bfn.  Coefficient  Atom+Function         Bfn.  Coefficient  Atom+Function  
  ----- ------------  ---------------      ----- ------------  ---------------
    28      0.272032   2 C  s                27      0.218014   2 C  s         
     4      0.212127   1 C  s                 2     -0.210752   1 C  s         
   130     -0.189749   6 F  px              107      0.184209   5 F  pz        
    80      0.170827   4 F  px               29     -0.165375   2 C  s         
   106     -0.155017   5 F  py        
 
 Vector   20  Occ=1.000000D+00  E=-7.190236D-01
              MO Center=  1.0D+01,  8.9D+00,  9.7D+00, r^2= 2.9D+00
   Bfn.  Coefficient  Atom+Function         Bfn.  Coefficient  Atom+Function  
  ----- ------------  ---------------      ----- ------------  ---------------
     7      0.273352   1 C  pz              106      0.271610   5 F  py        
    34     -0.262094   2 C  py               80      0.256861   4 F  px        
   130     -0.242012   6 F  px               31     -0.193459   2 C  py        
    53      0.190595   3 C  s                83      0.174818   4 F  px        
   109      0.173348   5 F  py              133     -0.164606   6 F  px        
 
 Vector   21  Occ=1.000000D+00  E=-7.084859D-01
              MO Center=  1.0D+01,  8.5D+00,  9.3D+00, r^2= 2.2D+00
   Bfn.  Coefficient  Atom+Function         Bfn.  Coefficient  Atom+Function  
  ----- ------------  ---------------      ----- ------------  ---------------
     5      0.302884   1 C  px               82      0.299757   4 F  pz        
   105      0.271202   5 F  px              132     -0.272469   6 F  pz        
    85      0.191139   4 F  pz              130     -0.187639   6 F  px        
   108      0.185823   5 F  px              135     -0.175466   6 F  pz        
 
 Vector   22  Occ=1.000000D+00  E=-7.064113D-01
              MO Center=  1.0D+01,  8.7D+00,  1.0D+01, r^2= 2.9D+00
   Bfn.  Coefficient  Atom+Function         Bfn.  Coefficient  Atom+Function  
  ----- ------------  ---------------      ----- ------------  ---------------
    28      0.302150   2 C  s               107      0.266961   5 F  pz        
     6      0.255066   1 C  py              131      0.228385   6 F  py        
    81      0.223159   4 F  py              110      0.180123   5 F  pz        
   180      0.175854   8 F  px              155     -0.164550   7 F  px        
   134      0.156767   6 F  py               84      0.153710   4 F  py        
 
 Vector   23  Occ=1.000000D+00  E=-6.584713D-01
              MO Center=  1.0D+01,  9.8D+00,  1.0D+01, r^2= 3.0D+00
   Bfn.  Coefficient  Atom+Function         Bfn.  Coefficient  Atom+Function  
  ----- ------------  ---------------      ----- ------------  ---------------
   155      0.278630   7 F  px              180     -0.269527   8 F  px        
    32      0.218183   2 C  pz              158      0.193317   7 F  px        
   183     -0.186481   8 F  px               31     -0.162538   2 C  py        
 
 Vector   24  Occ=1.000000D+00  E=-6.276941D-01
              MO Center=  1.0D+01,  9.6D+00,  1.1D+01, r^2= 2.5D+00
   Bfn.  Coefficient  Atom+Function         Bfn.  Coefficient  Atom+Function  
  ----- ------------  ---------------      ----- ------------  ---------------
   157      0.324497   7 F  pz              182     -0.309520   8 F  pz        
    30      0.283808   2 C  px              160      0.215978   7 F  pz        
   185     -0.205196   8 F  pz              180     -0.192745   8 F  px        
   155     -0.170560   7 F  px              105     -0.159351   5 F  px        
 
 Vector   25  Occ=1.000000D+00  E=-5.900993D-01
              MO Center=  1.0D+01,  8.2D+00,  9.6D+00, r^2= 2.4D+00
   Bfn.  Coefficient  Atom+Function         Bfn.  Coefficient  Atom+Function  
  ----- ------------  ---------------      ----- ------------  ---------------
   106      0.386500   5 F  py              132     -0.300980   6 F  pz        
    82     -0.284042   4 F  pz              109      0.268054   5 F  py        
    29      0.239728   2 C  s               107      0.230584   5 F  pz        
   135     -0.209067   6 F  pz               85     -0.197490   4 F  pz        
    54     -0.170889   3 C  s               110      0.169977   5 F  pz        
 
 Vector   26  Occ=1.000000D+00  E=-5.887318D-01
              MO Center=  1.0D+01,  8.4D+00,  9.4D+00, r^2= 2.5D+00
   Bfn.  Coefficient  Atom+Function         Bfn.  Coefficient  Atom+Function  
  ----- ------------  ---------------      ----- ------------  ---------------
   105     -0.335831   5 F  px               81      0.331282   4 F  py        
   131     -0.319557   6 F  py               84      0.237171   4 F  py        
   108     -0.235675   5 F  px              134     -0.227408   6 F  py        
 
 Vector   27  Occ=1.000000D+00  E=-5.772460D-01
              MO Center=  1.0D+01,  9.3D+00,  1.0D+01, r^2= 3.4D+00
   Bfn.  Coefficient  Atom+Function         Bfn.  Coefficient  Atom+Function  
  ----- ------------  ---------------      ----- ------------  ---------------
     3      0.493008   1 C  s                34      0.473366   2 C  py        
     9      0.329537   1 C  py               53     -0.257924   3 C  s         
    10      0.249719   1 C  pz              157     -0.233267   7 F  pz        
   156     -0.228115   7 F  py              182     -0.228817   8 F  pz        
   131     -0.225853   6 F  py               28     -0.219937   2 C  s         
 
 Vector   28  Occ=1.000000D+00  E=-5.510238D-01
              MO Center=  1.0D+01,  8.8D+00,  9.7D+00, r^2= 3.2D+00
   Bfn.  Coefficient  Atom+Function         Bfn.  Coefficient  Atom+Function  
  ----- ------------  ---------------      ----- ------------  ---------------
   130      0.287761   6 F  px               80      0.269626   4 F  px        
   105      0.261421   5 F  px              181     -0.242669   8 F  py        
   131     -0.239848   6 F  py              156      0.221801   7 F  py        
    81      0.215015   4 F  py              133      0.186929   6 F  px        
   108      0.182155   5 F  px              184     -0.182592   8 F  py        
 
 Vector   29  Occ=1.000000D+00  E=-5.481072D-01
              MO Center=  1.0D+01,  8.3D+00,  9.5D+00, r^2= 2.5D+00
   Bfn.  Coefficient  Atom+Function         Bfn.  Coefficient  Atom+Function  
  ----- ------------  ---------------      ----- ------------  ---------------
   107      0.446500   5 F  pz               81     -0.310826   4 F  py        
   110      0.306610   5 F  pz              131     -0.251821   6 F  py        
    84     -0.222901   4 F  py              132      0.199444   6 F  pz        
    82      0.196313   4 F  pz              134     -0.181204   6 F  py        
    59      0.170409   3 C  py               34      0.167430   2 C  py        
 
 Vector   30  Occ=1.000000D+00  E=-5.393700D-01
              MO Center=  1.0D+01,  1.0D+01,  1.0D+01, r^2= 3.9D+00
   Bfn.  Coefficient  Atom+Function         Bfn.  Coefficient  Atom+Function  
  ----- ------------  ---------------      ----- ------------  ---------------
   156      0.245632   7 F  py              182     -0.235233   8 F  pz        
   157     -0.227352   7 F  pz               52     -0.220392   3 C  s         
   203      0.199224   9 O  s               228      0.199649  10 O  s         
   181      0.192434   8 F  py              230     -0.188350  10 O  px        
   205      0.180841   9 O  px              159      0.175213   7 F  py        
 
 Vector   31  Occ=1.000000D+00  E=-5.338369D-01
              MO Center=  1.0D+01,  8.7D+00,  9.4D+00, r^2= 2.9D+00
   Bfn.  Coefficient  Atom+Function         Bfn.  Coefficient  Atom+Function  
  ----- ------------  ---------------      ----- ------------  ---------------
   132     -0.313002   6 F  pz               80      0.303569   4 F  px        
    82      0.264513   4 F  pz              130      0.259016   6 F  px        
   135     -0.223763   6 F  pz               83      0.210171   4 F  px        
   156     -0.205080   7 F  py              105     -0.202416   5 F  px        
   181      0.194456   8 F  py               85      0.190143   4 F  pz        
 
 Vector   32  Occ=1.000000D+00  E=-5.320611D-01
              MO Center=  1.0D+01,  9.0D+00,  1.0D+01, r^2= 3.3D+00
   Bfn.  Coefficient  Atom+Function         Bfn.  Coefficient  Atom+Function  
  ----- ------------  ---------------      ----- ------------  ---------------
   181      0.366416   8 F  py              105      0.343020   5 F  px        
   156     -0.335489   7 F  py              184      0.268398   8 F  py        
   159     -0.247846   7 F  py              108      0.243920   5 F  px        
   131     -0.213649   6 F  py               81      0.187222   4 F  py        
    46     -0.182384   2 C  dxy       
 
 Vector   33  Occ=1.000000D+00  E=-5.004026D-01
              MO Center=  1.0D+01,  9.8D+00,  1.1D+01, r^2= 1.9D+00
   Bfn.  Coefficient  Atom+Function         Bfn.  Coefficient  Atom+Function  
  ----- ------------  ---------------      ----- ------------  ---------------
   155      0.406824   7 F  px              180      0.392111   8 F  px        
   158      0.280668   7 F  px              183      0.269747   8 F  px        
   182     -0.267631   8 F  pz              157      0.253415   7 F  pz        
   185     -0.196337   8 F  pz              160      0.186981   7 F  pz        
 
 Vector   34  Occ=1.000000D+00  E=-4.746321D-01
              MO Center=  1.0D+01,  1.1D+01,  9.9D+00, r^2= 3.7D+00
   Bfn.  Coefficient  Atom+Function         Bfn.  Coefficient  Atom+Function  
  ----- ------------  ---------------      ----- ------------  ---------------
    53      0.287741   3 C  s               205     -0.251283   9 O  px        
   182     -0.249356   8 F  pz              157     -0.242754   7 F  pz        
    56      0.235071   3 C  py              230      0.230256  10 O  px        
    29     -0.200199   2 C  s                 3     -0.197094   1 C  s         
    32      0.184308   2 C  pz               34     -0.184418   2 C  py        
 
 Vector   35  Occ=1.000000D+00  E=-4.356939D-01
              MO Center=  1.0D+01,  1.2D+01,  9.3D+00, r^2= 2.2D+00
   Bfn.  Coefficient  Atom+Function         Bfn.  Coefficient  Atom+Function  
  ----- ------------  ---------------      ----- ------------  ---------------
    55      0.382536   3 C  px              230     -0.307870  10 O  px        
   205     -0.252649   9 O  px              228      0.240227  10 O  s         
   203     -0.222539   9 O  s               206     -0.221162   9 O  py        
   231      0.162215  10 O  py              233     -0.158765  10 O  px        
 
 Vector   36  Occ=1.000000D+00  E=-4.287275D-01
              MO Center=  1.0D+01,  9.9D+00,  1.0D+01, r^2= 3.4D+00
   Bfn.  Coefficient  Atom+Function         Bfn.  Coefficient  Atom+Function  
  ----- ------------  ---------------      ----- ------------  ---------------
   156     -0.250805   7 F  py              181     -0.247614   8 F  py        
    34      0.236916   2 C  py               31      0.230888   2 C  py        
     6     -0.211265   1 C  py              159     -0.188826   7 F  py        
   184     -0.186014   8 F  py               57      0.165459   3 C  pz        
   205      0.157234   9 O  px                7     -0.156262   1 C  pz        
 
 Vector   37  Occ=1.000000D+00  E=-3.887885D-01
              MO Center=  1.0D+01,  1.1D+01,  9.5D+00, r^2= 2.1D+00
   Bfn.  Coefficient  Atom+Function         Bfn.  Coefficient  Atom+Function  
  ----- ------------  ---------------      ----- ------------  ---------------
    57      0.272354   3 C  pz              207      0.268136   9 O  pz        
   232      0.266581  10 O  pz               29      0.199115   2 C  s         
   210      0.193751   9 O  pz              235      0.192978  10 O  pz        
   231      0.184570  10 O  py              206      0.183026   9 O  py        
    56      0.180321   3 C  py        
 
 Vector   38  Occ=1.000000D+00  E=-2.523205D-01
              MO Center=  1.0D+01,  1.2D+01,  9.4D+00, r^2= 2.0D+00
   Bfn.  Coefficient  Atom+Function         Bfn.  Coefficient  Atom+Function  
  ----- ------------  ---------------      ----- ------------  ---------------
   205      0.304489   9 O  px              206     -0.300142   9 O  py        
   231      0.300023  10 O  py              230      0.272760  10 O  px        
   209     -0.252416   9 O  py              234      0.253191  10 O  py        
   208      0.218907   9 O  px              207      0.194793   9 O  pz        
   233      0.189660  10 O  px              210      0.159803   9 O  pz        
 
 Vector   39  Occ=1.000000D+00  E=-2.504206D-01
              MO Center=  9.9D+00,  1.1D+01,  9.5D+00, r^2= 2.5D+00
   Bfn.  Coefficient  Atom+Function         Bfn.  Coefficient  Atom+Function  
  ----- ------------  ---------------      ----- ------------  ---------------
   231      0.343179  10 O  py              206      0.305445   9 O  py        
    31      0.266081   2 C  py              234      0.246338  10 O  py        
   232     -0.215899  10 O  pz               34      0.206451   2 C  py        
   209      0.206999   9 O  py              207     -0.193833   9 O  pz        
 
 Vector   40  Occ=1.000000D+00  E=-2.283608D-01
              MO Center=  1.0D+01,  1.2D+01,  9.3D+00, r^2= 2.0D+00
   Bfn.  Coefficient  Atom+Function         Bfn.  Coefficient  Atom+Function  
  ----- ------------  ---------------      ----- ------------  ---------------
   207      0.369707   9 O  pz              232     -0.368134  10 O  pz        
   210      0.282678   9 O  pz              235     -0.281880  10 O  pz        
   206      0.215932   9 O  py              231     -0.216753  10 O  py        
   209      0.167350   9 O  py              234     -0.167742  10 O  py        
 
 Vector   41  Occ=0.000000D+00  E= 1.688347D-01
              MO Center=  1.0D+01,  6.4D+00,  8.6D+00, r^2= 1.0D+01
   Bfn.  Coefficient  Atom+Function         Bfn.  Coefficient  Atom+Function  
  ----- ------------  ---------------      ----- ------------  ---------------
     4     11.464017   1 C  s                54     -8.230346   3 C  s         
    29     -5.739202   2 C  s                12      4.272496   1 C  py        
    37      3.729486   2 C  py               13      2.528294   1 C  pz        
   204      1.615783   9 O  s               229      1.572355  10 O  s         
    62      1.546673   3 C  py               53     -0.989438   3 C  s         
 
 Vector   42  Occ=0.000000D+00  E= 1.859950D-01
              MO Center=  1.0D+01,  9.2D+00,  1.3D+01, r^2= 1.0D+01
   Bfn.  Coefficient  Atom+Function         Bfn.  Coefficient  Atom+Function  
  ----- ------------  ---------------      ----- ------------  ---------------
    29     20.596210   2 C  s                 4    -11.705524   1 C  s         
    54     -8.341371   3 C  s                38     -6.473888   2 C  pz        
    12     -2.378684   1 C  py              179     -1.222782   8 F  s         
   154     -1.168456   7 F  s               104      1.138966   5 F  s         
    37      1.047286   2 C  py               13     -0.859966   1 C  pz        
 
 Vector   43  Occ=0.000000D+00  E= 2.022815D-01
              MO Center=  1.0D+01,  1.1D+01,  9.2D+00, r^2= 2.1D+01
   Bfn.  Coefficient  Atom+Function         Bfn.  Coefficient  Atom+Function  
  ----- ------------  ---------------      ----- ------------  ---------------
    54      8.036279   3 C  s                 4     -6.081714   1 C  s         
    62     -3.484149   3 C  py               37     -2.839107   2 C  py        
    29     -2.210019   2 C  s                13      1.955409   1 C  pz        
    63      1.909286   3 C  pz               38     -1.869077   2 C  pz        
    12     -1.272396   1 C  py               53     -1.062449   3 C  s         
 
 Vector   44  Occ=0.000000D+00  E= 2.056008D-01
              MO Center=  1.0D+01,  7.9D+00,  9.4D+00, r^2= 1.5D+01
   Bfn.  Coefficient  Atom+Function         Bfn.  Coefficient  Atom+Function  
  ----- ------------  ---------------      ----- ------------  ---------------
    11      3.391420   1 C  px               54      1.061433   3 C  s         
     4     -1.029746   1 C  s               129      0.898363   6 F  s         
    86     -0.646227   4 F  px              111     -0.621725   5 F  px        
    79     -0.598299   4 F  s               136     -0.574721   6 F  px        
   229      0.577560  10 O  s               204     -0.570010   9 O  s         
 
 Vector   45  Occ=0.000000D+00  E= 2.241627D-01
              MO Center=  1.0D+01,  1.0D+01,  9.2D+00, r^2= 2.3D+01
   Bfn.  Coefficient  Atom+Function         Bfn.  Coefficient  Atom+Function  
  ----- ------------  ---------------      ----- ------------  ---------------
    54     10.968651   3 C  s                29     -8.097435   2 C  s         
     4     -5.505047   1 C  s                37     -4.985986   2 C  py        
    13     -3.973783   1 C  pz               62     -3.579334   3 C  py        
    38      3.550806   2 C  pz               63      2.247967   3 C  pz        
   104      2.089087   5 F  s                12      1.045196   1 C  py        
 
 Vector   46  Occ=0.000000D+00  E= 2.366204D-01
              MO Center=  1.0D+01,  1.0D+01,  1.1D+01, r^2= 1.8D+01
   Bfn.  Coefficient  Atom+Function         Bfn.  Coefficient  Atom+Function  
  ----- ------------  ---------------      ----- ------------  ---------------
    36      5.316857   2 C  px               11     -3.434111   1 C  px        
   204     -1.799940   9 O  s               179     -1.116255   8 F  s         
   229      1.093692  10 O  s               154      1.021286   7 F  s         
   186     -0.522243   8 F  px              161     -0.511016   7 F  px        
   238      0.479300  10 O  pz               54      0.461936   3 C  s         
 
 Vector   47  Occ=0.000000D+00  E= 2.427602D-01
              MO Center=  1.0D+01,  1.1D+01,  9.7D+00, r^2= 1.8D+01
   Bfn.  Coefficient  Atom+Function         Bfn.  Coefficient  Atom+Function  
  ----- ------------  ---------------      ----- ------------  ---------------
    54      4.482099   3 C  s                 4     -3.989514   1 C  s         
    37     -3.707420   2 C  py               29      3.446862   2 C  s         
   229     -1.876036  10 O  s               204     -1.804943   9 O  s         
    63     -1.418632   3 C  pz               12      1.304774   1 C  py        
   154     -1.055869   7 F  s                36     -1.020948   2 C  px        
 
 Vector   48  Occ=0.000000D+00  E= 2.464239D-01
              MO Center=  9.9D+00,  1.1D+01,  9.6D+00, r^2= 2.0D+01
   Bfn.  Coefficient  Atom+Function         Bfn.  Coefficient  Atom+Function  
  ----- ------------  ---------------      ----- ------------  ---------------
    61     -5.618266   3 C  px               36      5.202229   2 C  px        
   229     -2.623473  10 O  s               204      2.283678   9 O  s         
   179     -0.955013   8 F  s                11     -0.898469   1 C  px        
   154      0.804042   7 F  s                 4     -0.683441   1 C  s         
    29      0.500364   2 C  s                46     -0.463241   2 C  dxy       
 
 Vector   49  Occ=0.000000D+00  E= 2.631940D-01
              MO Center=  1.0D+01,  1.0D+01,  9.5D+00, r^2= 1.8D+01
   Bfn.  Coefficient  Atom+Function         Bfn.  Coefficient  Atom+Function  
  ----- ------------  ---------------      ----- ------------  ---------------
    54      4.802884   3 C  s                38     -4.152683   2 C  pz        
    63      4.129533   3 C  pz               79     -2.565647   4 F  s         
   129     -2.482715   6 F  s                37     -2.348164   2 C  py        
   204     -2.296767   9 O  s               229     -2.268435  10 O  s         
    12      2.050633   1 C  py              179     -1.655613   8 F  s         
 
 Vector   50  Occ=0.000000D+00  E= 2.730612D-01
              MO Center=  1.0D+01,  1.1D+01,  1.0D+01, r^2= 1.9D+01
   Bfn.  Coefficient  Atom+Function         Bfn.  Coefficient  Atom+Function  
  ----- ------------  ---------------      ----- ------------  ---------------
    37     11.603619   2 C  py                4     10.288009   1 C  s         
    54     -8.624296   3 C  s                13      3.908238   1 C  pz        
    63     -3.727193   3 C  pz               62     -3.239226   3 C  py        
    12     -1.048818   1 C  py              104     -0.922405   5 F  s         
   237      0.886692  10 O  py              212      0.861612   9 O  py        
 
 Vector   51  Occ=0.000000D+00  E= 3.203030D-01
              MO Center=  1.0D+01,  9.2D+00,  1.0D+01, r^2= 1.6D+01
   Bfn.  Coefficient  Atom+Function         Bfn.  Coefficient  Atom+Function  
  ----- ------------  ---------------      ----- ------------  ---------------
    29     32.879487   2 C  s                 4    -27.325499   1 C  s         
    38     -5.215268   2 C  pz               12     -5.149726   1 C  py        
   154     -4.202305   7 F  s               179     -4.182555   8 F  s         
    37     -3.976595   2 C  py              104      3.662181   5 F  s         
    13     -2.834090   1 C  pz               54     -2.799930   3 C  s         
 
 Vector   52  Occ=0.000000D+00  E= 3.319992D-01
              MO Center=  1.0D+01,  1.1D+01,  9.6D+00, r^2= 1.8D+01
   Bfn.  Coefficient  Atom+Function         Bfn.  Coefficient  Atom+Function  
  ----- ------------  ---------------      ----- ------------  ---------------
    54     33.579103   3 C  s                 4    -17.620081   1 C  s         
    29    -14.147393   2 C  s                37     -8.450311   2 C  py        
   204     -6.658037   9 O  s               229     -6.570952  10 O  s         
    62     -6.256039   3 C  py               63      3.968212   3 C  pz        
    53      3.757496   3 C  s                28     -3.637599   2 C  s         
 
 Vector   53  Occ=0.000000D+00  E= 3.412712D-01
              MO Center=  1.0D+01,  1.0D+01,  9.9D+00, r^2= 6.1D+00
   Bfn.  Coefficient  Atom+Function         Bfn.  Coefficient  Atom+Function  
  ----- ------------  ---------------      ----- ------------  ---------------
     4      3.218088   1 C  s                54     -2.657052   3 C  s         
    37      2.609876   2 C  py               63     -1.690469   3 C  pz        
    13      1.193812   1 C  pz              154     -0.945066   7 F  s         
   112      0.755820   5 F  py               53      0.744136   3 C  s         
   179     -0.742366   8 F  s                12     -0.733967   1 C  py        
 
 Vector   54  Occ=0.000000D+00  E= 3.606206D-01
              MO Center=  1.0D+01,  9.0D+00,  8.9D+00, r^2= 1.3D+01
   Bfn.  Coefficient  Atom+Function         Bfn.  Coefficient  Atom+Function  
  ----- ------------  ---------------      ----- ------------  ---------------
    11      2.300637   1 C  px               36     -2.143858   2 C  px        
    29     -2.090042   2 C  s               129     -2.048428   6 F  s         
    79      1.874114   4 F  s               136     -1.868047   6 F  px        
     4      1.703327   1 C  s                86     -1.642488   4 F  px        
     8     -1.520391   1 C  px               88      1.235866   4 F  pz        
 
 Vector   55  Occ=0.000000D+00  E= 3.824832D-01
              MO Center=  1.0D+01,  9.7D+00,  9.6D+00, r^2= 1.4D+01
   Bfn.  Coefficient  Atom+Function         Bfn.  Coefficient  Atom+Function  
  ----- ------------  ---------------      ----- ------------  ---------------
    29     14.721535   2 C  s                54     -6.875959   3 C  s         
     4     -5.344517   1 C  s                28      5.074213   2 C  s         
    53     -4.048965   3 C  s                38     -3.852030   2 C  pz        
   154     -2.388485   7 F  s                 3     -2.374257   1 C  s         
   179     -2.308267   8 F  s                59      1.885467   3 C  py        
 
 Vector   56  Occ=0.000000D+00  E= 3.905700D-01
              MO Center=  9.8D+00,  1.0D+01,  9.6D+00, r^2= 1.5D+01
   Bfn.  Coefficient  Atom+Function         Bfn.  Coefficient  Atom+Function  
  ----- ------------  ---------------      ----- ------------  ---------------
    54     14.481460   3 C  s                29     -7.380802   2 C  s         
     4     -5.509249   1 C  s                37     -3.133692   2 C  py        
    62     -2.367460   3 C  py               28      2.310340   2 C  s         
   104      2.187137   5 F  s               204     -2.170826   9 O  s         
     3     -2.155774   1 C  s                12     -2.089797   1 C  py        
 
 Vector   57  Occ=0.000000D+00  E= 3.962747D-01
              MO Center=  1.0D+01,  1.1D+01,  1.0D+01, r^2= 1.3D+01
   Bfn.  Coefficient  Atom+Function         Bfn.  Coefficient  Atom+Function  
  ----- ------------  ---------------      ----- ------------  ---------------
    54      5.431200   3 C  s                 4     -3.943760   1 C  s         
    36     -3.288750   2 C  px               61      3.160705   3 C  px        
   229     -2.636672  10 O  s               211     -2.146546   9 O  px        
    37     -1.645018   2 C  py              236     -1.609929  10 O  px        
   204      1.414769   9 O  s                58     -1.339490   3 C  px        
 
 Vector   58  Occ=0.000000D+00  E= 4.081130D-01
              MO Center=  9.8D+00,  1.0D+01,  9.8D+00, r^2= 1.2D+01
   Bfn.  Coefficient  Atom+Function         Bfn.  Coefficient  Atom+Function  
  ----- ------------  ---------------      ----- ------------  ---------------
    29      6.152368   2 C  s                 4     -4.038340   1 C  s         
     3      2.103775   1 C  s                54     -2.013389   3 C  s         
    36     -1.207130   2 C  px               72      1.207130   3 C  dxz       
    28     -1.191688   2 C  s               129     -1.009512   6 F  s         
   213     -0.886260   9 O  pz               38     -0.841040   2 C  pz        
 
 Vector   59  Occ=0.000000D+00  E= 4.149813D-01
              MO Center=  1.0D+01,  9.0D+00,  1.0D+01, r^2= 1.3D+01
   Bfn.  Coefficient  Atom+Function         Bfn.  Coefficient  Atom+Function  
  ----- ------------  ---------------      ----- ------------  ---------------
    29     26.868939   2 C  s                 4    -14.930595   1 C  s         
    54    -10.050817   3 C  s                 3      6.021214   1 C  s         
    38     -4.827681   2 C  pz               28     -4.138112   2 C  s         
    12     -2.703085   1 C  py              179     -2.086087   8 F  s         
    23      2.006092   1 C  dyy              34      1.778996   2 C  py        
 
 Vector   60  Occ=0.000000D+00  E= 4.337889D-01
              MO Center=  1.0D+01,  1.0D+01,  9.8D+00, r^2= 1.1D+01
   Bfn.  Coefficient  Atom+Function         Bfn.  Coefficient  Atom+Function  
  ----- ------------  ---------------      ----- ------------  ---------------
    29      8.325133   2 C  s                 4     -4.320937   1 C  s         
    54     -2.785512   3 C  s                28     -2.636399   2 C  s         
    61     -2.024124   3 C  px              236      1.959942  10 O  px        
   211      1.915181   9 O  px               38     -1.700394   2 C  pz        
    72     -1.270803   3 C  dxz             229      1.203066  10 O  s         
 
 Vector   61  Occ=0.000000D+00  E= 4.364212D-01
              MO Center=  9.7D+00,  9.4D+00,  1.1D+01, r^2= 1.2D+01
   Bfn.  Coefficient  Atom+Function         Bfn.  Coefficient  Atom+Function  
  ----- ------------  ---------------      ----- ------------  ---------------
    29     10.675454   2 C  s                 4     -5.140965   1 C  s         
    28     -4.307923   2 C  s                54     -3.849029   3 C  s         
    38     -2.620010   2 C  pz                3     -1.438396   1 C  s         
    50     -1.427374   2 C  dzz              59     -1.231830   3 C  py        
   129      1.207375   6 F  s                 9      1.101648   1 C  py        
 
 Vector   62  Occ=0.000000D+00  E= 4.610419D-01
              MO Center=  1.0D+01,  9.1D+00,  9.9D+00, r^2= 1.5D+01
   Bfn.  Coefficient  Atom+Function         Bfn.  Coefficient  Atom+Function  
  ----- ------------  ---------------      ----- ------------  ---------------
    61     -2.883193   3 C  px               11      2.763688   1 C  px        
   111     -2.336321   5 F  px              212      1.643542   9 O  py        
   237     -1.620011  10 O  py               36      1.366301   2 C  px        
    71     -1.242515   3 C  dxy             136     -1.190194   6 F  px        
    21     -1.150189   1 C  dxy             129     -0.976629   6 F  s         
 
 Vector   63  Occ=0.000000D+00  E= 4.671275D-01
              MO Center=  1.0D+01,  8.3D+00,  1.0D+01, r^2= 1.2D+01
   Bfn.  Coefficient  Atom+Function         Bfn.  Coefficient  Atom+Function  
  ----- ------------  ---------------      ----- ------------  ---------------
    37      4.728904   2 C  py                4      4.070050   1 C  s         
    53      3.798715   3 C  s                54     -3.640494   3 C  s         
    34     -2.215165   2 C  py               13      1.975415   1 C  pz        
    12     -1.686820   1 C  py               28     -1.675384   2 C  s         
   113      1.659353   5 F  pz               35      1.607949   2 C  pz        
 
 Vector   64  Occ=0.000000D+00  E= 4.698163D-01
              MO Center=  9.8D+00,  1.0D+01,  9.9D+00, r^2= 1.5D+01
   Bfn.  Coefficient  Atom+Function         Bfn.  Coefficient  Atom+Function  
  ----- ------------  ---------------      ----- ------------  ---------------
    29      3.564954   2 C  s                54     -2.953505   3 C  s         
   236     -2.186038  10 O  px              211     -2.148013   9 O  px        
   129      2.118874   6 F  s               229     -1.849444  10 O  s         
    37      1.796528   2 C  py              136      1.774320   6 F  px        
    11     -1.763336   1 C  px               79     -1.753712   4 F  s         
 
 Vector   65  Occ=0.000000D+00  E= 4.743003D-01
              MO Center=  1.0D+01,  9.7D+00,  9.2D+00, r^2= 1.1D+01
   Bfn.  Coefficient  Atom+Function         Bfn.  Coefficient  Atom+Function  
  ----- ------------  ---------------      ----- ------------  ---------------
    29     14.007831   2 C  s                54     -9.190641   3 C  s         
     4     -6.566707   1 C  s                62      3.960462   3 C  py        
    53     -3.161910   3 C  s                38     -3.082289   2 C  pz        
   229      2.019855  10 O  s               204      1.957120   9 O  s         
   212     -1.831579   9 O  py              179     -1.633556   8 F  s         
 
 Vector   66  Occ=0.000000D+00  E= 4.776334D-01
              MO Center=  1.0D+01,  1.1D+01,  9.1D+00, r^2= 1.3D+01
   Bfn.  Coefficient  Atom+Function         Bfn.  Coefficient  Atom+Function  
  ----- ------------  ---------------      ----- ------------  ---------------
    29      7.029843   2 C  s                54     -4.500062   3 C  s         
     3      2.805791   1 C  s                34      2.766513   2 C  py        
    53     -2.735843   3 C  s               212      2.170141   9 O  py        
     4     -1.959304   1 C  s                49     -1.947413   2 C  dyz       
    62     -1.902123   3 C  py               38     -1.833843   2 C  pz        
 
 Vector   67  Occ=0.000000D+00  E= 4.830172D-01
              MO Center=  1.0D+01,  9.7D+00,  9.6D+00, r^2= 1.3D+01
   Bfn.  Coefficient  Atom+Function         Bfn.  Coefficient  Atom+Function  
  ----- ------------  ---------------      ----- ------------  ---------------
    36      3.226796   2 C  px               61     -2.857975   3 C  px        
    46      2.117239   2 C  dxy             211      1.765976   9 O  px        
   138      1.673756   6 F  pz              236      1.556051  10 O  px        
    11     -1.449744   1 C  px               88     -1.339390   4 F  pz        
     8      1.262856   1 C  px              186     -1.202739   8 F  px        
 
 Vector   68  Occ=0.000000D+00  E= 4.947919D-01
              MO Center=  9.9D+00,  9.4D+00,  8.8D+00, r^2= 1.3D+01
   Bfn.  Coefficient  Atom+Function         Bfn.  Coefficient  Atom+Function  
  ----- ------------  ---------------      ----- ------------  ---------------
    36     -4.465106   2 C  px               11      4.273122   1 C  px        
    61      2.260095   3 C  px               29      2.097391   2 C  s         
     4     -1.826307   1 C  s               238     -1.828167  10 O  pz        
   136     -1.626606   6 F  px               86     -1.616471   4 F  px        
    87      1.388400   4 F  py               71      1.344936   3 C  dxy       
 
 Vector   69  Occ=0.000000D+00  E= 4.977038D-01
              MO Center=  9.9D+00,  1.1D+01,  9.3D+00, r^2= 1.3D+01
   Bfn.  Coefficient  Atom+Function         Bfn.  Coefficient  Atom+Function  
  ----- ------------  ---------------      ----- ------------  ---------------
     4      6.827531   1 C  s                29     -6.310216   2 C  s         
    63     -3.748659   3 C  pz               13      3.181145   1 C  pz        
   213      2.247019   9 O  pz               37      2.170380   2 C  py        
   238      1.846902  10 O  pz               36     -1.429057   2 C  px        
   138     -1.222718   6 F  pz               34     -1.137232   2 C  py        
 
 Vector   70  Occ=0.000000D+00  E= 5.055177D-01
              MO Center=  1.0D+01,  9.3D+00,  1.0D+01, r^2= 1.0D+01
   Bfn.  Coefficient  Atom+Function         Bfn.  Coefficient  Atom+Function  
  ----- ------------  ---------------      ----- ------------  ---------------
    29      8.698440   2 C  s                 4     -6.575301   1 C  s         
    37     -3.327695   2 C  py               13     -3.275565   1 C  pz        
    53     -3.023769   3 C  s               104     -2.552308   5 F  s         
   112     -2.316141   5 F  py               79      2.129052   4 F  s         
    10      2.025702   1 C  pz               34      1.951558   2 C  py        
 

 center of mass
 --------------
 x =  19.00842194 y =  18.21894103 z =  18.64842460

 moments of inertia (a.u.)
 ------------------
        1579.646884091076           8.761949966562         -10.014586570135
           8.761949966562         967.640876464551          -1.043868300161
         -10.014586570135          -1.043868300161        1558.206298635280
 
  Mulliken analysis of the total density
  --------------------------------------

    Atom       Charge   Shell Charges
 -----------   ------   -------------------------------------------------------
    1 C    6     4.21   2.01  0.68 -0.13 -0.06  1.71 -0.33  0.00  0.29  0.03
    2 C    6     5.00   2.01  0.68  0.19 -0.33  1.79  0.47  0.03  0.22 -0.04
    3 C    6     4.95   2.01  0.67  0.10 -0.05  1.84  0.15 -0.00  0.29 -0.07
    4 F    9     9.60   2.01  0.87  1.13  0.12  3.31  2.10  0.10 -0.01 -0.02
    5 F    9     9.62   2.01  0.86  1.13  0.12  3.31  2.11  0.11 -0.01 -0.02
    6 F    9     9.60   2.01  0.87  1.13  0.12  3.31  2.10  0.10 -0.01 -0.02
    7 F    9     9.72   2.01  0.86  1.13  0.16  3.31  2.15  0.13 -0.01 -0.02
    8 F    9     9.72   2.01  0.87  1.13  0.16  3.31  2.15  0.13 -0.01 -0.02
    9 O    8     8.78   2.01  0.81  0.99  0.18  2.79  1.84  0.18  0.01 -0.02
   10 O    8     8.79   2.01  0.81  0.98  0.18  2.79  1.85  0.18  0.01 -0.02
 
  Mulliken analysis of the alpha density
  --------------------------------------

    Atom       Charge   Shell Charges
 -----------   ------   -------------------------------------------------------
    1 C    6     2.11   1.00  0.34 -0.06 -0.03  0.85 -0.16  0.00  0.14  0.02
    2 C    6     2.50   1.00  0.34  0.09 -0.16  0.89  0.23  0.01  0.11 -0.02
    3 C    6     2.48   1.00  0.34  0.05 -0.03  0.92  0.08 -0.00  0.15 -0.03
    4 F    9     4.80   1.00  0.43  0.56  0.06  1.66  1.05  0.05 -0.01 -0.01
    5 F    9     4.81   1.00  0.43  0.56  0.06  1.66  1.06  0.05 -0.01 -0.01
    6 F    9     4.80   1.00  0.43  0.56  0.06  1.66  1.05  0.05 -0.01 -0.01
    7 F    9     4.86   1.00  0.43  0.57  0.08  1.65  1.08  0.06 -0.01 -0.01
    8 F    9     4.86   1.00  0.43  0.57  0.08  1.65  1.08  0.06 -0.01 -0.01
    9 O    8     4.39   1.00  0.41  0.49  0.09  1.39  0.92  0.09  0.01 -0.01
   10 O    8     4.39   1.00  0.41  0.49  0.09  1.39  0.92  0.09  0.01 -0.01
 
   Mulliken analysis of the beta density
   -------------------------------------

    Atom       Charge   Shell Charges
 -----------   ------   -------------------------------------------------------
    1 C    6     2.11   1.00  0.34 -0.06 -0.03  0.85 -0.16  0.00  0.14  0.02
    2 C    6     2.50   1.00  0.34  0.09 -0.16  0.89  0.23  0.01  0.11 -0.02
    3 C    6     2.48   1.00  0.34  0.05 -0.03  0.92  0.08 -0.00  0.15 -0.03
    4 F    9     4.80   1.00  0.43  0.56  0.06  1.66  1.05  0.05 -0.01 -0.01
    5 F    9     4.81   1.00  0.43  0.56  0.06  1.66  1.06  0.05 -0.01 -0.01
    6 F    9     4.80   1.00  0.43  0.56  0.06  1.66  1.05  0.05 -0.01 -0.01
    7 F    9     4.86   1.00  0.43  0.57  0.08  1.65  1.08  0.06 -0.01 -0.01
    8 F    9     4.86   1.00  0.43  0.57  0.08  1.65  1.08  0.06 -0.01 -0.01
    9 O    8     4.39   1.00  0.41  0.49  0.09  1.39  0.92  0.09  0.01 -0.01
   10 O    8     4.39   1.00  0.41  0.49  0.09  1.39  0.92  0.09  0.01 -0.01
 
   Mulliken analysis of the spin density
   -------------------------------------

    Atom       Charge   Shell Charges
 -----------   ------   -------------------------------------------------------
    1 C    6     0.00  -0.00  0.00  0.00 -0.00  0.00  0.00 -0.00  0.00  0.00
    2 C    6    -0.00  -0.00  0.00 -0.00  0.00  0.00 -0.00 -0.00  0.00 -0.00
    3 C    6     0.00   0.00 -0.00  0.00  0.00 -0.00  0.00 -0.00  0.00  0.00
    4 F    9    -0.00  -0.00  0.00 -0.00 -0.00  0.00  0.00  0.00  0.00  0.00
    5 F    9    -0.00   0.00  0.00 -0.00 -0.00 -0.00  0.00  0.00  0.00 -0.00
    6 F    9    -0.00   0.00 -0.00 -0.00 -0.00 -0.00  0.00 -0.00  0.00 -0.00
    7 F    9    -0.00   0.00  0.00  0.00 -0.00  0.00 -0.00  0.00 -0.00 -0.00
    8 F    9    -0.00   0.00 -0.00 -0.00 -0.00  0.00 -0.00  0.00  0.00 -0.00
    9 O    8    -0.00   0.00  0.00 -0.00 -0.00 -0.00  0.00  0.00  0.00 -0.00
   10 O    8    -0.00   0.00  0.00  0.00 -0.00 -0.00  0.00 -0.00 -0.00  0.00
 
       Multipole analysis of the density wrt the origin
       ------------------------------------------------
 
     L   x y z        total         alpha         beta         nuclear
     -   - - -        -----         -----         ----         -------
     0   0 0 0     -1.000000    -40.000000    -40.000000     79.000000
 
     1   1 0 0    -18.920893   -760.234526   -760.234526   1501.548158
     1   0 1 0    -21.036498   -732.022084   -732.022084   1443.007670
     1   0 0 1    -18.008888   -745.168394   -745.168394   1472.327900
 
     2   2 0 0   -407.160676 -14587.495763 -14587.495763  28767.830850
     2   1 1 0   -398.256006 -13910.519547 -13910.519547  27422.783089
     2   1 0 1   -341.122483 -14165.291284 -14165.291284  27989.460084
     2   0 2 0   -491.082922 -13689.616120 -13689.616120  26888.149319
     2   0 1 1   -376.150473 -13633.402529 -13633.402529  26890.654584
     2   0 0 2   -368.145277 -14021.882284 -14021.882284  27675.619291
 

 Task  times  cpu:       13.8s     wall:       10.0s
 
 
                                NWChem Input Module
                                -------------------
 
 
 Summary of allocated global arrays
-----------------------------------
  No active global arrays



                         GA Statistics for process    0
                         ------------------------------

       create   destroy   get      put      acc     scatter   gather  read&inc
calls:  632      632     5293     1291     4235       91        0      353     
number of processes/call 1.04e+01 7.98e+00 9.27e+00 0.00e+00 0.00e+00
bytes total:             1.73e+08 3.74e+07 6.11e+07 8.00e+01 0.00e+00 2.82e+03
bytes remote:            1.67e+08 3.47e+07 5.15e+07 -3.20e+02 0.00e+00 0.00e+00
Max memory consumed for GA by this process: 99128 bytes
 
MA_summarize_allocated_blocks: starting scan ...
MA_summarize_allocated_blocks: scan completed: 0 heap blocks, 0 stack blocks
MA usage statistics:

	allocation statistics:
					      heap	     stack
					      ----	     -----
	current number of blocks	         0	         0
	maximum number of blocks	        16	        14
	current total bytes		         0	         0
	maximum total bytes		    773304	  22521096
	maximum total K-bytes		       774	     22522
	maximum total M-bytes		         1	        23
 
 
                                     CITATION
                                     --------
                Please cite the following reference when publishing
                           results obtained with NWChem:
 
                 M. Valiev, E.J. Bylaska, N. Govind, K. Kowalski,
              T.P. Straatsma, H.J.J. van Dam, D. Wang, J. Nieplocha,
                        E. Apra, T.L. Windus, W.A. de Jong
                 "NWChem: a comprehensive and scalable open-source
                  solution for large scale molecular simulations"
                      Comput. Phys. Commun. 181, 1477 (2010)
                           doi:10.1016/j.cpc.2010.04.018
 
                                      AUTHORS
                                      -------
          E. Apra, E. J. Bylaska, W. A. de Jong, N. Govind, K. Kowalski,
       T. P. Straatsma, M. Valiev, H. J. J. van Dam, D. Wang, T. L. Windus,
        J. Hammond, J. Autschbach, K. Bhaskaran-Nair, J. Brabec, K. Lopata,
    S. A. Fischer, S. Krishnamoorthy, M. Jacquelin, W. Ma, M. Klemm, O. Villa,
      Y. Chen, V. Anisimov, F. Aquino, S. Hirata, M. T. Hackler, V. Konjkov,
            D. Mejia-Rodriguez, T. Risthaus, M. Malagoli, A. Marenich,
   A. Otero-de-la-Roza, J. Mullin, P. Nichols, R. Peverati, J. Pittner, Y. Zhao,
        P.-D. Fan, A. Fonari, M. J. Williamson, R. J. Harrison, J. R. Rehr,
      M. Dupuis, D. Silverstein, D. M. A. Smith, J. Nieplocha, V. Tipparaju,
    M. Krishnan, B. E. Van Kuiken, A. Vazquez-Mayagoitia, L. Jensen, M. Swart,
      Q. Wu, T. Van Voorhis, A. A. Auer, M. Nooijen, L. D. Crosby, E. Brown,
      G. Cisneros, G. I. Fann, H. Fruchtl, J. Garza, K. Hirao, R. A. Kendall,
      J. A. Nichols, K. Tsemekhman, K. Wolinski, J. Anchell, D. E. Bernholdt,
      P. Borowski, T. Clark, D. Clerc, H. Dachsel, M. J. O. Deegan, K. Dyall,
    D. Elwood, E. Glendening, M. Gutowski, A. C. Hess, J. Jaffe, B. G. Johnson,
     J. Ju, R. Kobayashi, R. Kutteh, Z. Lin, R. Littlefield, X. Long, B. Meng,
      T. Nakajima, S. Niu, L. Pollack, M. Rosing, K. Glaesemann, G. Sandrone,
      M. Stave, H. Taylor, G. Thomas, J. H. van Lenthe, A. T. Wong, Z. Zhang.

 Total times  cpu:       13.8s     wall:       10.1s
Job finished on bc4u21n1 at Wed Jan  5 18:22:25 CST 2022
