 vasp.5.4.4.18Apr17-6-g9f103f2a35 (build May 01 2020 14:57:12) complex          
  
 executed on             LinuxIFC date 2021.05.16  22:37:44
 running on  192 total cores
 distrk:  each k-point on   48 cores,    4 groups
 distr:  one band on NCORES_PER_BAND=  12 cores,    4 groups


--------------------------------------------------------------------------------------------------------


 INCAR:
 POTCAR:    PAW_PBE B 06Sep2000                   
 POTCAR:    PAW_PBE N 08Apr2002                   
 POTCAR:    PAW_PBE O 08Apr2002                   

 ----------------------------------------------------------------------------- 
|                                                                             |
|           W    W    AA    RRRRR   N    N  II  N    N   GGGG   !!!           |
|           W    W   A  A   R    R  NN   N  II  NN   N  G    G  !!!           |
|           W    W  A    A  R    R  N N  N  II  N N  N  G       !!!           |
|           W WW W  AAAAAA  RRRRR   N  N N  II  N  N N  G  GGG   !            |
|           WW  WW  A    A  R   R   N   NN  II  N   NN  G    G                |
|           W    W  A    A  R    R  N    N  II  N    N   GGGG   !!!           |
|                                                                             |
|      You have enabled k-point parallelism (KPAR>1).                         |
|      This developmental code was originally  written by Paul Kent at ORNL,  |
|      and carefully double checked in Vienna.                                |
|      GW as well as linear response parallelism added by Martijn Marsman     |
|      and Georg Kresse.                                                      |
|      Carefully verify results versus KPAR=1.                                |
|      Report problems to Paul Kent and Vienna.                               |
|                                                                             |
 ----------------------------------------------------------------------------- 


 ----------------------------------------------------------------------------- 
|                                                                             |
|  ADVICE TO THIS USER RUNNING 'VASP/VAMP'   (HEAR YOUR MASTER'S VOICE ...):  |
|                                                                             |
|      You have switched on vdW-DFT.                                          |
|      This routine was written and supplied by Jiri Klimes.                  |
|      We recommed that you carefully read and cite the following             |
|      publication                                                            |
|      J. Klimes, D.R. Bowler, A. Michelides                                  |
|        J. Phys.: Cond Matt. 22 022201 (2010)                                |
|      J. Klimes, D.R. Bowler, A. Michelides                                  |
|        Phys. Rev. B. 83, 195131 (2011)                                      |
|      and references therein.                                                |
|                                                                             |
 ----------------------------------------------------------------------------- 

 POTCAR:    PAW_PBE B 06Sep2000                   
   VRHFIN =B: s2p1                                                              
   LEXCH  = PE                                                                  
   EATOM  =    71.1703 eV,    5.2309 Ry                                         
                                                                                
   TITEL  = PAW_PBE B 06Sep2000                                                 
   LULTRA =        F    use ultrasoft PP ?                                      
   IUNSCR =        1    unscreen: 0-lin 1-nonlin 2-no                           
   RPACOR =    1.200    partial core radius                                     
   POMASS =   10.811; ZVAL   =    3.000    mass and valenz                      
   RCORE  =    1.700    outmost cutoff radius                                   
   RWIGS  =    1.710; RWIGS  =    0.905    wigner-seitz radius (au A)           
   ENMAX  =  318.614; ENMIN  =  238.960 eV                                      
   ICORE  =        2    local potential                                         
   LCOR   =        T    correct aug charges                                     
   LPAW   =        T    paw PP                                                  
   EAUG   =  535.514                                                            
   DEXC   =    0.000                                                            
   RMAX   =    1.732    core radius for proj-oper                               
   RAUG   =    1.300    factor for augmentation sphere                          
   RDEP   =    1.757    radius for radial grids                                 
   RDEPT  =    1.436    core radius for aug-charge                              
                                                                                
   Atomic configuration                                                         
    4 entries                                                                   
     n  l   j            E        occ.                                          
     1  0  0.50      -180.5896   2.0000                                         
     2  0  0.50        -9.4431   2.0000                                         
     2  1  0.50        -3.6068   1.0000                                         
     3  2  1.50        -4.0817   0.0000                                         
   Description                                                                  
     l       E           TYP  RCUT    TYP  RCUT                                 
     0     -9.4430752     23  1.500                                             
     0      0.8675899     23  1.500                                             
     1     -3.6067955     23  1.700                                             
     1      6.1086146     23  1.700                                             
     2     -4.0817478      7  1.700                                             
  local pseudopotential read in
  partial core-charges read in
  partial kinetic energy density read in
  atomic valenz-charges read in
  non local Contribution for L=           0  read in
    real space projection operators read in
  non local Contribution for L=           0  read in
    real space projection operators read in
  non local Contribution for L=           1  read in
    real space projection operators read in
  non local Contribution for L=           1  read in
    real space projection operators read in
    PAW grid and wavefunctions read in
 
   number of l-projection  operators is LMAX  =           4
   number of lm-projection operators is LMMAX =           8
 
 POTCAR:    PAW_PBE N 08Apr2002                   
   VRHFIN =N: s2p3                                                              
   LEXCH  = PE                                                                  
   EATOM  =   264.5486 eV,   19.4438 Ry                                         
                                                                                
   TITEL  = PAW_PBE N 08Apr2002                                                 
   LULTRA =        F    use ultrasoft PP ?                                      
   IUNSCR =        1    unscreen: 0-lin 1-nonlin 2-no                           
   RPACOR =    1.200    partial core radius                                     
   POMASS =   14.001; ZVAL   =    5.000    mass and valenz                      
   RCORE  =    1.500    outmost cutoff radius                                   
   RWIGS  =    1.400; RWIGS  =    0.741    wigner-seitz radius (au A)           
   ENMAX  =  400.000; ENMIN  =  300.000 eV                                      
   ICORE  =        2    local potential                                         
   LCOR   =        T    correct aug charges                                     
   LPAW   =        T    paw PP                                                  
   EAUG   =  627.112                                                            
   DEXC   =    0.000                                                            
   RMAX   =    1.529    core radius for proj-oper                               
   RAUG   =    1.300    factor for augmentation sphere                          
   RDEP   =    1.514    radius for radial grids                                 
   RDEPT  =    1.338    core radius for aug-charge                              
                                                                                
   Atomic configuration                                                         
    4 entries                                                                   
     n  l   j            E        occ.                                          
     1  0  0.50      -384.7179   2.0000                                         
     2  0  0.50       -18.5828   2.0000                                         
     2  1  0.50        -7.0898   3.0000                                         
     3  2  1.50        -6.8029   0.0000                                         
   Description                                                                  
     l       E           TYP  RCUT    TYP  RCUT                                 
     0    -18.5828119     23  1.200                                             
     0    -13.5018863     23  1.200                                             
     1     -7.0897853     23  1.500                                             
     1      9.5240782     23  1.500                                             
     2     -6.8029130      7  1.500                                             
  local pseudopotential read in
  partial core-charges read in
  partial kinetic energy density read in
  atomic valenz-charges read in
  non local Contribution for L=           0  read in
    real space projection operators read in
  non local Contribution for L=           0  read in
    real space projection operators read in
  non local Contribution for L=           1  read in
    real space projection operators read in
  non local Contribution for L=           1  read in
    real space projection operators read in
    PAW grid and wavefunctions read in
 
   number of l-projection  operators is LMAX  =           4
   number of lm-projection operators is LMMAX =           8
 
 POTCAR:    PAW_PBE O 08Apr2002                   
   VRHFIN =O: s2p4                                                              
   LEXCH  = PE                                                                  
   EATOM  =   432.3788 eV,   31.7789 Ry                                         
                                                                                
   TITEL  = PAW_PBE O 08Apr2002                                                 
   LULTRA =        F    use ultrasoft PP ?                                      
   IUNSCR =        1    unscreen: 0-lin 1-nonlin 2-no                           
   RPACOR =    1.200    partial core radius                                     
   POMASS =   16.000; ZVAL   =    6.000    mass and valenz                      
   RCORE  =    1.520    outmost cutoff radius                                   
   RWIGS  =    1.550; RWIGS  =    0.820    wigner-seitz radius (au A)           
   ENMAX  =  400.000; ENMIN  =  300.000 eV                                      
   ICORE  =        2    local potential                                         
   LCOR   =        T    correct aug charges                                     
   LPAW   =        T    paw PP                                                  
   EAUG   =  605.392                                                            
   DEXC   =    0.000                                                            
   RMAX   =    1.553    core radius for proj-oper                               
   RAUG   =    1.300    factor for augmentation sphere                          
   RDEP   =    1.550    radius for radial grids                                 
   RDEPT  =    1.329    core radius for aug-charge                              
                                                                                
   Atomic configuration                                                         
    4 entries                                                                   
     n  l   j            E        occ.                                          
     1  0  0.50      -514.6923   2.0000                                         
     2  0  0.50       -23.9615   2.0000                                         
     2  1  0.50        -9.0305   4.0000                                         
     3  2  1.50        -9.5241   0.0000                                         
   Description                                                                  
     l       E           TYP  RCUT    TYP  RCUT                                 
     0    -23.9615318     23  1.200                                             
     0     -9.5240782     23  1.200                                             
     1     -9.0304911     23  1.520                                             
     1      8.1634956     23  1.520                                             
     2     -9.5240782      7  1.500                                             
  local pseudopotential read in
  partial core-charges read in
  partial kinetic energy density read in
  kinetic energy density of atom read in
  atomic valenz-charges read in
  non local Contribution for L=           0  read in
    real space projection operators read in
  non local Contribution for L=           0  read in
    real space projection operators read in
  non local Contribution for L=           1  read in
    real space projection operators read in
  non local Contribution for L=           1  read in
    real space projection operators read in
    PAW grid and wavefunctions read in
 
   number of l-projection  operators is LMAX  =           4
   number of lm-projection operators is LMMAX =           8
 
 Optimization of the real space projectors (new method)

 maximal supplied QI-value         = 22.11
 optimisation between [QCUT,QGAM] = [ 11.94, 23.88] = [ 39.92,159.67] Ry 
 Optimized for a Real-space Cutoff    1.18 Angstroem

   l    n(q)    QCUT    max X(q) W(low)/X(q) W(high)/X(q)  e(spline) 
   0      8    11.939    53.033    0.11E-03    0.34E-03    0.60E-07
   0      8    11.939    34.740    0.11E-03    0.34E-03    0.59E-07
   1      8    11.939    30.949    0.22E-03    0.20E-03    0.17E-06
   1      8    11.939    19.518    0.20E-03    0.18E-03    0.16E-06
 Optimization of the real space projectors (new method)

 maximal supplied QI-value         = 25.13
 optimisation between [QCUT,QGAM] = [ 11.81, 23.88] = [ 39.08,159.64] Ry 
 Optimized for a Real-space Cutoff    1.41 Angstroem

   l    n(q)    QCUT    max X(q) W(low)/X(q) W(high)/X(q)  e(spline) 
   0     10    11.813    79.467    0.48E-04    0.30E-04    0.67E-06
   0     10    11.813    66.151    0.47E-04    0.30E-04    0.67E-06
   1     10    11.813    20.169    0.11E-03    0.17E-03    0.11E-05
   1     10    11.813    14.454    0.11E-03    0.17E-03    0.11E-05
 Optimization of the real space projectors (new method)

 maximal supplied QI-value         = 24.76
 optimisation between [QCUT,QGAM] = [ 11.88, 24.01] = [ 39.54,161.47] Ry 
 Optimized for a Real-space Cutoff    1.18 Angstroem

   l    n(q)    QCUT    max X(q) W(low)/X(q) W(high)/X(q)  e(spline) 
   0      8    11.883    20.381    0.86E-04    0.11E-03    0.31E-06
   0      8    11.883    15.268    0.94E-04    0.12E-03    0.33E-06
   1      8    11.883     5.964    0.19E-03    0.18E-04    0.33E-06
   1      8    11.883     5.382    0.17E-03    0.20E-04    0.29E-06
  PAW_PBE B 06Sep2000                   :
 energy of atom  1       EATOM=  -71.1703
 kinetic energy error for atom=    0.0009 (will be added to EATOM!!)
  PAW_PBE N 08Apr2002                   :
 energy of atom  2       EATOM= -264.5486
 kinetic energy error for atom=    0.0116 (will be added to EATOM!!)
  PAW_PBE O 08Apr2002                   :
 energy of atom  3       EATOM= -432.3788
 kinetic energy error for atom=    0.0194 (will be added to EATOM!!)
 
 
 POSCAR: B N O                                   
  positions in direct lattice
  velocities in cartesian coordinates

 METAGGA = SCAN     LMAXTAU =  6    LMIXTAU =  F

 exchange correlation table for  LEXCH =        8
   RHO(1)=    0.500       N(1)  =     2000
   RHO(2)=  100.500       N(2)  =     4000
 


--------------------------------------------------------------------------------------------------------


 ion  position               nearest neighbor table
   1  0.111  0.055  0.500-  42 1.45  43 1.45  37 1.45
   2  0.111  0.222  0.500-  37 1.45  44 1.45  38 1.45
   3  0.111  0.389  0.500-  38 1.45  39 1.45  45 1.47
   4  0.111  0.555  0.500-  40 1.45  39 1.45  46 1.47
   5  0.111  0.722  0.500-  41 1.45  47 1.45  40 1.45
   6  0.111  0.889  0.500-  42 1.45  48 1.45  41 1.45
   7  0.278  0.056  0.500-  48 1.45  43 1.45  49 1.45
   8  0.278  0.222  0.500-  43 1.45  44 1.45  50 1.45
   9  0.277  0.388  0.500-  44 1.44  51 1.45  45 1.45
  10  0.274  0.554  0.500-  45 1.42  46 1.42  72 1.50
  11  0.277  0.723  0.500-  47 1.44  46 1.45  52 1.45
  12  0.278  0.889  0.500-  48 1.45  47 1.45  53 1.45
  13  0.444  0.056  0.500-  49 1.45  54 1.45  53 1.45
  14  0.444  0.222  0.500-  49 1.45  55 1.45  50 1.45
  15  0.445  0.389  0.500-  50 1.45  56 1.45  51 1.47
  16  0.446  0.554  0.500-  57 1.42  51 1.42  72 1.50
  17  0.446  0.726  0.500-  58 1.42  52 1.42  72 1.50
  18  0.445  0.889  0.500-  53 1.45  59 1.45  52 1.47
  19  0.611  0.056  0.500-  60 1.45  54 1.45  59 1.45
  20  0.611  0.222  0.500-  61 1.45  54 1.45  55 1.45
  21  0.611  0.389  0.500-  55 1.45  62 1.45  56 1.45
  22  0.611  0.555  0.500-  63 1.45  56 1.45  57 1.47
  23  0.612  0.723  0.500-  64 1.44  57 1.45  58 1.45
  24  0.611  0.889  0.500-  65 1.45  59 1.45  58 1.47
  25  0.778  0.056  0.500-  66 1.45  60 1.45  65 1.45
  26  0.778  0.222  0.500-  61 1.45  60 1.45  67 1.45
  27  0.778  0.389  0.500-  61 1.45  68 1.45  62 1.45
  28  0.778  0.556  0.500-  69 1.45  62 1.45  63 1.45
  29  0.778  0.722  0.500-  70 1.45  64 1.45  63 1.45
  30  0.778  0.889  0.500-  71 1.45  64 1.45  65 1.45
  31  0.944  0.056  0.500-  37 1.45  71 1.45  66 1.45
  32  0.944  0.222  0.500-  66 1.45  67 1.45  38 1.45
  33  0.944  0.389  0.500-  67 1.45  68 1.45  39 1.45
  34  0.944  0.556  0.500-  69 1.45  68 1.45  40 1.45
  35  0.944  0.722  0.500-  41 1.45  70 1.45  69 1.45
  36  0.945  0.889  0.500-  42 1.45  70 1.45  71 1.45
  37  0.056  0.111  0.500-   2 1.45  31 1.45   1 1.45
  38  0.056  0.278  0.500-   3 1.45   2 1.45  32 1.45
  39  0.056  0.445  0.500-   4 1.45   3 1.45  33 1.45
  40  0.056  0.611  0.500-   4 1.45   5 1.45  34 1.45
  41  0.056  0.778  0.500-   5 1.45  35 1.45   6 1.45
  42  0.056  0.944  0.500-  36 1.45   1 1.45   6 1.45
  43  0.222  0.111  0.500-   8 1.45   7 1.45   1 1.45
  44  0.222  0.278  0.500-   9 1.44   2 1.45   8 1.45
  45  0.223  0.445  0.500-  10 1.42   9 1.45   3 1.47
  46  0.223  0.611  0.500-  10 1.42  11 1.45   4 1.47
  47  0.222  0.778  0.500-  11 1.44   5 1.45  12 1.45
  48  0.222  0.944  0.500-  12 1.45   7 1.45   6 1.45
  49  0.389  0.111  0.500-  14 1.45  13 1.45   7 1.45
  50  0.389  0.278  0.500-  15 1.45   8 1.45  14 1.45
  51  0.389  0.445  0.500-  16 1.42   9 1.45  15 1.47
  52  0.389  0.777  0.500-  17 1.42  11 1.45  18 1.47
  53  0.389  0.944  0.500-  18 1.45  12 1.45  13 1.45
  54  0.556  0.111  0.500-  19 1.45  13 1.45  20 1.45
  55  0.556  0.278  0.500-  21 1.45  14 1.45  20 1.45
  56  0.555  0.445  0.500-  22 1.45  15 1.45  21 1.45
  57  0.555  0.611  0.500-  16 1.42  23 1.45  22 1.47
  58  0.555  0.777  0.500-  17 1.42  23 1.45  24 1.47
  59  0.555  0.944  0.500-  18 1.45  24 1.45  19 1.45
  60  0.722  0.111  0.500-  19 1.45  25 1.45  26 1.45
  61  0.722  0.278  0.500-  27 1.45  20 1.45  26 1.45
  62  0.722  0.444  0.500-  21 1.45  28 1.45  27 1.45
  63  0.722  0.611  0.500-  22 1.45  29 1.45  28 1.45
  64  0.722  0.778  0.500-  23 1.44  30 1.45  29 1.45
  65  0.722  0.944  0.500-  24 1.45  30 1.45  25 1.45
  66  0.889  0.111  0.500-  25 1.45  32 1.45  31 1.45
  67  0.889  0.278  0.500-  33 1.45  32 1.45  26 1.45
  68  0.889  0.444  0.500-  33 1.45  34 1.45  27 1.45
  69  0.889  0.611  0.500-  28 1.45  34 1.45  35 1.45
  70  0.889  0.778  0.500-  29 1.45  35 1.45  36 1.45
  71  0.889  0.944  0.500-  30 1.45  31 1.45  36 1.45
  72  0.389  0.611  0.500-  10 1.50  17 1.50  16 1.50
 
  LATTYP: Found a hexagonal cell.
 ALAT       =    15.0731507304
 C/A-ratio  =     2.3296167479
  
  Lattice vectors:
  
 A1 = (   7.5365500567, -13.0537460594,   0.0000000000)
 A2 = (   7.5365500567,  13.0537460594,   0.0000000000)
 A3 = (   0.0000000000,   0.0000000000,  35.1146643856)


Analysis of symmetry for initial positions (statically):
=====================================================================
 Subroutine PRICEL returns:
 Original cell was already a primitive cell.
 

 Routine SETGRP: Setting up the symmetry group for a 
 hexagonal supercell.


 Subroutine GETGRP returns: Found 12 space group operations
 (whereof  4 operations were pure point group operations)
 out of a pool of 24 trial point group operations.


The static configuration has the point symmetry C_2v.
 The point group associated with its full space group is D_3h.


Analysis of symmetry for dynamics (positions and initial velocities):
=====================================================================
 Subroutine PRICEL returns:
 Original cell was already a primitive cell.
 

 Routine SETGRP: Setting up the symmetry group for a 
 hexagonal supercell.


 Subroutine GETGRP returns: Found 12 space group operations
 (whereof  4 operations were pure point group operations)
 out of a pool of 24 trial point group operations.


The dynamic configuration has the point symmetry C_2v.
 The point group associated with its full space group is D_3h.


Analysis of constrained symmetry for selective dynamics:
=====================================================================
 Subroutine PRICEL returns:
 Original cell was already a primitive cell.
 

 Routine SETGRP: Setting up the symmetry group for a 
 hexagonal supercell.


 Subroutine GETGRP returns: Found 12 space group operations
 (whereof  4 operations were pure point group operations)
 out of a pool of 24 trial point group operations.


The constrained configuration has the point symmetry C_2v.
 The point group associated with its full space group is D_3h.


Analysis of structural, dynamic, and magnetic symmetry:
=====================================================================
 Subroutine PRICEL returns:
 Original cell was already a primitive cell.
 

 Routine SETGRP: Setting up the symmetry group for a 
 hexagonal supercell.


 Subroutine GETGRP returns: Found 12 space group operations
 (whereof  4 operations were pure point group operations)
 out of a pool of 24 trial point group operations.


The magnetic configuration has the point symmetry C_2v.
 The point group associated with its full space group is D_3h.


 Subroutine INISYM returns: Found 12 space group operations
 (whereof  4 operations are pure point group operations),
 and found     1 'primitive' translations

 
 
 KPOINTS: K-Point Grid                            

Automatic generation of k-mesh.
Space group operators:
 irot       det(A)        alpha          n_x          n_y          n_z        tau_x        tau_y        tau_z
    1     1.000000     0.000000     1.000000     0.000000     0.000000     0.000000     0.000000     0.000000
    2    -1.000000   180.000000     0.000000     0.000000     1.000000     0.000000     0.000000     0.000000
    3     1.000000   180.000000     0.000000     1.000000     0.000000     0.000000     0.000000     0.000000
    4    -1.000000   180.000000     1.000000     0.000000     0.000000     0.000000     0.000000     0.000000
    5    -1.000000    60.000000     0.000000     0.000000    -1.000000     0.166667     0.000001     0.000000
    6     1.000000   120.000000     0.000000     0.000000    -1.000000     0.000001     0.833334     0.000000
    7     1.000000   120.000000     0.000000     0.000000     1.000000     0.166667     0.000001     0.000000
    8    -1.000000    60.000000     0.000000     0.000000     1.000000     0.000001     0.833334     0.000000
    9    -1.000000   180.000000     0.500002    -0.866024     0.000000     0.166667    -0.000000     0.000000
   10    -1.000000   180.000000    -0.500002    -0.866024     0.000000    -0.000000     0.833334     0.000000
   11     1.000000   180.000000     0.866026     0.499998     0.000000     0.166667    -0.000000     0.000000
   12     1.000000   180.000000     0.866026    -0.499998     0.000000    -0.000000     0.833334     0.000000
 
 Subroutine IBZKPT returns following result:
 ===========================================
 
 Found      3 irreducible k-points:
 
 Following reciprocal coordinates:
            Coordinates               Weight
  0.000000  0.000000  0.000000      1.000000
  0.333333  0.000000  0.000000      6.000000
  0.333333  0.333333  0.000000      2.000000
 
 Following cartesian coordinates:
            Coordinates               Weight
  0.000000  0.000000  0.000000      1.000000
  0.022114 -0.012768  0.000000      6.000000
  0.044229  0.000000  0.000000      2.000000
 


--------------------------------------------------------------------------------------------------------




 Dimension of arrays:
   k-points           NKPTS =      3   k-points in BZ     NKDIM =      3   number of bands    NBANDS=    220
   number of dos      NEDOS =   1200   number of ions     NIONS =     72
   non local maximal  LDIM  =      4   non local SUM 2l+1 LMDIM =      8
   total plane-waves  NPLWV = ******
   max r-space proj   IRMAX =   6598   max aug-charges    IRDMAX=   8974
   dimension x,y,z NGX =   120 NGY =  120 NGZ =  270
   dimension x,y,z NGXF=   240 NGYF=  240 NGZF=  540
   support grid    NGXF=   240 NGYF=  240 NGZF=  540
   ions per type =              36  35   1
   NGX,Y,Z   is equivalent  to a cutoff of  13.24, 13.24, 12.78 a.u.
   NGXF,Y,Z  is equivalent  to a cutoff of  26.47, 26.47, 25.57 a.u.

 SYSTEM =  SiC                                     
 POSCAR =  B N O                                   

 Startparameter for this run:
   NWRITE =      2    write-flag & timer
   PREC   = accura    normal or accurate (medium, high low for compatibility)
   ISTART =      1    job   : 0-new  1-cont  2-samecut
   ICHARG =      0    charge: 1-file 2-atom 10-const
   ISPIN  =      2    spin polarized calculation?
   LNONCOLLINEAR =      F non collinear calculations
   LSORBIT =      F    spin-orbit coupling
   INIWAV =      1    electr: 0-lowe 1-rand  2-diag
   LASPH  =      T    aspherical Exc in radial PAW
   METAGGA=      F    non-selfconsistent MetaGGA calc.

 Electronic Relaxation 1
   ENCUT  =  550.0 eV  40.42 Ry    6.36 a.u.  28.82 28.82 67.15*2*pi/ulx,y,z
   ENINI  =  550.0     initial cutoff
   ENAUG  =  627.1 eV  augmentation charge cutoff
   NELM   =    100;   NELMIN=  2; NELMDL=  0     # of ELM steps 
   EDIFF  = 0.1E-04   stopping-criterion for ELM
   LREAL  =      T    real-space projection
   NLSPLINE    = F    spline interpolate recip. space projectors
   LCOMPAT=      F    compatible to vasp.4.4
   GGA_COMPAT  = T    GGA compatible to vasp.4.4-vasp.4.6
   LMAXPAW     = -100 max onsite density
   LMAXMIX     =    2 max onsite mixed and CHGCAR
   VOSKOWN=      0    Vosko Wilk Nusair interpolation
   ROPT   =   -0.00025  -0.00025  -0.00025
 Ionic relaxation
   EDIFFG = -.2E-01   stopping-criterion for IOM
   NSW    =    500    number of steps for IOM
   NBLOCK =      1;   KBLOCK =    500    inner block; outer block 
   IBRION =      2    ionic relax: 0-MD 1-quasi-New 2-CG
   NFREE  =      1    steps in history (QN), initial steepest desc. (CG)
   ISIF   =      2    stress and relaxation
   IWAVPR =     11    prediction:  0-non 1-charg 2-wave 3-comb
   ISYM   =      2    0-nonsym 1-usesym 2-fastsym
   LCORR  =      T    Harris-Foulkes like correction to forces

   POTIM  = 0.5000    time-step for ionic-motion
   TEIN   =    0.0    initial temperature
   TEBEG  =    0.0;   TEEND  =   0.0 temperature during run
   SMASS  =  -3.00    Nose mass-parameter (am)
   estimated Nose-frequenzy (Omega)   =  0.10E-29 period in steps =****** mass=  -0.519E-26a.u.
   SCALEE = 1.0000    scale energy and forces
   NPACO  =    256;   APACO  = 16.0  distance and # of slots for P.C.
   PSTRESS=    0.0 pullay stress

  Mass of Ions in am
   POMASS =  10.81 14.00 16.00
  Ionic Valenz
   ZVAL   =   3.00  5.00  6.00
  Atomic Wigner-Seitz radii
   RWIGS  =  -1.00 -1.00 -1.00
  virtual crystal weights 
   VCA    =   1.00  1.00  1.00
   NELECT =     288.0000    total number of electrons
   NUPDOWN=      -1.0000    fix difference up-down

 DOS related values:
   EMIN   =  10.00;   EMAX   =-10.00  energy-range for DOS
   EFERMI =   0.00
   ISMEAR =     0;   SIGMA  =   0.05  broadening in eV -4-tet -1-fermi 0-gaus

 Electronic relaxation 2 (details)
   IALGO  =     68    algorithm
   LDIAG  =      T    sub-space diagonalisation (order eigenvalues)
   LSUBROT=      F    optimize rotation matrix (better conditioning)
   TURBO    =      0    0=normal 1=particle mesh
   IRESTART =      0    0=no restart 2=restart with 2 vectors
   NREBOOT  =      0    no. of reboots
   NMIN     =      0    reboot dimension
   EREF     =   0.00    reference energy to select bands
   IMIX   =      4    mixing-type and parameters
     AMIX     =   0.40;   BMIX     =  1.00
     AMIX_MAG =   1.60;   BMIX_MAG =  1.00
     AMIN     =   0.10
     WC   =   100.;   INIMIX=   1;  MIXPRE=   1;  MAXMIX= -45

 Intra band minimization:
   WEIMIN = 0.0010     energy-eigenvalue tresh-hold
   EBREAK =  0.11E-07  absolut break condition
   DEPER  =   0.30     relativ break condition  

   TIME   =   0.40     timestep for ELM

  volume/ion in A,a.u.               =      95.96       647.58
  Fermi-wavevector in a.u.,A,eV,Ry     =   0.567628  1.072661  4.383813  0.322201
  Thomas-Fermi vector in A             =   1.606518
 
 Write flags
   LWAVE        =      T    write WAVECAR
   LDOWNSAMPLE  =      F    k-point downsampling of WAVECAR
   LCHARG       =      F    write CHGCAR
   LVTOT        =      F    write LOCPOT, total local potential
   LVHAR        =      T    write LOCPOT, Hartree potential only
   LELF         =      F    write electronic localiz. function (ELF)
   LORBIT       =     11    0 simple, 1 ext, 2 COOP (PROOUT), +10 PAW based schemes


 Dipole corrections
   LMONO  =      F    monopole corrections only (constant potential shift)
   LDIPOL =      F    correct potential (dipole corrections)
   IDIPOL =      0    1-x, 2-y, 3-z, 4-all directions 
   EPSILON=  1.0000000 bulk dielectric constant

 Exchange correlation treatment:
   GGA     =    --    GGA type
   LEXCH   =     8    internal setting for exchange type
   VOSKOWN=      0    Vosko Wilk Nusair interpolation
   LHFCALC =     F    Hartree Fock is set to
   LHFONE  =     F    Hartree Fock one center treatment
   AEXX    =    0.0000 exact exchange contribution

 vdW DFT:
   LUSE_VDW   =     T    switch on vdW DFT
   Zab_VDW    =-.8491    correlation parameter
   PARAM1     =0.1234
   PARAM2     =1.0000
   PARAM3     =0.0000
   -- rVV10 --
   BPARAM     =15.7000
   CPARAM     = 0.0093

 Linear response parameters
   LEPSILON=     F    determine dielectric tensor
   LRPA    =     F    only Hartree local field effects (RPA)
   LNABLA  =     F    use nabla operator in PAW spheres
   LVEL    =     F    velocity operator in full k-point grid
   LINTERFAST=   F  fast interpolation
   KINTER  =     0    interpolate to denser k-point grid
   CSHIFT  =0.1000    complex shift for real part using Kramers Kronig
   OMEGAMAX=  -1.0    maximum frequency
   DEG_THRESHOLD= 0.2000000E-02 threshold for treating states as degnerate
   RTIME   =   -0.100 relaxation time in fs
  (WPLASMAI=    0.000 imaginary part of plasma frequency in eV, 0.658/RTIME)
   DFIELD  = 0.0000000 0.0000000 0.0000000 field for delta impulse in time
 
 Orbital magnetization related:
   ORBITALMAG=     F  switch on orbital magnetization
   LCHIMAG   =     F  perturbation theory with respect to B field
   DQ        =  0.001000  dq finite difference perturbation B field
   LLRAUG    =     F  two centre corrections for induced B field

 Solvation model:
   LSOL    =     T         switch on solvation model
   EB_K    = 78.400000     relative permittivity of the bulk solvent
   SIGMA_K =  0.600000     width of the dielectric cavity
   NC_K    =  0.002500     cutoff charge density
   TAU     =  0.000000     cavity surface tension
   LAMBDA_D_K    =  3.040000     Debye length in Angstroms
   LRHOB     =     F     write boundcharge  density
   LRHOION     =     F     write ioniccharge density



--------------------------------------------------------------------------------------------------------


 conjugate gradient relaxation of ions
   using selective dynamics as specified on POSCAR
 charge density and potential will be updated during run
 spin polarized calculation
 RMM-DIIS sequential band-by-band and
  variant of blocked Davidson during initial phase
 perform sub-space diagonalisation
    before iterative eigenvector-optimisation
 modified Broyden-mixing scheme, WC =      100.0
 initial mixing is a Kerker type mixing with AMIX =  0.4000 and BMIX =      1.0000
 Hartree-type preconditioning will be used
 using additional bands           76
 real space projection scheme for non local part
 use partial core corrections
 calculate Harris-corrections to forces 
   (improved forces if not selfconsistent)
 use gradient corrections 
 use of overlap-Matrix (Vanderbilt PP)
 Gauss-broadening in eV      SIGMA  =   0.05


--------------------------------------------------------------------------------------------------------


  energy-cutoff  :      550.00
  volume of cell :     6909.18
      direct lattice vectors                 reciprocal lattice vectors
     7.536550057-13.053746059  0.000000000     0.066343353 -0.038303181  0.000000000
     7.536550057 13.053746059  0.000000000     0.066343353  0.038303181  0.000000000
     0.000000000  0.000000000 35.114664386     0.000000000  0.000000000  0.028478131

  length of vectors
    15.073150730 15.073150730 35.114664386     0.076606620  0.076606620  0.028478131


 
 old parameters found on file WAVECAR:
  energy-cutoff  :      550.00
  volume of cell :     6909.18
      direct lattice vectors                 reciprocal lattice vectors
     7.536550057-13.053746059  0.000000000     0.066343353 -0.038303181  0.000000000
     7.536550057 13.053746059  0.000000000     0.066343353  0.038303181  0.000000000
     0.000000000  0.000000000 35.114664386     0.000000000  0.000000000  0.028478131

  length of vectors

 
 k-points in units of 2pi/SCALE and weight: K-Point Grid                            
   0.00000000  0.00000000  0.00000000       0.111
   0.02211445 -0.01276773  0.00000000       0.667
   0.04422890  0.00000000  0.00000000       0.222
 
 k-points in reciprocal lattice and weights: K-Point Grid                            
   0.00000000  0.00000000  0.00000000       0.111
   0.33333333  0.00000000  0.00000000       0.667
   0.33333333  0.33333333  0.00000000       0.222
 
 position of ions in fractional coordinates (direct lattice) 
   0.11107537  0.05548378  0.50000000
   0.11109980  0.22205540  0.50000000
   0.11076756  0.38876271  0.50000000
   0.11076756  0.55533856  0.50000000
   0.11109980  0.72237811  0.50000000
   0.11107537  0.88892529  0.50000000
   0.27772354  0.05552863  0.50000000
   0.27762256  0.22205540  0.50000000
   0.27747460  0.38828223  0.50000000
   0.27409665  0.55371518  0.50000000
   0.27747460  0.72252607  0.50000000
   0.27762256  0.88890086  0.50000000
   0.44447679  0.05558046  0.50000000
   0.44447679  0.22223003  0.50000000
   0.44466211  0.38876271  0.50000000
   0.44628549  0.55371518  0.50000000
   0.44628549  0.72590401  0.50000000
   0.44466211  0.88923311  0.50000000
   0.61119567  0.05572439  0.50000000
   0.61113072  0.22223221  0.50000000
   0.61119567  0.38880499  0.50000000
   0.61123796  0.55533856  0.50000000
   0.61171843  0.72252607  0.50000000
   0.61123796  0.88923311  0.50000000
   0.77777064  0.05558046  0.50000000
   0.77776845  0.22223221  0.50000000
   0.77776845  0.38886994  0.50000000
   0.77777064  0.55552388  0.50000000
   0.77794526  0.72237811  0.50000000
   0.77794526  0.88890086  0.50000000
   0.94447204  0.05552863  0.50000000
   0.94442020  0.22223003  0.50000000
   0.94427628  0.38880499  0.50000000
   0.94442020  0.55552388  0.50000000
   0.94447204  0.72227712  0.50000000
   0.94451688  0.88892529  0.50000000
   0.05556333  0.11113698  0.50000000
   0.05576839  0.27804001  0.50000000
   0.05572769  0.44453066  0.50000000
   0.05576839  0.61106201  0.50000000
   0.05556333  0.77775998  0.50000000
   0.05555590  0.94444476  0.50000000
   0.22224069  0.11113698  0.50000000
   0.22225294  0.27783883  0.50000000
   0.22300084  0.44513616  0.50000000
   0.22300084  0.61119831  0.50000000
   0.22225294  0.77774773  0.50000000
   0.22224069  0.94443733  0.50000000
   0.38894400  0.11113881  0.50000000
   0.38893865  0.27804001  0.50000000
   0.38880236  0.44513616  0.50000000
   0.38880236  0.77699982  0.50000000
   0.38893865  0.94423227  0.50000000
   0.55557200  0.11109874  0.50000000
   0.55557200  0.27780688  0.50000000
   0.55547001  0.44453066  0.50000000
   0.55486450  0.61119831  0.50000000
   0.55486450  0.77699982  0.50000000
   0.55547001  0.94427297  0.50000000
   0.72219379  0.11109874  0.50000000
   0.72222257  0.27777810  0.50000000
   0.72219379  0.44442867  0.50000000
   0.72196066  0.61106201  0.50000000
   0.72216183  0.77774773  0.50000000
   0.72196066  0.94423227  0.50000000
   0.88886185  0.11113881  0.50000000
   0.88890192  0.27780688  0.50000000
   0.88890192  0.44442867  0.50000000
   0.88886185  0.61105667  0.50000000
   0.88886368  0.77775998  0.50000000
   0.88886368  0.94443733  0.50000000
   0.38888924  0.61111143  0.50000000
 
 position of ions in cartesian coordinates  (Angst):
   1.25528139 -0.72567848 17.55733219
   2.51084091  1.44838623 17.55733219
   3.76473486  3.62887805 17.55733219
   5.02014212  5.80331693 17.55733219
   6.28154800  7.97947172 17.55733219
   7.53655507 10.15385538 17.55733219
   2.51157166 -2.90047605 17.55733219
   3.76584799 -0.72535952 17.55733219
   5.01750965  1.44645474 17.55733219
   6.23884532  3.65006924 17.55733219
   7.53655507  5.80958894 17.55733219
   8.79156215  7.97947172 17.55733219
   3.76870651 -5.07655383 17.55733219
   5.02466929 -2.90115275 17.55733219
   6.28114782 -0.72969656 17.55733219
   7.53655507  1.40235995 17.55733219
   8.83426482  3.65006924 17.55733219
  10.05296803  5.80331693 17.55733219
   5.02627642 -7.25098111 17.55733219
   6.28068147 -5.07658235 17.55733219
   7.53655507 -2.90303148 17.55733219
   8.79196232 -0.72969656 17.55733219
  10.05560049  1.44645474 17.55733219
  11.30837528  3.62887805 17.55733219
   6.28059229 -9.42728711 17.55733219
   7.53655507 -7.25182898 17.55733219
   8.79242868 -5.07658235 17.55733219
  10.04844086 -2.90115275 17.55733219
  11.30726216 -0.72535952 17.55733219
  12.56226923  1.44838623 17.55733219
   7.53655507-11.60404159 17.55733219
   8.79251785 -9.42728711 17.55733219
  10.04683372 -7.25098111 17.55733219
  11.30440364 -5.07655383 17.55733219
  12.56153848 -2.90047605 17.55733219
  13.81782875 -0.72567848 17.55733219
   1.25634526  0.72544432 17.55733219
   2.51576372  2.90147721 17.55733219
   3.77022211  5.07533519 17.55733219
   5.02560072  7.24866188 17.55733219
   6.28038281  9.42737159 17.55733219
   7.53655507 11.60332948 17.55733219
   2.51251752 -1.45031960 17.55733219
   3.76896667  0.72560419 17.55733219
   5.03544800  2.89969807 17.55733219
   6.28698364  5.06743108 17.55733219
   7.53655507  7.25128795 17.55733219
   8.79272734  9.42737159 17.55733219
   3.76889912 -3.62639835 17.55733219
   5.02671807 -1.44764278 17.55733219
   6.28501944  0.73536717 17.55733219
   8.78612650  5.06743108 17.55733219
  10.04750943  7.24866188 17.55733219
   5.02439742 -5.80204097 17.55733219
   6.28080162 -3.62587533 17.55733219
   7.53655507 -1.44817407 17.55733219
   8.78809071  0.73536717 17.55733219
  10.03766214  2.89969807 17.55733219
  11.30288804  5.07533519 17.55733219
   6.28015088 -7.97707950 17.55733219
   7.53655507 -5.80166527 17.55733219
   8.79230853 -3.62587533 17.55733219
  10.04639208 -1.44764278 17.55733219
  11.30414348  0.72560419 17.55733219
  12.55734643  2.90147721 17.55733219
   7.53655507-10.15219910 17.55733219
   8.79295927 -7.97707950 17.55733219
  10.04871272 -5.80204097 17.55733219
  11.30421103 -3.62639835 17.55733219
  12.56059263 -1.45031960 17.55733219
  13.81676489  0.72544432 17.55733219
   7.53655507  2.90083211 17.55733219
 


--------------------------------------------------------------------------------------------------------


 k-point  1 :   0.0000 0.0000 0.0000  plane waves:  202395
 k-point  2 :   0.3333 0.0000 0.0000  plane waves:  202358
 k-point  3 :   0.3333 0.3333 0.0000  plane waves:  202335

 maximum and minimum number of plane-waves per node :     16924    16812

 maximum number of plane-waves:    202395
 maximum index in each direction: 
   IXMAX=   28   IYMAX=   28   IZMAX=   67
   IXMIN=  -29   IYMIN=  -29   IZMIN=  -67


 real space projection operators:
  total allocation   :      22530.94 KBytes
  max/ min on nodes  :       1892.00       1864.88


 parallel 3D FFT for wavefunctions:
    minimum data exchange during FFTs selected (reduces bandwidth)
 parallel 3D FFT for charge:
    minimum data exchange during FFTs selected (reduces bandwidth)


 total amount of memory used by VASP MPI-rank0   275714. kBytes
=======================================================================

   base      :      30000. kBytes
   nonlr-proj:      10353. kBytes
   fftplans  :      31564. kBytes
   grid      :     114297. kBytes
   one-center:         36. kBytes
   wavefun   :      89464. kBytes
 
     INWAV:  cpu time   27.0296: real time   27.5260
 Broyden mixing: mesh for mixing (old mesh)
   NGX = 57   NGY = 57   NGZ =135
  (NGX  =240   NGY  =240   NGZ  =540)
  gives a total of 438615 points

 charge density for first step will be calculated from the start-wavefunctions


--------------------------------------------------------------------------------------------------------


 Maximum index for non-local projection operator          580
 Maximum index for augmentation-charges          434 (set IRDMAX)


--------------------------------------------------------------------------------------------------------


 initial charge from wavefunction
 First call to EWALD:  gamma=   0.093
 Maximum number of real-space cells 4x 4x 2
 Maximum number of reciprocal cells 2x 2x 5

    FEWALD:  cpu time    0.7194: real time    0.7236


--------------------------------------- Iteration      1(   1)  ---------------------------------------


    POTLOK:  cpu time   48.2164: real time   48.1661
    SETDIJ:  cpu time    1.8129: real time    1.6190
     EDDAV:  cpu time   82.4880: real time   42.4216
       DOS:  cpu time    0.0146: real time    0.0078
    CHARGE:  cpu time   19.0762: real time   15.9001
    MIXING:  cpu time    0.6948: real time    0.6970
    --------------------------------------------
      LOOP:  cpu time  152.3029: real time  108.8118

 eigenvalue-minimisations  :  2656
 total energy-change (2. order) :-0.6933041E+03  (-0.8048679E-05)
 number of electron     287.9999973 magnetization       0.4751809
 augmentation part        8.6238467 magnetization       0.4573333

 Broyden mixing:
  rms(total) = 0.87927E-01    rms(broyden)= 0.87686E-01
  rms(prec ) = 0.10203E+00
  weight for this iteration     100.00

 Free energy of the ion-electron system (eV)
  ---------------------------------------------------
  alpha Z        PSCENC =        67.04771691
  Ewald energy   TEWEN  =     92678.46842815
  -Hartree energ DENC   =   -102784.23726498
  -exchange      EXHF   =         0.00000000
  -V(xc)+E(xc)   XCENC  =      1256.11846222
  PAW double counting   =     35005.98436156   -35133.29496966
  entropy T*S    EENTRO =        -0.00000000
  eigenvalues    EBANDS =     -3986.36733235
  atomic energy  EATOM  =     12253.25080269
  Solvation  Ediel_sol  =       -50.27434889
  ---------------------------------------------------
  free energy    TOTEN  =      -693.30414434 eV

  energy without entropy =     -693.30414434  energy(sigma->0) =     -693.30414434


--------------------------------------------------------------------------------------------------------




--------------------------------------- Iteration      1(   2)  ---------------------------------------


    POTLOK:  cpu time   43.8886: real time   43.9825
    SETDIJ:  cpu time    2.3649: real time    2.1721
    EDDIAG:  cpu time   12.5152: real time    9.5052
  RMM-DIIS:  cpu time  103.9365: real time   55.2265
    ORTHCH:  cpu time    0.3894: real time    0.1980
       DOS:  cpu time    0.0580: real time    0.0290
    CHARGE:  cpu time   19.0548: real time   15.8833
    MIXING:  cpu time    0.7301: real time    0.7325
    --------------------------------------------
      LOOP:  cpu time  182.9374: real time  127.7292

 eigenvalue-minimisations  :  2640
 total energy-change (2. order) : 0.4269527E-01  (-0.1228024E-01)
 number of electron     287.9999973 magnetization       0.4480345
 augmentation part        8.6298317 magnetization       0.4340767

 Broyden mixing:
  rms(total) = 0.42458E-01    rms(broyden)= 0.42450E-01
  rms(prec ) = 0.60645E-01
  weight for this iteration     100.00

 eigenvalues of (default mixing * dielectric matrix)
  average eigenvalue GAMMA=   0.9304
  0.9304

 Free energy of the ion-electron system (eV)
  ---------------------------------------------------
  alpha Z        PSCENC =        67.04771691
  Ewald energy   TEWEN  =     92678.46842815
  -Hartree energ DENC   =   -102748.77216322
  -exchange      EXHF   =         0.00000000
  -V(xc)+E(xc)   XCENC  =      1255.75681409
  PAW double counting   =     34985.46983514   -35112.73168846
  entropy T*S    EENTRO =        -0.00000000
  eigenvalues    EBANDS =     -4000.95643648
  atomic energy  EATOM  =     12253.25080269
  Solvation  Ediel_sol  =       -70.79475789
  ---------------------------------------------------
  free energy    TOTEN  =      -693.26144907 eV

  energy without entropy =     -693.26144907  energy(sigma->0) =     -693.26144907


--------------------------------------------------------------------------------------------------------




--------------------------------------- Iteration      1(   3)  ---------------------------------------


    POTLOK:  cpu time   43.8206: real time   43.9176
    SETDIJ:  cpu time    1.5475: real time    1.3529
    EDDIAG:  cpu time   12.4574: real time    9.4470
  RMM-DIIS:  cpu time  103.6198: real time   55.0007
    ORTHCH:  cpu time    0.3869: real time    0.1967
       DOS:  cpu time    0.0613: real time    0.0307
    CHARGE:  cpu time   18.9375: real time   15.8395
    MIXING:  cpu time    0.6733: real time    0.6754
    --------------------------------------------
      LOOP:  cpu time  181.5044: real time  126.4605

 eigenvalue-minimisations  :  2640
 total energy-change (2. order) : 0.1893814E-02  (-0.2550628E-02)
 number of electron     287.9999973 magnetization       0.4030299
 augmentation part        8.6316493 magnetization       0.3931765

 Broyden mixing:
  rms(total) = 0.28876E-01    rms(broyden)= 0.28873E-01
  rms(prec ) = 0.46658E-01
  weight for this iteration     100.00

 eigenvalues of (default mixing * dielectric matrix)
  average eigenvalue GAMMA=   1.1799
  0.7840  1.5757

 Free energy of the ion-electron system (eV)
  ---------------------------------------------------
  alpha Z        PSCENC =        67.04771691
  Ewald energy   TEWEN  =     92678.46842815
  -Hartree energ DENC   =   -102713.92757427
  -exchange      EXHF   =         0.00000000
  -V(xc)+E(xc)   XCENC  =      1255.56700038
  PAW double counting   =     34968.37724136   -35095.62032999
  entropy T*S    EENTRO =        -0.00000000
  eigenvalues    EBANDS =     -4007.52852069
  atomic energy  EATOM  =     12253.25080269
  Solvation  Ediel_sol  =       -98.89431981
  ---------------------------------------------------
  free energy    TOTEN  =      -693.25955526 eV

  energy without entropy =     -693.25955526  energy(sigma->0) =     -693.25955526


--------------------------------------------------------------------------------------------------------




--------------------------------------- Iteration      1(   4)  ---------------------------------------


    POTLOK:  cpu time   43.6618: real time   43.7589
    SETDIJ:  cpu time    3.0793: real time    2.8884
    EDDIAG:  cpu time   12.4414: real time    9.4475
  RMM-DIIS:  cpu time  103.8083: real time   55.0284
    ORTHCH:  cpu time    0.4065: real time    0.2058
       DOS:  cpu time    0.0407: real time    0.0204
    CHARGE:  cpu time   19.0210: real time   15.8827
    MIXING:  cpu time    0.7414: real time    0.7437
    --------------------------------------------
      LOOP:  cpu time  183.2004: real time  127.9756

 eigenvalue-minimisations  :  2640
 total energy-change (2. order) :-0.2574157E-01  (-0.2581124E-02)
 number of electron     287.9999973 magnetization       0.3489933
 augmentation part        8.6342935 magnetization       0.3424197

 Broyden mixing:
  rms(total) = 0.18017E-01    rms(broyden)= 0.18012E-01
  rms(prec ) = 0.33232E-01
  weight for this iteration     100.00

 eigenvalues of (default mixing * dielectric matrix)
  average eigenvalue GAMMA=   1.3377
  2.2911  1.0206  0.7014

 Free energy of the ion-electron system (eV)
  ---------------------------------------------------
  alpha Z        PSCENC =        67.04771691
  Ewald energy   TEWEN  =     92678.46842815
  -Hartree energ DENC   =   -102660.05356325
  -exchange      EXHF   =         0.00000000
  -V(xc)+E(xc)   XCENC  =      1255.25536136
  PAW double counting   =     34948.99552410   -35076.22768379
  entropy T*S    EENTRO =        -0.00000000
  eigenvalues    EBANDS =     -4016.13855704
  atomic energy  EATOM  =     12253.25080269
  Solvation  Ediel_sol  =      -143.88332596
  ---------------------------------------------------
  free energy    TOTEN  =      -693.28529683 eV

  energy without entropy =     -693.28529683  energy(sigma->0) =     -693.28529683


--------------------------------------------------------------------------------------------------------




--------------------------------------- Iteration      1(   5)  ---------------------------------------


    POTLOK:  cpu time   43.3420: real time   43.4382
    SETDIJ:  cpu time    2.6497: real time    2.4577
    EDDIAG:  cpu time   12.4472: real time    9.4463
  RMM-DIIS:  cpu time  103.7867: real time   55.0208
    ORTHCH:  cpu time    0.3929: real time    0.1991
       DOS:  cpu time    0.0563: real time    0.0282
    CHARGE:  cpu time   19.5154: real time   16.1182
    MIXING:  cpu time    0.7246: real time    0.7269
    --------------------------------------------
      LOOP:  cpu time  182.9148: real time  127.4354

 eigenvalue-minimisations  :  2640
 total energy-change (2. order) :-0.2095940E-01  (-0.1867135E-02)
 number of electron     287.9999973 magnetization       0.2986192
 augmentation part        8.6374187 magnetization       0.2949612

 Broyden mixing:
  rms(total) = 0.12873E-01    rms(broyden)= 0.12867E-01
  rms(prec ) = 0.23358E-01
  weight for this iteration     100.00

 eigenvalues of (default mixing * dielectric matrix)
  average eigenvalue GAMMA=   1.4592
  3.0073  1.3388  0.8454  0.6454

 Free energy of the ion-electron system (eV)
  ---------------------------------------------------
  alpha Z        PSCENC =        67.04771691
  Ewald energy   TEWEN  =     92678.46842815
  -Hartree energ DENC   =   -102602.29297609
  -exchange      EXHF   =         0.00000000
  -V(xc)+E(xc)   XCENC  =      1254.99179524
  PAW double counting   =     34938.92809707   -35066.16938233
  entropy T*S    EENTRO =        -0.00000000
  eigenvalues    EBANDS =     -4022.92952970
  atomic energy  EATOM  =     12253.25080269
  Solvation  Ediel_sol  =      -194.60120817
  ---------------------------------------------------
  free energy    TOTEN  =      -693.30625623 eV

  energy without entropy =     -693.30625623  energy(sigma->0) =     -693.30625623


--------------------------------------------------------------------------------------------------------




--------------------------------------- Iteration      1(   6)  ---------------------------------------


    POTLOK:  cpu time   43.0158: real time   43.1117
    SETDIJ:  cpu time    2.0265: real time    1.8330
    EDDIAG:  cpu time   12.4777: real time    9.4727
  RMM-DIIS:  cpu time  104.1924: real time   55.4265
    ORTHCH:  cpu time    0.4005: real time    0.2034
       DOS:  cpu time    0.0434: real time    0.0217
    CHARGE:  cpu time   19.1756: real time   16.0473
    MIXING:  cpu time    0.7331: real time    0.7351
    --------------------------------------------
      LOOP:  cpu time  182.0650: real time  126.8514

 eigenvalue-minimisations  :  2657
 total energy-change (2. order) :-0.1145996E-01  (-0.9047018E-03)
 number of electron     287.9999973 magnetization       0.2480809
 augmentation part        8.6399494 magnetization       0.2456624

 Broyden mixing:
  rms(total) = 0.10046E-01    rms(broyden)= 0.10042E-01
  rms(prec ) = 0.16365E-01
  weight for this iteration     100.00

 eigenvalues of (default mixing * dielectric matrix)
  average eigenvalue GAMMA=   1.5415
  3.4778  1.8289  1.0126  0.7636  0.6245

 Free energy of the ion-electron system (eV)
  ---------------------------------------------------
  alpha Z        PSCENC =        67.04771691
  Ewald energy   TEWEN  =     92678.46842815
  -Hartree energ DENC   =   -102555.72747992
  -exchange      EXHF   =         0.00000000
  -V(xc)+E(xc)   XCENC  =      1254.84418363
  PAW double counting   =     34940.06249696   -35067.32149559
  entropy T*S    EENTRO =        -0.00000000
  eigenvalues    EBANDS =     -4026.23917984
  atomic energy  EATOM  =     12253.25080269
  Solvation  Ediel_sol  =      -237.70318917
  ---------------------------------------------------
  free energy    TOTEN  =      -693.31771618 eV

  energy without entropy =     -693.31771618  energy(sigma->0) =     -693.31771618


--------------------------------------------------------------------------------------------------------




--------------------------------------- Iteration      1(   7)  ---------------------------------------


    POTLOK:  cpu time   43.1565: real time   43.2491
    SETDIJ:  cpu time    1.9418: real time    1.7481
    EDDIAG:  cpu time   12.4254: real time    9.4554
  RMM-DIIS:  cpu time  105.0281: real time   55.7776
    ORTHCH:  cpu time    0.3891: real time    0.1978
       DOS:  cpu time    0.0584: real time    0.0293
    CHARGE:  cpu time   19.0078: real time   15.8726
    MIXING:  cpu time    0.7189: real time    0.7212
    --------------------------------------------
      LOOP:  cpu time  182.7261: real time  127.0511

 eigenvalue-minimisations  :  2664
 total energy-change (2. order) :-0.4893550E-02  (-0.6002137E-03)
 number of electron     287.9999972 magnetization       0.2028834
 augmentation part        8.6412606 magnetization       0.2012682

 Broyden mixing:
  rms(total) = 0.72522E-02    rms(broyden)= 0.72500E-02
  rms(prec ) = 0.10419E-01
  weight for this iteration     100.00

 eigenvalues of (default mixing * dielectric matrix)
  average eigenvalue GAMMA=   1.7048
  4.2842  2.4174  1.2904  0.9084  0.7184  0.6099

 Free energy of the ion-electron system (eV)
  ---------------------------------------------------
  alpha Z        PSCENC =        67.04771691
  Ewald energy   TEWEN  =     92678.46842815
  -Hartree energ DENC   =   -102517.27195308
  -exchange      EXHF   =         0.00000000
  -V(xc)+E(xc)   XCENC  =      1254.77972393
  PAW double counting   =     34949.38234167   -35076.66159568
  entropy T*S    EENTRO =        -0.00000000
  eigenvalues    EBANDS =     -4026.99325935
  atomic energy  EATOM  =     12253.25080269
  Solvation  Ediel_sol  =      -275.32481497
  ---------------------------------------------------
  free energy    TOTEN  =      -693.32260973 eV

  energy without entropy =     -693.32260973  energy(sigma->0) =     -693.32260973


--------------------------------------------------------------------------------------------------------




--------------------------------------- Iteration      1(   8)  ---------------------------------------


    POTLOK:  cpu time   42.3909: real time   42.4815
    SETDIJ:  cpu time    1.4180: real time    1.2232
    EDDIAG:  cpu time   12.4996: real time    9.4722
  RMM-DIIS:  cpu time  131.0818: real time   70.8106
    ORTHCH:  cpu time    0.3868: real time    0.1966
       DOS:  cpu time    0.0597: real time    0.0299
    CHARGE:  cpu time   19.1560: real time   15.9572
    MIXING:  cpu time    0.7522: real time    0.7545
    --------------------------------------------
      LOOP:  cpu time  207.7450: real time  140.9258

 eigenvalue-minimisations  :  3681
 total energy-change (2. order) : 0.5296109E-02  (-0.6128939E-03)
 number of electron     287.9999972 magnetization       0.1714130
 augmentation part        8.6419041 magnetization       0.1705803

 Broyden mixing:
  rms(total) = 0.48794E-02    rms(broyden)= 0.48780E-02
  rms(prec ) = 0.60508E-02
  weight for this iteration     100.00

 eigenvalues of (default mixing * dielectric matrix)
  average eigenvalue GAMMA=   1.8833
  5.5470  2.7200  1.6913  1.0669  0.8435  0.7055  0.6090

 Free energy of the ion-electron system (eV)
  ---------------------------------------------------
  alpha Z        PSCENC =        67.04771691
  Ewald energy   TEWEN  =     92678.46842815
  -Hartree energ DENC   =   -102489.51283252
  -exchange      EXHF   =         0.00000000
  -V(xc)+E(xc)   XCENC  =      1254.75889049
  PAW double counting   =     34959.39177912   -35086.68244242
  entropy T*S    EENTRO =        -0.00000000
  eigenvalues    EBANDS =     -4026.75158299
  atomic energy  EATOM  =     12253.25080269
  Solvation  Ediel_sol  =      -303.28807305
  ---------------------------------------------------
  free energy    TOTEN  =      -693.31731363 eV

  energy without entropy =     -693.31731363  energy(sigma->0) =     -693.31731363


--------------------------------------------------------------------------------------------------------




--------------------------------------- Iteration      1(   9)  ---------------------------------------


    POTLOK:  cpu time   42.1449: real time   42.2357
    SETDIJ:  cpu time    1.8300: real time    1.6361
    EDDIAG:  cpu time   12.5045: real time    9.4756
  RMM-DIIS:  cpu time  127.1727: real time   67.7344
    ORTHCH:  cpu time    0.3896: real time    0.1980
       DOS:  cpu time    0.0598: real time    0.0299
    CHARGE:  cpu time   19.0429: real time   15.9086
    MIXING:  cpu time    0.7478: real time    0.7500
    --------------------------------------------
      LOOP:  cpu time  203.8922: real time  137.9683

 eigenvalue-minimisations  :  3513
 total energy-change (2. order) : 0.8256027E-02  (-0.5158626E-03)
 number of electron     287.9999972 magnetization       0.1514582
 augmentation part        8.6422635 magnetization       0.1509163

 Broyden mixing:
  rms(total) = 0.31420E-02    rms(broyden)= 0.31416E-02
  rms(prec ) = 0.35822E-02
  weight for this iteration     100.00

 eigenvalues of (default mixing * dielectric matrix)
  average eigenvalue GAMMA=   1.9897
  6.8437  2.9630  1.9195  1.2006  0.9118  0.7820  0.6869  0.6100

 Free energy of the ion-electron system (eV)
  ---------------------------------------------------
  alpha Z        PSCENC =        67.04771691
  Ewald energy   TEWEN  =     92678.46842815
  -Hartree energ DENC   =   -102476.40094805
  -exchange      EXHF   =         0.00000000
  -V(xc)+E(xc)   XCENC  =      1254.76278406
  PAW double counting   =     34965.22406960   -35092.51601029
  entropy T*S    EENTRO =        -0.00000000
  eigenvalues    EBANDS =     -4026.21628075
  atomic energy  EATOM  =     12253.25080269
  Solvation  Ediel_sol  =      -316.92961992
  ---------------------------------------------------
  free energy    TOTEN  =      -693.30905760 eV

  energy without entropy =     -693.30905760  energy(sigma->0) =     -693.30905760


--------------------------------------------------------------------------------------------------------




--------------------------------------- Iteration      1(  10)  ---------------------------------------


    POTLOK:  cpu time   41.0096: real time   41.0975
    SETDIJ:  cpu time    2.4113: real time    2.2186
    EDDIAG:  cpu time   12.5207: real time    9.4861
  RMM-DIIS:  cpu time  127.2722: real time   68.0148
    ORTHCH:  cpu time    0.3959: real time    0.2009
       DOS:  cpu time    0.0492: real time    0.0247
    CHARGE:  cpu time   19.0196: real time   15.9014
    MIXING:  cpu time    0.7510: real time    0.7533
    --------------------------------------------
      LOOP:  cpu time  203.4296: real time  137.6973

 eigenvalue-minimisations  :  3501
 total energy-change (2. order) : 0.5777884E-02  (-0.3632044E-03)
 number of electron     287.9999972 magnetization       0.1346224
 augmentation part        8.6424300 magnetization       0.1342492

 Broyden mixing:
  rms(total) = 0.23579E-02    rms(broyden)= 0.23578E-02
  rms(prec ) = 0.25727E-02
  weight for this iteration     100.00

 eigenvalues of (default mixing * dielectric matrix)
  average eigenvalue GAMMA=   2.1070
  8.2702  3.1122  2.1385  1.4870  1.1141  0.8589  0.7180  0.6131  0.6510

 Free energy of the ion-electron system (eV)
  ---------------------------------------------------
  alpha Z        PSCENC =        67.04771691
  Ewald energy   TEWEN  =     92678.46842815
  -Hartree energ DENC   =   -102471.71357669
  -exchange      EXHF   =         0.00000000
  -V(xc)+E(xc)   XCENC  =      1254.77360735
  PAW double counting   =     34966.91281609   -35094.20377885
  entropy T*S    EENTRO =        -0.00000000
  eigenvalues    EBANDS =     -4025.79010131
  atomic energy  EATOM  =     12253.25080269
  Solvation  Ediel_sol  =      -322.04919406
  ---------------------------------------------------
  free energy    TOTEN  =      -693.30327972 eV

  energy without entropy =     -693.30327972  energy(sigma->0) =     -693.30327972


--------------------------------------------------------------------------------------------------------




--------------------------------------- Iteration      1(  11)  ---------------------------------------


    POTLOK:  cpu time   40.2067: real time   40.2918
    SETDIJ:  cpu time    1.9561: real time    1.7625
    EDDIAG:  cpu time   12.4302: real time    9.4538
  RMM-DIIS:  cpu time  127.0475: real time   67.9482
    ORTHCH:  cpu time    0.4009: real time    0.2035
       DOS:  cpu time    0.0444: real time    0.0222
    CHARGE:  cpu time   19.0827: real time   15.9549
    MIXING:  cpu time    0.7599: real time    0.7622
    --------------------------------------------
      LOOP:  cpu time  201.9284: real time  136.3991

 eigenvalue-minimisations  :  3499
 total energy-change (2. order) : 0.4116930E-02  (-0.3116674E-03)
 number of electron     287.9999972 magnetization       0.1156600
 augmentation part        8.6424454 magnetization       0.1153586

 Broyden mixing:
  rms(total) = 0.18499E-02    rms(broyden)= 0.18498E-02
  rms(prec ) = 0.19670E-02
  weight for this iteration     100.00

 eigenvalues of (default mixing * dielectric matrix)
  average eigenvalue GAMMA=   2.1496
  9.0705  3.3008  2.4008  1.7621  1.1249  1.0330  0.8378  0.7120  0.6134  0.6405

 Free energy of the ion-electron system (eV)
  ---------------------------------------------------
  alpha Z        PSCENC =        67.04771691
  Ewald energy   TEWEN  =     92678.46842815
  -Hartree energ DENC   =   -102469.81097794
  -exchange      EXHF   =         0.00000000
  -V(xc)+E(xc)   XCENC  =      1254.78435532
  PAW double counting   =     34966.86266146   -35094.15237144
  entropy T*S    EENTRO =        -0.00000000
  eigenvalues    EBANDS =     -4025.47624123
  atomic energy  EATOM  =     12253.25080269
  Solvation  Ediel_sol  =      -324.27353671
  ---------------------------------------------------
  free energy    TOTEN  =      -693.29916279 eV

  energy without entropy =     -693.29916279  energy(sigma->0) =     -693.29916279


--------------------------------------------------------------------------------------------------------




--------------------------------------- Iteration      1(  12)  ---------------------------------------


    POTLOK:  cpu time   39.8372: real time   39.9235
    SETDIJ:  cpu time    1.3586: real time    1.1634
    EDDIAG:  cpu time   12.4577: real time    9.4692
  RMM-DIIS:  cpu time  127.2222: real time   67.7376
    ORTHCH:  cpu time    0.3956: real time    0.2011
       DOS:  cpu time    0.0492: real time    0.0247
    CHARGE:  cpu time   19.0688: real time   15.9058
    MIXING:  cpu time    0.7401: real time    0.7422
    --------------------------------------------
      LOOP:  cpu time  201.1295: real time  135.1675

 eigenvalue-minimisations  :  3504
 total energy-change (2. order) : 0.3258923E-02  (-0.3869914E-03)
 number of electron     287.9999972 magnetization       0.0944959
 augmentation part        8.6423591 magnetization       0.0942667

 Broyden mixing:
  rms(total) = 0.14961E-02    rms(broyden)= 0.14961E-02
  rms(prec ) = 0.15471E-02
  weight for this iteration     100.00

 eigenvalues of (default mixing * dielectric matrix)
  average eigenvalue GAMMA=   2.2147
  9.6126  3.9191  2.6187  2.0572  1.3248  1.1823  0.9085  0.7877  0.7056  0.6223
  0.6223

 Free energy of the ion-electron system (eV)
  ---------------------------------------------------
  alpha Z        PSCENC =        67.04771691
  Ewald energy   TEWEN  =     92678.46842815
  -Hartree energ DENC   =   -102469.22222835
  -exchange      EXHF   =         0.00000000
  -V(xc)+E(xc)   XCENC  =      1254.79520966
  PAW double counting   =     34966.14135159   -35093.42988482
  entropy T*S    EENTRO =        -0.00000000
  eigenvalues    EBANDS =     -4025.19826109
  atomic energy  EATOM  =     12253.25080269
  Solvation  Ediel_sol  =      -325.14903859
  ---------------------------------------------------
  free energy    TOTEN  =      -693.29590386 eV

  energy without entropy =     -693.29590386  energy(sigma->0) =     -693.29590386


--------------------------------------------------------------------------------------------------------




--------------------------------------- Iteration      1(  13)  ---------------------------------------


    POTLOK:  cpu time   39.5869: real time   39.6730
    SETDIJ:  cpu time    1.9690: real time    1.7754
    EDDIAG:  cpu time   12.3629: real time    9.4237
  RMM-DIIS:  cpu time  127.0410: real time   67.6570
    ORTHCH:  cpu time    0.3905: real time    0.1983
       DOS:  cpu time    0.0561: real time    0.0281
    CHARGE:  cpu time   19.0339: real time   15.8981
    MIXING:  cpu time    0.7281: real time    0.7303
    --------------------------------------------
      LOOP:  cpu time  201.1684: real time  135.3839

 eigenvalue-minimisations  :  3504
 total energy-change (2. order) : 0.2540675E-02  (-0.5859577E-03)
 number of electron     287.9999972 magnetization       0.0727469
 augmentation part        8.6422691 magnetization       0.0725785

 Broyden mixing:
  rms(total) = 0.11927E-02    rms(broyden)= 0.11927E-02
  rms(prec ) = 0.12128E-02
  weight for this iteration     100.00

 eigenvalues of (default mixing * dielectric matrix)
  average eigenvalue GAMMA=   2.3004
 10.2637  4.8489  2.8973  2.2235  1.6187  1.0972  1.0972  0.8698  0.7485  0.6999
  0.6201  0.6201

 Free energy of the ion-electron system (eV)
  ---------------------------------------------------
  alpha Z        PSCENC =        67.04771691
  Ewald energy   TEWEN  =     92678.46842815
  -Hartree energ DENC   =   -102469.14908591
  -exchange      EXHF   =         0.00000000
  -V(xc)+E(xc)   XCENC  =      1254.80413888
  PAW double counting   =     34965.46479397   -35092.75276308
  entropy T*S    EENTRO =        -0.00000000
  eigenvalues    EBANDS =     -4024.99307698
  atomic energy  EATOM  =     12253.25080269
  Solvation  Ediel_sol  =      -325.43431782
  ---------------------------------------------------
  free energy    TOTEN  =      -693.29336319 eV

  energy without entropy =     -693.29336319  energy(sigma->0) =     -693.29336319


--------------------------------------------------------------------------------------------------------




--------------------------------------- Iteration      1(  14)  ---------------------------------------


    POTLOK:  cpu time   39.4297: real time   39.5151
    SETDIJ:  cpu time    2.6096: real time    2.4175
    EDDIAG:  cpu time   12.4026: real time    9.4433
  RMM-DIIS:  cpu time  123.2709: real time   66.1890
    ORTHCH:  cpu time    0.3863: real time    0.1961
       DOS:  cpu time    0.0601: real time    0.0301
    CHARGE:  cpu time   19.0569: real time   15.8896
    MIXING:  cpu time    0.7586: real time    0.7609
    --------------------------------------------
      LOOP:  cpu time  197.9747: real time  134.4416

 eigenvalue-minimisations  :  3361
 total energy-change (2. order) : 0.1748229E-02  (-0.5361561E-03)
 number of electron     287.9999972 magnetization       0.0541669
 augmentation part        8.6422324 magnetization       0.0539935

 Broyden mixing:
  rms(total) = 0.93152E-03    rms(broyden)= 0.93148E-03
  rms(prec ) = 0.95218E-03
  weight for this iteration     100.00

 eigenvalues of (default mixing * dielectric matrix)
  average eigenvalue GAMMA=   2.3877
 10.9890  5.9301  3.1419  2.2450  1.9027  1.2218  1.2218  0.9294  0.8077  0.7166
  0.6898  0.6178  0.6269

 Free energy of the ion-electron system (eV)
  ---------------------------------------------------
  alpha Z        PSCENC =        67.04771691
  Ewald energy   TEWEN  =     92678.46842815
  -Hartree energ DENC   =   -102469.25781855
  -exchange      EXHF   =         0.00000000
  -V(xc)+E(xc)   XCENC  =      1254.80875406
  PAW double counting   =     34965.01371880   -35092.30154388
  entropy T*S    EENTRO =        -0.00000000
  eigenvalues    EBANDS =     -4024.92601469
  atomic energy  EATOM  =     12253.25080269
  Solvation  Ediel_sol  =      -325.39565846
  ---------------------------------------------------
  free energy    TOTEN  =      -693.29161496 eV

  energy without entropy =     -693.29161496  energy(sigma->0) =     -693.29161496


--------------------------------------------------------------------------------------------------------




--------------------------------------- Iteration      1(  15)  ---------------------------------------


    POTLOK:  cpu time   38.5894: real time   38.6728
    SETDIJ:  cpu time    2.2672: real time    2.0742
    EDDIAG:  cpu time   12.4478: real time    9.4661
  RMM-DIIS:  cpu time  127.6847: real time   67.4171
    ORTHCH:  cpu time    0.4032: real time    0.2026
       DOS:  cpu time    0.0458: real time    0.0229
    CHARGE:  cpu time   19.1038: real time   15.8856
    MIXING:  cpu time    0.7723: real time    0.7746
    --------------------------------------------
      LOOP:  cpu time  201.3142: real time  134.5159

 eigenvalue-minimisations  :  3521
 total energy-change (2. order) : 0.9069261E-03  (-0.3970068E-03)
 number of electron     287.9999972 magnetization       0.0355476
 augmentation part        8.6422433 magnetization       0.0353778

 Broyden mixing:
  rms(total) = 0.71769E-03    rms(broyden)= 0.71763E-03
  rms(prec ) = 0.74728E-03
  weight for this iteration     100.00

 eigenvalues of (default mixing * dielectric matrix)
  average eigenvalue GAMMA=   2.4915
 11.8808  7.1207  3.3083  2.3075  2.3075  1.4574  1.0912  1.0912  0.9114  0.7919
  0.7134  0.6575  0.6210  0.6210

 Free energy of the ion-electron system (eV)
  ---------------------------------------------------
  alpha Z        PSCENC =        67.04771691
  Ewald energy   TEWEN  =     92678.46842815
  -Hartree energ DENC   =   -102469.42037906
  -exchange      EXHF   =         0.00000000
  -V(xc)+E(xc)   XCENC  =      1254.80998964
  PAW double counting   =     34964.99110438   -35092.27882824
  entropy T*S    EENTRO =        -0.00000000
  eigenvalues    EBANDS =     -4024.95202420
  atomic energy  EATOM  =     12253.25080269
  Solvation  Ediel_sol  =      -325.20751830
  ---------------------------------------------------
  free energy    TOTEN  =      -693.29070803 eV

  energy without entropy =     -693.29070803  energy(sigma->0) =     -693.29070803


--------------------------------------------------------------------------------------------------------




--------------------------------------- Iteration      1(  16)  ---------------------------------------


    POTLOK:  cpu time   37.9433: real time   38.0280
    SETDIJ:  cpu time    1.4378: real time    1.2429
    EDDIAG:  cpu time   12.4602: real time    9.4739
  RMM-DIIS:  cpu time  103.8424: real time   55.1458
    ORTHCH:  cpu time    0.3979: real time    0.2024
       DOS:  cpu time    0.0444: real time    0.0223
    CHARGE:  cpu time   19.1712: real time   15.9437
    MIXING:  cpu time    0.7713: real time    0.7736
    --------------------------------------------
      LOOP:  cpu time  176.0686: real time  120.8326

 eigenvalue-minimisations  :  2653
 total energy-change (2. order) : 0.7263177E-03  (-0.2578401E-03)
 number of electron     287.9999972 magnetization       0.0160844
 augmentation part        8.6422639 magnetization       0.0159293

 Broyden mixing:
  rms(total) = 0.49834E-03    rms(broyden)= 0.49827E-03
  rms(prec ) = 0.53502E-03
  weight for this iteration     100.00

 eigenvalues of (default mixing * dielectric matrix)
  average eigenvalue GAMMA=   2.6674
 13.4117  8.2442  3.8002  2.8414  2.2818  1.7348  1.2950  1.1279  1.0144  0.8826
  0.7798  0.7083  0.6492  0.6200  0.6200

 Free energy of the ion-electron system (eV)
  ---------------------------------------------------
  alpha Z        PSCENC =        67.04771691
  Ewald energy   TEWEN  =     92678.46842815
  -Hartree energ DENC   =   -102469.63227804
  -exchange      EXHF   =         0.00000000
  -V(xc)+E(xc)   XCENC  =      1254.81037132
  PAW double counting   =     34965.22783018   -35092.51557635
  entropy T*S    EENTRO =        -0.00000000
  eigenvalues    EBANDS =     -4024.99609324
  atomic energy  EATOM  =     12253.25080269
  Solvation  Ediel_sol  =      -324.95118333
  ---------------------------------------------------
  free energy    TOTEN  =      -693.28998172 eV

  energy without entropy =     -693.28998172  energy(sigma->0) =     -693.28998172


--------------------------------------------------------------------------------------------------------




--------------------------------------- Iteration      1(  17)  ---------------------------------------


    POTLOK:  cpu time   38.5350: real time   38.6166
    SETDIJ:  cpu time    1.7103: real time    1.5160
    EDDIAG:  cpu time   12.4913: real time    9.4840
  RMM-DIIS:  cpu time  103.6520: real time   55.0626
    ORTHCH:  cpu time    0.3910: real time    0.1983
       DOS:  cpu time    0.0593: real time    0.0297
    CHARGE:  cpu time   19.1100: real time   15.9345
    MIXING:  cpu time    0.7521: real time    0.7543
    --------------------------------------------
      LOOP:  cpu time  176.7009: real time  121.5959

 eigenvalue-minimisations  :  2641
 total energy-change (2. order) : 0.4620789E-03  (-0.8872371E-04)
 number of electron     287.9999972 magnetization       0.0086874
 augmentation part        8.6422624 magnetization       0.0085844

 Broyden mixing:
  rms(total) = 0.28041E-03    rms(broyden)= 0.28036E-03
  rms(prec ) = 0.31984E-03
  weight for this iteration     100.00

 eigenvalues of (default mixing * dielectric matrix)
  average eigenvalue GAMMA=   2.8184
 15.7487  8.9425  4.5278  2.9276  2.3562  1.9751  1.3633  1.0712  1.0712  0.9575
  0.8193  0.7587  0.6963  0.6174  0.6240  0.6368

 Free energy of the ion-electron system (eV)
  ---------------------------------------------------
  alpha Z        PSCENC =        67.04771691
  Ewald energy   TEWEN  =     92678.46842815
  -Hartree energ DENC   =   -102469.83106171
  -exchange      EXHF   =         0.00000000
  -V(xc)+E(xc)   XCENC  =      1254.80986825
  PAW double counting   =     34965.42645604   -35092.71454142
  entropy T*S    EENTRO =        -0.00000000
  eigenvalues    EBANDS =     -4025.05643756
  atomic energy  EATOM  =     12253.25080269
  Solvation  Ediel_sol  =      -324.69075098
  ---------------------------------------------------
  free energy    TOTEN  =      -693.28951964 eV

  energy without entropy =     -693.28951964  energy(sigma->0) =     -693.28951964


--------------------------------------------------------------------------------------------------------




--------------------------------------- Iteration      1(  18)  ---------------------------------------


    POTLOK:  cpu time   37.3452: real time   37.4297
    SETDIJ:  cpu time    2.3277: real time    2.1350
    EDDIAG:  cpu time   12.4101: real time    9.4453
  RMM-DIIS:  cpu time   92.7421: real time   49.2834
    ORTHCH:  cpu time    0.3936: real time    0.2000
       DOS:  cpu time    0.0530: real time    0.0266
    CHARGE:  cpu time   19.1155: real time   15.9228
    MIXING:  cpu time    0.7624: real time    0.7647
    --------------------------------------------
      LOOP:  cpu time  165.1496: real time  115.2074

 eigenvalue-minimisations  :  2241
 total energy-change (2. order) : 0.4231091E-04  (-0.5666172E-05)
 number of electron     287.9999972 magnetization       0.0038250
 augmentation part        8.6422679 magnetization       0.0037607

 Broyden mixing:
  rms(total) = 0.17545E-03    rms(broyden)= 0.17543E-03
  rms(prec ) = 0.21360E-03
  weight for this iteration     100.00

 eigenvalues of (default mixing * dielectric matrix)
  average eigenvalue GAMMA=   2.9145
 17.6191  9.2629  5.0364  3.0319  2.4583  2.1600  1.4113  1.4113  1.1274  0.9669
  0.9669  0.8028  0.7282  0.6893  0.6157  0.6289  0.6289

 Free energy of the ion-electron system (eV)
  ---------------------------------------------------
  alpha Z        PSCENC =        67.04771691
  Ewald energy   TEWEN  =     92678.46842815
  -Hartree energ DENC   =   -102469.89245879
  -exchange      EXHF   =         0.00000000
  -V(xc)+E(xc)   XCENC  =      1254.80910564
  PAW double counting   =     34965.38742105   -35092.67559469
  entropy T*S    EENTRO =        -0.00000000
  eigenvalues    EBANDS =     -4025.07903690
  atomic energy  EATOM  =     12253.25080269
  Solvation  Ediel_sol  =      -324.60586139
  ---------------------------------------------------
  free energy    TOTEN  =      -693.28947733 eV

  energy without entropy =     -693.28947733  energy(sigma->0) =     -693.28947733


--------------------------------------------------------------------------------------------------------




--------------------------------------- Iteration      1(  19)  ---------------------------------------


    POTLOK:  cpu time   37.6323: real time   37.7118
    SETDIJ:  cpu time    2.3964: real time    2.2038
    EDDIAG:  cpu time   12.4250: real time    9.4534
  RMM-DIIS:  cpu time   83.2790: real time   44.0938
    ORTHCH:  cpu time    0.3937: real time    0.2002
[...]
   -.125E+00 -.797E+00 0.717E-05   0.104E+00 0.139E+01 -.105E-17   -.527E-02 -.187E+00 0.000E+00   0.428E-02 0.323E-02 -.341E-07
   -.159E-02 -.505E-03 0.142E-06   -.109E-08 -.785E-03 0.122E-17   -.136E-19 -.136E-19 0.000E+00   -.760E-07 -.887E-07 -.293E-10
   0.750E+00 0.291E+00 0.235E-05   -.126E+01 -.608E+00 0.118E-17   0.165E+00 0.889E-01 0.000E+00   -.494E-02 0.209E-02 0.535E-07
   0.327E+01 0.189E+01 -.122E-04   -.501E+01 -.289E+01 0.234E-17   0.710E+00 0.410E+00 0.000E+00   -.217E-01 -.126E-01 0.245E-07
   0.123E+02 0.250E+01 -.206E-05   -.165E+02 -.352E+01 0.270E-17   0.234E+01 0.101E+01 0.000E+00   -.113E-01 0.202E-02 0.593E-07
   0.399E+01 -.119E+02 -.170E-04   -.520E+01 0.160E+02 0.150E-17   0.294E+00 -.253E+01 0.000E+00   -.742E-02 0.881E-02 0.426E-07
   -.161E-02 -.378E+01 0.265E-04   0.135E-08 0.579E+01 -.101E-17   0.000E+00 -.820E+00 0.000E+00   -.385E-07 0.251E-01 -.635E-07
   0.122E+00 -.797E+00 -.561E-07   -.104E+00 0.139E+01 -.556E-18   0.527E-02 -.187E+00 0.000E+00   -.428E-02 0.323E-02 -.618E-07
   0.335E+00 -.195E+00 0.568E-05   -.370E+00 0.213E+00 -.203E-17   0.411E-01 -.237E-01 0.000E+00   -.102E-01 0.589E-02 0.138E-06
   0.145E+01 0.139E+01 0.492E-05   -.226E+01 -.255E+01 0.474E-18   0.352E+00 0.352E+00 0.000E+00   -.874E-02 -.975E-03 -.205E-06
   0.833E+01 0.942E+01 0.115E-04   -.113E+02 -.125E+02 0.156E-17   0.205E+01 0.152E+01 0.000E+00   -.392E-02 -.108E-01 -.471E-07
   -.400E+01 -.119E+02 0.164E-04   0.520E+01 0.160E+02 -.157E-17   -.294E+00 -.253E+01 0.000E+00   0.742E-02 0.881E-02 0.130E-08
   -.475E+00 -.195E+01 0.317E-05   0.107E+01 0.323E+01 -.289E-17   -.129E+00 -.481E+00 0.000E+00   -.352E-02 0.805E-02 -.140E-07
   -.196E+00 -.510E+00 0.167E-05   0.622E+00 0.836E+00 -.353E-17   -.742E-01 -.102E+00 0.106E-21   -.182E-01 -.317E-02 0.101E-06
   0.343E+00 0.423E+00 -.614E-07   -.414E+00 -.958E+00 -.113E-17   0.516E-01 0.116E+00 -.529E-22   -.634E-02 0.173E-01 -.157E-06
   -.160E-02 0.323E+01 0.292E-04   -.108E-08 -.500E+01 -.190E-18   0.000E+00 0.561E+00 0.000E+00   0.159E-06 0.335E-02 -.110E-06
   -.833E+01 0.942E+01 -.611E-05   0.113E+02 -.125E+02 0.490E-19   -.205E+01 0.152E+01 0.000E+00   0.392E-02 -.108E-01 -.560E-07
   -.123E+02 0.250E+01 -.270E-05   0.165E+02 -.352E+01 -.180E-17   -.234E+01 0.101E+01 0.000E+00   0.113E-01 0.202E-02 -.332E-10
   -.280E+01 -.162E+01 -.119E-04   0.433E+01 0.250E+01 -.317E-17   -.486E+00 -.280E+00 0.000E+00   -.290E-02 -.168E-02 0.338E-07
   -.540E+00 0.862E-01 -.726E-06   0.104E+01 0.120E+00 -.223E-17   -.126E+00 -.131E-01 0.000E+00   -.118E-01 -.142E-01 -.888E-07
   -.159E-02 -.516E-03 0.188E-06   0.132E-08 -.767E-03 -.171E-17   -.271E-19 0.000E+00 0.000E+00   0.491E-07 -.704E-09 -.589E-11
   -.346E+00 0.423E+00 0.812E-05   0.414E+00 -.958E+00 0.272E-18   -.516E-01 0.116E+00 0.000E+00   0.634E-02 0.173E-01 -.291E-07
   -.146E+01 0.139E+01 -.107E-05   0.226E+01 -.255E+01 -.114E-17   -.352E+00 0.352E+00 0.265E-22   0.874E-02 -.975E-03 -.413E-07
   -.327E+01 0.189E+01 -.148E-04   0.501E+01 -.289E+01 -.981E-18   -.710E+00 0.410E+00 0.662E-23   0.217E-01 -.126E-01 0.390E-07
   -.193E+01 0.566E+00 -.136E-06   0.334E+01 -.688E+00 -.182E-17   -.481E+00 0.129E+00 -.265E-22   0.521E-02 -.708E-02 0.138E-07
   -.160E-02 0.388E+00 0.910E-05   -.283E-09 -.428E+00 0.101E-17   0.000E+00 0.475E-01 0.000E+00   -.972E-08 -.118E-01 -.149E-06
   0.537E+00 0.862E-01 -.389E-05   -.104E+01 0.120E+00 0.233E-17   0.126E+00 -.131E-01 0.106E-21   0.118E-01 -.142E-01 0.124E-06
   0.193E+00 -.510E+00 -.427E-05   -.622E+00 0.836E+00 0.124E-17   0.742E-01 -.102E+00 0.000E+00   0.182E-01 -.317E-02 0.490E-07
   -.338E+00 -.195E+00 -.146E-04   0.370E+00 0.213E+00 0.594E-18   -.411E-01 -.237E-01 -.265E-22   0.102E-01 0.589E-02 0.105E-07
   -.754E+00 0.291E+00 -.380E-05   0.126E+01 -.608E+00 -.114E-17   -.165E+00 0.889E-01 0.000E+00   0.494E-02 0.209E-02 0.623E-07
   -.630E+00 0.505E+00 -.347E-05   0.116E+01 -.788E+00 0.385E-18   -.159E+00 0.981E-01 0.000E+00   0.657E-03 -.533E-02 0.341E-07
   -.279E-02 -.109E-02 0.117E-07   -.145E-09 -.870E-03 0.605E-18   0.163E-18 0.949E-19 0.000E+00   0.143E-07 -.687E-07 -.407E-10
 -----------------------------------------------------------------------------------------------
   -.564E-01 -.357E-01 0.476E-07   0.705E-13 0.531E-13 0.000E+00   -.164E-14 -.860E-15 0.173E-21   0.134E-08 -.126E-06 -.557E-09
 
 
 POSITION                                       TOTAL-FORCE (eV/Angst)
 -----------------------------------------------------------------------------------
      1.25646     -0.72500     17.55733        -0.004718     -0.002724     -0.000000
      2.51147      1.45132     17.55733         0.002860      0.002513     -0.000000
      3.76405      3.63026     17.55733        -0.007651     -0.003740     -0.000000
      5.01860      5.80321     17.55733        -0.000587      0.008496     -0.000000
      6.27932      7.97746     17.55733        -0.000746     -0.003733     -0.000000
      7.53656     10.15249     17.55733         0.000000      0.005448     -0.000000
      2.51284     -2.90121     17.55733         0.004754     -0.002745     -0.000000
      3.76870     -0.72628     17.55733         0.003606      0.001220      0.000000
      5.01972      1.44773     17.55733        -0.006717     -0.003878     -0.000000
      6.24368      3.64728     17.55733         0.002408     -0.001390     -0.000000
      7.53656      5.80703     17.55733         0.000000      0.007756      0.000000
      8.79379      7.97746     17.55733         0.000746     -0.003733     -0.000000
      3.76961     -5.07663     17.55733         0.002098     -0.006250     -0.000000
      5.02519     -2.90190     17.55733         0.006462      0.001308     -0.000000
      6.28201     -0.73098     17.55733        -0.007064     -0.004756     -0.000000
      7.53656      1.40795     17.55733         0.000000      0.002780     -0.000000
      8.82943      3.64728     17.55733        -0.002408     -0.001390      0.000000
     10.05451      5.80321     17.55733         0.000587      0.008496     -0.000000
      5.02678     -7.25069     17.55733         0.008142      0.004701     -0.000000
      6.28092     -5.07672     17.55733         0.010728     -0.006194     -0.000000
      7.53656     -2.90362     17.55733         0.000000     -0.009402     -0.000000
      8.79110     -0.73098     17.55733         0.007064     -0.004756      0.000000
     10.05339      1.44773     17.55733         0.006717     -0.003878     -0.000000
     11.30906      3.63026     17.55733         0.007651     -0.003740      0.000000
      6.28098     -9.42647     17.55733        -0.004364      0.004942     -0.000000
      7.53656     -7.25156     17.55733         0.000000      0.012387     -0.000000
      8.79219     -5.07672     17.55733        -0.010728     -0.006194     -0.000000
     10.04792     -2.90190     17.55733        -0.006462      0.001308     -0.000000
     11.30441     -0.72628     17.55733        -0.003606      0.001220     -0.000000
     12.56164      1.45132     17.55733        -0.002860      0.002513     -0.000000
      7.53656    -11.60258     17.55733         0.000000      0.005489     -0.000000
      8.79213     -9.42647     17.55733         0.004364      0.004942     -0.000000
     10.04633     -7.25069     17.55733        -0.008142      0.004701     -0.000000
     11.30350     -5.07663     17.55733        -0.002098     -0.006250      0.000000
     12.56027     -2.90121     17.55733        -0.004754     -0.002745     -0.000000
     13.81665     -0.72500     17.55733         0.004718     -0.002724     -0.000000
      1.25763      0.72648     17.55733         0.003139     -0.002832     -0.000000
      2.51649      2.90183     17.55733         0.005441     -0.001938     -0.000000
      3.77066      5.07508     17.55733         0.008167     -0.004715      0.000000
      5.02566      7.24786     17.55733         0.004399     -0.003743     -0.000000
      6.28013      9.42574     17.55733         0.004022     -0.001303      0.000000
      7.53656     11.60333     17.55733         0.000000      0.000000     -0.000000
      2.51406     -1.44973     17.55733        -0.000883      0.004135      0.000000
      3.77305      0.72796     17.55733        -0.004480     -0.002586     -0.000000
      5.03758      2.89973     17.55733        -0.006206      0.002396     -0.000000
      6.28802      5.06557     17.55733        -0.005179      0.004177     -0.000000
      7.53656      7.24657     17.55733         0.000000      0.005173     -0.000000
      8.79299      9.42574     17.55733        -0.004022     -0.001303     -0.000000
      3.76893     -3.62642     17.55733        -0.003446      0.001990     -0.000000
      5.02738     -1.44719     17.55733         0.001042      0.005681     -0.000000
      6.28611      0.73719     17.55733        -0.001028     -0.006573     -0.000000
      8.78509      5.06557     17.55733         0.005179      0.004177     -0.000000
     10.04745      7.24786     17.55733        -0.004399     -0.003743     -0.000000
      5.02419     -5.80217     17.55733        -0.010722     -0.006669      0.000000
      6.28081     -3.62563     17.55733         0.000415      0.012620     -0.000000
      7.53656     -1.44766     17.55733         0.000000      0.009430      0.000000
      8.78700      0.73719     17.55733         0.001028     -0.006573      0.000000
     10.03553      2.89973     17.55733         0.006206      0.002396      0.000000
     11.30245      5.07508     17.55733        -0.008167     -0.004715     -0.000000
      6.27993     -7.97719     17.55733        -0.011136     -0.005951     -0.000000
      7.53656     -5.80167     17.55733         0.000000      0.000000     -0.000000
      8.79230     -3.62563     17.55733        -0.000415      0.012620     -0.000000
     10.04573     -1.44719     17.55733        -0.001042      0.005681     -0.000000
     11.30006      0.72796     17.55733         0.004480     -0.002586     -0.000000
     12.55662      2.90183     17.55733        -0.005441     -0.001938     -0.000000
      7.53656    -10.15216     17.55733         0.000000     -0.003979     -0.000000
      8.79318     -7.97719     17.55733         0.011136     -0.005951     -0.000000
     10.04892     -5.80217     17.55733         0.010722     -0.006669     -0.000000
     11.30418     -3.62642     17.55733         0.003446      0.001990     -0.000000
     12.55905     -1.44973     17.55733         0.000883      0.004135     -0.000000
     13.81548      0.72648     17.55733        -0.003139     -0.002832     -0.000000
      7.53656      2.90083     17.55733         0.000000     -0.000000     -0.000000
 -----------------------------------------------------------------------------------
    total drift:                               -0.056411     -0.035749      0.000000


--------------------------------------------------------------------------------------------------------



  FREE ENERGIE OF THE ION-ELECTRON SYSTEM (eV)
  ---------------------------------------------------
  free  energy   TOTEN  =      -693.29517939 eV

  energy  without entropy=     -693.29517939  energy(sigma->0) =     -693.29517939
 
 d Force = 0.9474979E-04[-0.101E-03, 0.291E-03]  d Energy = 0.8679101E-04 0.796E-05
 d Force =-0.9037098E-01[-0.921E-01,-0.886E-01]  d Ewald  =-0.9037091E-01-0.634E-07


--------------------------------------------------------------------------------------------------------


    POTLOK:  cpu time   40.3663: real time   40.2509


--------------------------------------------------------------------------------------------------------


 Conjugate gradient step on ions:
 trial-energy change:   -0.000087  1 .order   -0.000095   -0.000291    0.000101
  (g-gl).g = 0.468E-03      g.g   = 0.407E-03  gl.gl    = 0.937E-03
 g(Force)  = 0.407E-03   g(Stress)= 0.000E+00 ortho     =-0.254E-04
 gamma     =   0.49932
 trial     =   0.73703
 opt step  =   0.54672  (harmonic =   0.54672) maximal distance =0.00079744
 next E    =  -693.295200   (d E  =  -0.00011)


--------------------------------------------------------------------------------------------------------


  
 reached required accuracy - stopping structural energy minimisation
 writing wavefunctions
     LOOP+:  cpu time  752.8116: real time  577.4759
    4ORBIT:  cpu time    0.0000: real time    0.0000
 


 total charge     
 
# of ion       s       p       d       tot
------------------------------------------
    1        0.743   1.390   0.000   2.133
    2        0.743   1.389   0.000   2.132
    3        0.741   1.384   0.000   2.125
    4        0.741   1.384   0.000   2.125
    5        0.743   1.389   0.000   2.132
    6        0.743   1.390   0.000   2.133
    7        0.743   1.390   0.000   2.133
    8        0.743   1.389   0.000   2.132
    9        0.744   1.393   0.000   2.137
   10        0.732   1.345   0.000   2.077
   11        0.744   1.393   0.000   2.137
   12        0.743   1.389   0.000   2.132
   13        0.743   1.389   0.000   2.132
   14        0.743   1.389   0.000   2.132
   15        0.741   1.384   0.000   2.125
   16        0.732   1.345   0.000   2.077
   17        0.732   1.345   0.000   2.077
   18        0.741   1.384   0.000   2.125
   19        0.743   1.390   0.000   2.133
   20        0.744   1.391   0.000   2.135
   21        0.743   1.390   0.000   2.133
   22        0.741   1.384   0.000   2.125
   23        0.744   1.393   0.000   2.137
   24        0.741   1.384   0.000   2.125
   25        0.743   1.389   0.000   2.132
   26        0.744   1.392   0.000   2.135
   27        0.744   1.392   0.000   2.135
   28        0.743   1.389   0.000   2.132
   29        0.743   1.389   0.000   2.132
   30        0.743   1.389   0.000   2.132
   31        0.743   1.390   0.000   2.133
   32        0.743   1.389   0.000   2.132
   33        0.743   1.390   0.000   2.133
   34        0.743   1.389   0.000   2.132
   35        0.743   1.390   0.000   2.133
   36        0.743   1.389   0.000   2.132
   37        1.238   2.822   0.000   4.059
   38        1.238   2.823   0.000   4.060
   39        1.238   2.825   0.000   4.063
   40        1.238   2.823   0.000   4.060
   41        1.238   2.822   0.000   4.059
   42        1.237   2.821   0.000   4.059
   43        1.238   2.822   0.000   4.059
   44        1.238   2.824   0.000   4.062
   45        1.238   2.832   0.000   4.069
   46        1.238   2.832   0.000   4.069
   47        1.238   2.824   0.000   4.062
   48        1.238   2.822   0.000   4.059
   49        1.238   2.822   0.000   4.060
   50        1.238   2.823   0.000   4.060
   51        1.238   2.832   0.000   4.069
   52        1.238   2.832   0.000   4.069
   53        1.238   2.823   0.000   4.060
   54        1.238   2.823   0.000   4.061
   55        1.238   2.823   0.000   4.061
   56        1.238   2.825   0.000   4.063
   57        1.238   2.832   0.000   4.069
   58        1.238   2.832   0.000   4.069
   59        1.238   2.825   0.000   4.063
   60        1.238   2.823   0.000   4.061
   61        1.238   2.823   0.000   4.061
   62        1.238   2.823   0.000   4.061
   63        1.238   2.823   0.000   4.060
   64        1.238   2.824   0.000   4.062
   65        1.238   2.823   0.000   4.060
   66        1.238   2.822   0.000   4.060
   67        1.238   2.823   0.000   4.061
   68        1.238   2.823   0.000   4.061
   69        1.238   2.822   0.000   4.060
   70        1.238   2.822   0.000   4.059
   71        1.238   2.822   0.000   4.059
   72        1.547   3.705   0.000   5.252
--------------------------------------------------
tot         71.572 152.428   0.000 224.000
 


 magnetization (x)
 
# of ion       s       p       d       tot
------------------------------------------
    1       -0.000   0.000   0.000  -0.000
    2       -0.000  -0.000   0.000  -0.000
    3       -0.000  -0.000   0.000  -0.000
    4       -0.000  -0.000   0.000  -0.000
    5       -0.000  -0.000   0.000  -0.000
    6       -0.000   0.000   0.000  -0.000
    7       -0.000   0.000   0.000  -0.000
    8       -0.000   0.000   0.000  -0.000
    9       -0.000   0.000   0.000   0.000
   10        0.000   0.000   0.000   0.000
   11       -0.000   0.000   0.000   0.000
   12       -0.000  -0.000   0.000  -0.000
   13       -0.000  -0.000   0.000  -0.000
   14       -0.000  -0.000   0.000  -0.000
   15       -0.000  -0.000   0.000  -0.000
   16        0.000   0.000   0.000   0.000
   17        0.000   0.000   0.000   0.000
   18       -0.000  -0.000   0.000  -0.000
   19       -0.000   0.000   0.000  -0.000
   20       -0.000   0.000   0.000  -0.000
   21       -0.000  -0.000   0.000  -0.000
   22       -0.000  -0.000   0.000  -0.000
   23       -0.000   0.000   0.000   0.000
   24       -0.000  -0.000   0.000  -0.000
   25       -0.000  -0.000   0.000  -0.000
   26       -0.000   0.000   0.000   0.000
   27       -0.000   0.000   0.000   0.000
   28       -0.000  -0.000   0.000  -0.000
   29       -0.000  -0.000   0.000  -0.000
   30       -0.000  -0.000   0.000  -0.000
   31       -0.000   0.000   0.000  -0.000
   32       -0.000  -0.000   0.000  -0.000
   33       -0.000  -0.000   0.000  -0.000
   34       -0.000  -0.000   0.000  -0.000
   35       -0.000  -0.000   0.000  -0.000
   36       -0.000   0.000   0.000  -0.000
   37        0.000   0.000   0.000   0.000
   38       -0.000   0.000   0.000   0.000
   39       -0.000  -0.000   0.000  -0.000
   40        0.000  -0.000   0.000  -0.000
   41        0.000  -0.000   0.000   0.000
   42        0.000   0.000   0.000   0.000
   43        0.000  -0.000   0.000  -0.000
   44       -0.000  -0.000   0.000  -0.000
   45       -0.000   0.000   0.000   0.000
   46       -0.000   0.000   0.000   0.000
   47       -0.000  -0.000   0.000  -0.000
   48        0.000   0.000   0.000   0.000
   49       -0.000   0.000   0.000  -0.000
   50        0.000  -0.000   0.000  -0.000
   51       -0.000   0.000   0.000   0.000
   52       -0.000   0.000   0.000   0.000
   53       -0.000  -0.000   0.000  -0.000
   54       -0.000  -0.000   0.000  -0.000
   55       -0.000   0.000   0.000   0.000
   56       -0.000  -0.000   0.000  -0.000
   57       -0.000   0.000   0.000   0.000
   58        0.000  -0.000   0.000  -0.000
   59       -0.000  -0.000   0.000  -0.000
   60        0.000  -0.000   0.000  -0.000
   61       -0.000  -0.000   0.000  -0.000
   62       -0.000  -0.000   0.000  -0.000
   63        0.000  -0.000   0.000  -0.000
   64       -0.000  -0.000   0.000  -0.000
   65        0.000   0.000   0.000   0.000
   66       -0.000   0.000   0.000  -0.000
   67        0.000   0.000   0.000   0.000
   68       -0.000   0.000   0.000   0.000
   69       -0.000  -0.000   0.000  -0.000
   70        0.000   0.000   0.000   0.000
   71        0.000   0.000   0.000   0.000
   72        0.000  -0.000   0.000  -0.000
--------------------------------------------------
tot         -0.000  -0.000   0.000  -0.000
 

 total amount of memory used by VASP MPI-rank0   275714. kBytes
=======================================================================

   base      :      30000. kBytes
   nonlr-proj:      10353. kBytes
   fftplans  :      31564. kBytes
   grid      :     114297. kBytes
   one-center:         36. kBytes
   wavefun   :      89464. kBytes
 
  
  
 General timing and accounting informations for this job:
 ========================================================
  
                  Total CPU time used (sec):    14935.239
                            User time (sec):    14235.113
                          System time (sec):      700.127
                         Elapsed time (sec):    10805.182
  
                   Maximum memory used (kb):     1712112.
                   Average memory used (kb):           0.
  
                          Minor page faults:      5182666
                          Major page faults:            0
                 Voluntary context switches:       110223
