 vasp.5.4.4.18Apr17-6-g9f103f2a35 (build May 01 2020 14:57:12) complex          
  
 executed on             LinuxIFC date 2021.07.28  09:30:39
 running on  384 total cores
 distrk:  each k-point on   96 cores,    4 groups
 distr:  one band on NCORES_PER_BAND=  24 cores,    4 groups


--------------------------------------------------------------------------------------------------------


 INCAR:
 POTCAR:    PAW_PBE B 06Sep2000                   
 POTCAR:    PAW_PBE H 15Jun2001                   
 POTCAR:    PAW_PBE N 08Apr2002                   
 POTCAR:    PAW_PBE O 08Apr2002                   

 ----------------------------------------------------------------------------- 
|                                                                             |
|           W    W    AA    RRRRR   N    N  II  N    N   GGGG   !!!           |
|           W    W   A  A   R    R  NN   N  II  NN   N  G    G  !!!           |
|           W    W  A    A  R    R  N N  N  II  N N  N  G       !!!           |
|           W WW W  AAAAAA  RRRRR   N  N N  II  N  N N  G  GGG   !            |
|           WW  WW  A    A  R   R   N   NN  II  N   NN  G    G                |
|           W    W  A    A  R    R  N    N  II  N    N   GGGG   !!!           |
|                                                                             |
|      You have enabled k-point parallelism (KPAR>1).                         |
|      This developmental code was originally  written by Paul Kent at ORNL,  |
|      and carefully double checked in Vienna.                                |
|      GW as well as linear response parallelism added by Martijn Marsman     |
|      and Georg Kresse.                                                      |
|      Carefully verify results versus KPAR=1.                                |
|      Report problems to Paul Kent and Vienna.                               |
|                                                                             |
 ----------------------------------------------------------------------------- 

 POTCAR:    PAW_PBE B 06Sep2000                   
   VRHFIN =B: s2p1                                                              
   LEXCH  = PE                                                                  
   EATOM  =    71.1703 eV,    5.2309 Ry                                         
                                                                                
   TITEL  = PAW_PBE B 06Sep2000                                                 
   LULTRA =        F    use ultrasoft PP ?                                      
   IUNSCR =        1    unscreen: 0-lin 1-nonlin 2-no                           
   RPACOR =    1.200    partial core radius                                     
   POMASS =   10.811; ZVAL   =    3.000    mass and valenz                      
   RCORE  =    1.700    outmost cutoff radius                                   
   RWIGS  =    1.710; RWIGS  =    0.905    wigner-seitz radius (au A)           
   ENMAX  =  318.614; ENMIN  =  238.960 eV                                      
   ICORE  =        2    local potential                                         
   LCOR   =        T    correct aug charges                                     
   LPAW   =        T    paw PP                                                  
   EAUG   =  535.514                                                            
   DEXC   =    0.000                                                            
   RMAX   =    1.732    core radius for proj-oper                               
   RAUG   =    1.300    factor for augmentation sphere                          
   RDEP   =    1.757    radius for radial grids                                 
   RDEPT  =    1.436    core radius for aug-charge                              
                                                                                
   Atomic configuration                                                         
    4 entries                                                                   
     n  l   j            E        occ.                                          
     1  0  0.50      -180.5896   2.0000                                         
     2  0  0.50        -9.4431   2.0000                                         
     2  1  0.50        -3.6068   1.0000                                         
     3  2  1.50        -4.0817   0.0000                                         
   Description                                                                  
     l       E           TYP  RCUT    TYP  RCUT                                 
     0     -9.4430752     23  1.500                                             
     0      0.8675899     23  1.500                                             
     1     -3.6067955     23  1.700                                             
     1      6.1086146     23  1.700                                             
     2     -4.0817478      7  1.700                                             
  local pseudopotential read in
  partial core-charges read in
  partial kinetic energy density read in
  atomic valenz-charges read in
  non local Contribution for L=           0  read in
    real space projection operators read in
  non local Contribution for L=           0  read in
    real space projection operators read in
  non local Contribution for L=           1  read in
    real space projection operators read in
  non local Contribution for L=           1  read in
    real space projection operators read in
    PAW grid and wavefunctions read in
 
   number of l-projection  operators is LMAX  =           4
   number of lm-projection operators is LMMAX =           8
 
 POTCAR:    PAW_PBE H 15Jun2001                   
   VRHFIN =H: ultrasoft test                                                    
   LEXCH  = PE                                                                  
   EATOM  =    12.4884 eV,    0.9179 Ry                                         
                                                                                
   TITEL  = PAW_PBE H 15Jun2001                                                 
   LULTRA =        F    use ultrasoft PP ?                                      
   IUNSCR =        0    unscreen: 0-lin 1-nonlin 2-no                           
   RPACOR =    0.000    partial core radius                                     
   POMASS =    1.000; ZVAL   =    1.000    mass and valenz                      
   RCORE  =    1.100    outmost cutoff radius                                   
   RWIGS  =    0.700; RWIGS  =    0.370    wigner-seitz radius (au A)           
   ENMAX  =  250.000; ENMIN  =  200.000 eV                                      
   RCLOC  =    0.701    cutoff for local pot                                    
   LCOR   =        T    correct aug charges                                     
   LPAW   =        T    paw PP                                                  
   EAUG   =  400.000                                                            
   RMAX   =    1.123    core radius for proj-oper                               
   RAUG   =    1.200    factor for augmentation sphere                          
   RDEP   =    1.112    radius for radial grids                                 
   RDEPT  =    0.926    core radius for aug-charge                              
                                                                                
   Atomic configuration                                                         
    2 entries                                                                   
     n  l   j            E        occ.                                          
     1  0  0.50        -6.4927   1.0000                                         
     2  1  0.50        -3.4015   0.0000                                         
   Description                                                                  
     l       E           TYP  RCUT    TYP  RCUT                                 
     0     -6.4927494     23  1.100                                             
     0      6.8029130     23  1.100                                             
     1     -4.0817478     23  1.100                                             
  local pseudopotential read in
  atomic valenz-charges read in
  non local Contribution for L=           0  read in
    real space projection operators read in
  non local Contribution for L=           0  read in
    real space projection operators read in
  non local Contribution for L=           1  read in
    real space projection operators read in
    PAW grid and wavefunctions read in
 
   number of l-projection  operators is LMAX  =           3
   number of lm-projection operators is LMMAX =           5
 
 POTCAR:    PAW_PBE N 08Apr2002                   
   VRHFIN =N: s2p3                                                              
   LEXCH  = PE                                                                  
   EATOM  =   264.5486 eV,   19.4438 Ry                                         
                                                                                
   TITEL  = PAW_PBE N 08Apr2002                                                 
   LULTRA =        F    use ultrasoft PP ?                                      
   IUNSCR =        1    unscreen: 0-lin 1-nonlin 2-no                           
   RPACOR =    1.200    partial core radius                                     
   POMASS =   14.001; ZVAL   =    5.000    mass and valenz                      
   RCORE  =    1.500    outmost cutoff radius                                   
   RWIGS  =    1.400; RWIGS  =    0.741    wigner-seitz radius (au A)           
   ENMAX  =  400.000; ENMIN  =  300.000 eV                                      
   ICORE  =        2    local potential                                         
   LCOR   =        T    correct aug charges                                     
   LPAW   =        T    paw PP                                                  
   EAUG   =  627.112                                                            
   DEXC   =    0.000                                                            
   RMAX   =    1.529    core radius for proj-oper                               
   RAUG   =    1.300    factor for augmentation sphere                          
   RDEP   =    1.514    radius for radial grids                                 
   RDEPT  =    1.338    core radius for aug-charge                              
                                                                                
   Atomic configuration                                                         
    4 entries                                                                   
     n  l   j            E        occ.                                          
     1  0  0.50      -384.7179   2.0000                                         
     2  0  0.50       -18.5828   2.0000                                         
     2  1  0.50        -7.0898   3.0000                                         
     3  2  1.50        -6.8029   0.0000                                         
   Description                                                                  
     l       E           TYP  RCUT    TYP  RCUT                                 
     0    -18.5828119     23  1.200                                             
     0    -13.5018863     23  1.200                                             
     1     -7.0897853     23  1.500                                             
     1      9.5240782     23  1.500                                             
     2     -6.8029130      7  1.500                                             
  local pseudopotential read in
  partial core-charges read in
  partial kinetic energy density read in
  atomic valenz-charges read in
  non local Contribution for L=           0  read in
    real space projection operators read in
  non local Contribution for L=           0  read in
    real space projection operators read in
  non local Contribution for L=           1  read in
    real space projection operators read in
  non local Contribution for L=           1  read in
    real space projection operators read in
    PAW grid and wavefunctions read in
 
   number of l-projection  operators is LMAX  =           4
   number of lm-projection operators is LMMAX =           8
 
 POTCAR:    PAW_PBE O 08Apr2002                   
   VRHFIN =O: s2p4                                                              
   LEXCH  = PE                                                                  
   EATOM  =   432.3788 eV,   31.7789 Ry                                         
                                                                                
   TITEL  = PAW_PBE O 08Apr2002                                                 
   LULTRA =        F    use ultrasoft PP ?                                      
   IUNSCR =        1    unscreen: 0-lin 1-nonlin 2-no                           
   RPACOR =    1.200    partial core radius                                     
   POMASS =   16.000; ZVAL   =    6.000    mass and valenz                      
   RCORE  =    1.520    outmost cutoff radius                                   
   RWIGS  =    1.550; RWIGS  =    0.820    wigner-seitz radius (au A)           
   ENMAX  =  400.000; ENMIN  =  300.000 eV                                      
   ICORE  =        2    local potential                                         
   LCOR   =        T    correct aug charges                                     
   LPAW   =        T    paw PP                                                  
   EAUG   =  605.392                                                            
   DEXC   =    0.000                                                            
   RMAX   =    1.553    core radius for proj-oper                               
   RAUG   =    1.300    factor for augmentation sphere                          
   RDEP   =    1.550    radius for radial grids                                 
   RDEPT  =    1.329    core radius for aug-charge                              
                                                                                
   Atomic configuration                                                         
    4 entries                                                                   
     n  l   j            E        occ.                                          
     1  0  0.50      -514.6923   2.0000                                         
     2  0  0.50       -23.9615   2.0000                                         
     2  1  0.50        -9.0305   4.0000                                         
     3  2  1.50        -9.5241   0.0000                                         
   Description                                                                  
     l       E           TYP  RCUT    TYP  RCUT                                 
     0    -23.9615318     23  1.200                                             
     0     -9.5240782     23  1.200                                             
     1     -9.0304911     23  1.520                                             
     1      8.1634956     23  1.520                                             
     2     -9.5240782      7  1.500                                             
  local pseudopotential read in
  partial core-charges read in
  partial kinetic energy density read in
  kinetic energy density of atom read in
  atomic valenz-charges read in
  non local Contribution for L=           0  read in
    real space projection operators read in
  non local Contribution for L=           0  read in
    real space projection operators read in
  non local Contribution for L=           1  read in
    real space projection operators read in
  non local Contribution for L=           1  read in
    real space projection operators read in
    PAW grid and wavefunctions read in
 
   number of l-projection  operators is LMAX  =           4
   number of lm-projection operators is LMMAX =           8
 
 Optimization of the real space projectors (new method)

 maximal supplied QI-value         = 22.11
 optimisation between [QCUT,QGAM] = [ 11.94, 23.88] = [ 39.92,159.67] Ry 
 Optimized for a Real-space Cutoff    1.18 Angstroem

   l    n(q)    QCUT    max X(q) W(low)/X(q) W(high)/X(q)  e(spline) 
   0      8    11.939    53.033    0.11E-03    0.34E-03    0.60E-07
   0      8    11.939    34.740    0.11E-03    0.34E-03    0.59E-07
   1      8    11.939    30.949    0.22E-03    0.20E-03    0.17E-06
   1      8    11.939    19.518    0.20E-03    0.18E-03    0.16E-06
 Optimization of the real space projectors (new method)

 maximal supplied QI-value         = 34.20
 optimisation between [QCUT,QGAM] = [ 11.97, 23.94] = [ 40.13,160.53] Ry 
 Optimized for a Real-space Cutoff    1.18 Angstroem

   l    n(q)    QCUT    max X(q) W(low)/X(q) W(high)/X(q)  e(spline) 
   0      8    11.971    19.460    0.15E-03    0.31E-03    0.25E-06
   0      8    11.971    12.209    0.13E-03    0.29E-03    0.25E-06
   1      8    11.971     4.655    0.22E-03    0.24E-03    0.21E-06
 Optimization of the real space projectors (new method)

 maximal supplied QI-value         = 25.13
 optimisation between [QCUT,QGAM] = [ 11.81, 23.88] = [ 39.08,159.64] Ry 
 Optimized for a Real-space Cutoff    1.41 Angstroem

   l    n(q)    QCUT    max X(q) W(low)/X(q) W(high)/X(q)  e(spline) 
   0     10    11.813    79.467    0.48E-04    0.30E-04    0.67E-06
   0     10    11.813    66.151    0.47E-04    0.30E-04    0.67E-06
   1     10    11.813    20.169    0.11E-03    0.17E-03    0.11E-05
   1     10    11.813    14.454    0.11E-03    0.17E-03    0.11E-05
 Optimization of the real space projectors (new method)

 maximal supplied QI-value         = 24.76
 optimisation between [QCUT,QGAM] = [ 11.88, 24.01] = [ 39.54,161.47] Ry 
 Optimized for a Real-space Cutoff    1.18 Angstroem

   l    n(q)    QCUT    max X(q) W(low)/X(q) W(high)/X(q)  e(spline) 
   0      8    11.883    20.381    0.86E-04    0.11E-03    0.31E-06
   0      8    11.883    15.268    0.94E-04    0.12E-03    0.33E-06
   1      8    11.883     5.964    0.19E-03    0.18E-04    0.33E-06
   1      8    11.883     5.382    0.17E-03    0.20E-04    0.29E-06
  PAW_PBE B 06Sep2000                   :
 energy of atom  1       EATOM=  -71.1703
 kinetic energy error for atom=    0.0009 (will be added to EATOM!!)
  PAW_PBE H 15Jun2001                   :
 energy of atom  2       EATOM=  -12.4884
 kinetic energy error for atom=    0.0008 (will be added to EATOM!!)
  PAW_PBE N 08Apr2002                   :
 energy of atom  3       EATOM= -264.5486
 kinetic energy error for atom=    0.0116 (will be added to EATOM!!)
  PAW_PBE O 08Apr2002                   :
 energy of atom  4       EATOM= -432.3788
 kinetic energy error for atom=    0.0194 (will be added to EATOM!!)
 
 
 POSCAR: B H N O                                 
  positions in direct lattice
  velocities in cartesian coordinates

 METAGGA = SCAN     LMAXTAU =  6    LMIXTAU =  F

 exchange correlation table for  LEXCH =        8
   RHO(1)=    0.500       N(1)  =     2000
   RHO(2)=  100.500       N(2)  =     4000
 


--------------------------------------------------------------------------------------------------------


 ion  position               nearest neighbor table
   1  0.118  0.505  0.390-  85 1.37  55 1.44  49 1.45
   2  0.117  0.500  0.432-  49 1.44  56 1.44  50 1.45
   3  0.116  0.499  0.473-  50 1.44  51 1.45  57 1.45
   4  0.115  0.499  0.514-  51 1.44  52 1.44  58 1.45
   5  0.115  0.500  0.556-  53 1.44  59 1.45  52 1.45
   6  0.115  0.500  0.597-  60 1.43  54 1.43  53 1.45
   7  0.285  0.511  0.391-  86 1.37  61 1.44  55 1.45
   8  0.284  0.503  0.432-  55 1.44  62 1.44  56 1.45
   9  0.283  0.500  0.473-  56 1.44  63 1.45  57 1.45
  10  0.282  0.500  0.514-  57 1.44  58 1.44  64 1.45
  11  0.282  0.500  0.556-  59 1.44  65 1.45  58 1.45
  12  0.282  0.500  0.597-  66 1.43  60 1.43  59 1.45
  13  0.452  0.508  0.390-  87 1.37  67 1.44  61 1.45
  14  0.450  0.504  0.432-  61 1.44  68 1.44  62 1.45
  15  0.449  0.501  0.473-  62 1.44  69 1.45  63 1.45
  16  0.449  0.500  0.514-  63 1.44  64 1.44  70 1.45
  17  0.448  0.500  0.556-  65 1.44  71 1.45  64 1.45
  18  0.448  0.500  0.597-  66 1.43  72 1.43  65 1.45
  19  0.618  0.502  0.390-  88 1.37  73 1.44  67 1.45
  20  0.617  0.502  0.432-  67 1.44  74 1.44  68 1.45
  21  0.616  0.501  0.473-  68 1.44  75 1.45  69 1.45
  22  0.615  0.500  0.514-  69 1.44  70 1.44  76 1.45
  23  0.615  0.500  0.556-  71 1.44  77 1.45  70 1.45
  24  0.615  0.500  0.597-  78 1.43  72 1.43  71 1.45
  25  0.785  0.497  0.390-  89 1.38  79 1.44  73 1.45
  26  0.784  0.499  0.432-  73 1.44  80 1.44  74 1.45
  27  0.783  0.500  0.473-  74 1.44  75 1.45  81 1.45
  28  0.782  0.500  0.514-  75 1.44  76 1.44  82 1.45
  29  0.782  0.500  0.556-  77 1.44  83 1.45  76 1.45
  30  0.782  0.500  0.597-  84 1.43  78 1.43  77 1.45
  31  0.952  0.497  0.390-  90 1.38  49 1.44  79 1.45
  32  0.950  0.498  0.432-  79 1.44  50 1.44  80 1.45
  33  0.949  0.499  0.473-  80 1.44  81 1.45  51 1.45
  34  0.949  0.499  0.514-  81 1.44  82 1.44  52 1.45
  35  0.948  0.500  0.556-  83 1.44  53 1.45  82 1.45
  36  0.948  0.500  0.597-  54 1.43  84 1.43  83 1.45
  37  0.096  0.500  0.630-  54 1.01
  38  0.263  0.500  0.630-  60 1.01
  39  0.430  0.500  0.630-  66 1.01
  40  0.596  0.500  0.630-  72 1.01
  41  0.763  0.500  0.630-  78 1.01
  42  0.930  0.500  0.630-  84 1.01
  43  0.109  0.510  0.357-  85 0.98
  44  0.276  0.517  0.357-  86 0.98
  45  0.443  0.510  0.357-  87 0.98
  46  0.609  0.502  0.357-  88 0.98
  47  0.776  0.495  0.357-  89 0.98
  48  0.943  0.497  0.357-  90 0.98
  49  0.062  0.500  0.404-  31 1.44   2 1.44   1 1.45
  50  0.061  0.499  0.445-   3 1.44  32 1.44   2 1.45
  51  0.060  0.499  0.487-   4 1.44   3 1.45  33 1.45
  52  0.060  0.500  0.528-   4 1.44   5 1.45  34 1.45
  53  0.059  0.500  0.569-   5 1.44  35 1.45   6 1.45
  54  0.058  0.500  0.610-  37 1.01  36 1.43   6 1.43
  55  0.229  0.507  0.404-   1 1.44   8 1.44   7 1.45
  56  0.228  0.501  0.445-   9 1.44   2 1.44   8 1.45
  57  0.227  0.500  0.487-  10 1.44   9 1.45   3 1.45
  58  0.226  0.500  0.528-  10 1.44  11 1.45   4 1.45
  59  0.226  0.500  0.569-  11 1.44   5 1.45  12 1.45
  60  0.224  0.500  0.610-  38 1.01   6 1.43  12 1.43
  61  0.396  0.508  0.404-   7 1.44  14 1.44  13 1.45
  62  0.394  0.503  0.445-  15 1.44   8 1.44  14 1.45
  63  0.393  0.500  0.487-  16 1.44   9 1.45  15 1.45
  64  0.393  0.500  0.528-  16 1.44  17 1.45  10 1.45
  65  0.393  0.500  0.569-  17 1.44  11 1.45  18 1.45
  66  0.391  0.500  0.610-  39 1.01  12 1.43  18 1.43
  67  0.562  0.504  0.404-  13 1.44  20 1.44  19 1.45
  68  0.561  0.502  0.445-  21 1.44  14 1.44  20 1.45
  69  0.560  0.500  0.487-  22 1.44  15 1.45  21 1.45
  70  0.560  0.500  0.528-  22 1.44  23 1.45  16 1.45
  71  0.559  0.500  0.569-  23 1.44  17 1.45  24 1.45
  72  0.558  0.500  0.610-  40 1.01  18 1.43  24 1.43
  73  0.729  0.499  0.404-  19 1.44  26 1.44  25 1.45
  74  0.728  0.500  0.445-  27 1.44  20 1.44  26 1.45
  75  0.727  0.500  0.487-  28 1.44  21 1.45  27 1.45
  76  0.726  0.500  0.528-  28 1.44  29 1.45  22 1.45
  77  0.726  0.500  0.569-  29 1.44  23 1.45  30 1.45
  78  0.725  0.500  0.610-  41 1.01  24 1.43  30 1.43
  79  0.896  0.497  0.404-  25 1.44  32 1.44  31 1.45
  80  0.894  0.498  0.445-  33 1.44  26 1.44  32 1.45
  81  0.893  0.499  0.487-  34 1.44  33 1.45  27 1.45
  82  0.893  0.500  0.528-  34 1.44  35 1.45  28 1.45
  83  0.893  0.500  0.569-  35 1.44  29 1.45  36 1.45
  84  0.891  0.500  0.610-  42 1.01  30 1.43  36 1.43
  85  0.064  0.507  0.364-  43 0.98   1 1.37
  86  0.230  0.516  0.364-  44 0.98   7 1.37
  87  0.397  0.512  0.364-  45 0.98  13 1.37
  88  0.564  0.504  0.364-  46 0.98  19 1.37
  89  0.730  0.496  0.364-  47 0.98  25 1.38
  90  0.897  0.494  0.364-  48 0.98  31 1.38
 
  LATTYP: Found a simple orthorhombic cell.
 ALAT       =    15.0000000000
 B/A-ratio  =     1.0048740542
 C/A-ratio  =     3.4809850626
  
  Lattice vectors:
  
 A1 = (   0.0000000000, -15.0000000000,   0.0000000000)
 A2 = (  -7.5365500000,   0.0000000000,  13.0537000000)
 A3 = ( -45.2192000000,   0.0000000000, -26.1076000000)


Analysis of symmetry for initial positions (statically):
=====================================================================
 Subroutine PRICEL returns:
 Original cell was already a primitive cell.
 

 Routine SETGRP: Setting up the symmetry group for a 
 simple orthorhombic supercell.


 Subroutine GETGRP returns: Found  1 space group operations
 (whereof  1 operations were pure point group operations)
 out of a pool of  8 trial point group operations.


The static configuration has the point symmetry C_1 .


Analysis of symmetry for dynamics (positions and initial velocities):
=====================================================================
 Subroutine PRICEL returns:
 Original cell was already a primitive cell.
 

 Routine SETGRP: Setting up the symmetry group for a 
 simple orthorhombic supercell.


 Subroutine GETGRP returns: Found  1 space group operations
 (whereof  1 operations were pure point group operations)
 out of a pool of  8 trial point group operations.


The dynamic configuration has the point symmetry C_1 .


Analysis of constrained symmetry for selective dynamics:
=====================================================================
 Subroutine PRICEL returns:
 Original cell was already a primitive cell.
 

 Routine SETGRP: Setting up the symmetry group for a 
 simple orthorhombic supercell.


 Subroutine GETGRP returns: Found  1 space group operations
 (whereof  1 operations were pure point group operations)
 out of a pool of  8 trial point group operations.


The constrained configuration has the point symmetry C_1 .


Analysis of structural, dynamic, and magnetic symmetry:
=====================================================================
 Subroutine PRICEL returns:
 Original cell was already a primitive cell.
 

 Routine SETGRP: Setting up the symmetry group for a 
 simple orthorhombic supercell.


 Subroutine GETGRP returns: Found  1 space group operations
 (whereof  1 operations were pure point group operations)
 out of a pool of  8 trial point group operations.


The magnetic configuration has the point symmetry C_1 .


 Subroutine INISYM returns: Found  1 space group operations
 (whereof  1 operations are pure point group operations),
 and found     1 'primitive' translations

 
 
 KPOINTS: K-Point Grid                            

Automatic generation of k-mesh.
Space group operators:
 irot       det(A)        alpha          n_x          n_y          n_z        tau_x        tau_y        tau_z
    1     1.000000     0.000000     1.000000     0.000000     0.000000     0.000000     0.000000     0.000000
 
 Subroutine IBZKPT returns following result:
 ===========================================
 
 Found      8 irreducible k-points:
 
 Following reciprocal coordinates:
            Coordinates               Weight
  0.125000  0.125000 -0.000000      2.000000
  0.375000  0.125000  0.000000      2.000000
 -0.375000  0.125000  0.000000      2.000000
 -0.125000  0.125000  0.000000      2.000000
  0.125000  0.375000 -0.000000      2.000000
  0.375000  0.375000  0.000000      2.000000
 -0.375000  0.375000  0.000000      2.000000
 -0.125000  0.375000  0.000000      2.000000
 
 Following cartesian coordinates:
            Coordinates               Weight
  0.008293  0.008333 -0.004788      2.000000
  0.024879  0.008333 -0.014364      2.000000
 -0.024879  0.008333  0.014364      2.000000
 -0.008293  0.008333  0.004788      2.000000
  0.008293  0.025000 -0.004788      2.000000
  0.024879  0.025000 -0.014364      2.000000
 -0.024879  0.025000  0.014364      2.000000
 -0.008293  0.025000  0.004788      2.000000
 


--------------------------------------------------------------------------------------------------------




 Dimension of arrays:
   k-points           NKPTS =      8   k-points in BZ     NKDIM =      8   number of bands    NBANDS=    260
   number of dos      NEDOS =   1200   number of ions     NIONS =     90
   non local maximal  LDIM  =      4   non local SUM 2l+1 LMDIM =      8
   total plane-waves  NPLWV = ******
   max r-space proj   IRMAX =   6863   max aug-charges    IRDMAX=   9329
   dimension x,y,z NGX =   120 NGY =  120 NGZ =  480
   dimension x,y,z NGXF=   240 NGYF=  240 NGZF=  960
   support grid    NGXF=   240 NGYF=  240 NGZF=  960
   ions per type =              36  12  36   6
   NGX,Y,Z   is equivalent  to a cutoff of  13.24, 13.30, 13.24 a.u.
   NGXF,Y,Z  is equivalent  to a cutoff of  26.47, 26.60, 26.47 a.u.

 SYSTEM =  SiC                                     
 POSCAR =  B H N O                                 

 Startparameter for this run:
   NWRITE =      2    write-flag & timer
   PREC   = accura    normal or accurate (medium, high low for compatibility)
   ISTART =      1    job   : 0-new  1-cont  2-samecut
   ICHARG =      0    charge: 1-file 2-atom 10-const
   ISPIN  =      2    spin polarized calculation?
   LNONCOLLINEAR =      F non collinear calculations
   LSORBIT =      F    spin-orbit coupling
   INIWAV =      1    electr: 0-lowe 1-rand  2-diag
   LASPH  =      T    aspherical Exc in radial PAW
   METAGGA=      F    non-selfconsistent MetaGGA calc.

 Electronic Relaxation 1
   ENCUT  =  550.0 eV  40.42 Ry    6.36 a.u.  28.82 28.68115.29*2*pi/ulx,y,z
   ENINI  =  550.0     initial cutoff
   ENAUG  =  627.1 eV  augmentation charge cutoff
   NELM   =    100;   NELMIN=  2; NELMDL=  0     # of ELM steps 
   EDIFF  = 0.1E-04   stopping-criterion for ELM
   LREAL  =      T    real-space projection
   NLSPLINE    = F    spline interpolate recip. space projectors
   LCOMPAT=      F    compatible to vasp.4.4
   GGA_COMPAT  = T    GGA compatible to vasp.4.4-vasp.4.6
   LMAXPAW     = -100 max onsite density
   LMAXMIX     =    2 max onsite mixed and CHGCAR
   VOSKOWN=      0    Vosko Wilk Nusair interpolation
   ROPT   =   -0.00025  -0.00025  -0.00025  -0.00025
 Ionic relaxation
   EDIFFG = -.2E-01   stopping-criterion for IOM
   NSW    =    500    number of steps for IOM
   NBLOCK =      1;   KBLOCK =    500    inner block; outer block 
   IBRION =      2    ionic relax: 0-MD 1-quasi-New 2-CG
   NFREE  =      1    steps in history (QN), initial steepest desc. (CG)
   ISIF   =      2    stress and relaxation
   IWAVPR =     11    prediction:  0-non 1-charg 2-wave 3-comb
   ISYM   =      2    0-nonsym 1-usesym 2-fastsym
   LCORR  =      T    Harris-Foulkes like correction to forces

   POTIM  = 0.5000    time-step for ionic-motion
   TEIN   =    0.0    initial temperature
   TEBEG  =    0.0;   TEEND  =   0.0 temperature during run
   SMASS  =  -3.00    Nose mass-parameter (am)
   estimated Nose-frequenzy (Omega)   =  0.10E-29 period in steps =****** mass=  -0.519E-26a.u.
   SCALEE = 1.0000    scale energy and forces
   NPACO  =    256;   APACO  = 16.0  distance and # of slots for P.C.
   PSTRESS=    0.0 pullay stress

  Mass of Ions in am
   POMASS =  10.81  1.00 14.00 16.00
  Ionic Valenz
   ZVAL   =   3.00  1.00  5.00  6.00
  Atomic Wigner-Seitz radii
   RWIGS  =  -1.00 -1.00 -1.00 -1.00
  virtual crystal weights 
   VCA    =   1.00  1.00  1.00  1.00
   NELECT =     336.0000    total number of electrons
   NUPDOWN=      -1.0000    fix difference up-down

 DOS related values:
   EMIN   =  10.00;   EMAX   =-10.00  energy-range for DOS
   EFERMI =   0.00
   ISMEAR =     0;   SIGMA  =   0.05  broadening in eV -4-tet -1-fermi 0-gaus

 Electronic relaxation 2 (details)
   IALGO  =     68    algorithm
   LDIAG  =      T    sub-space diagonalisation (order eigenvalues)
   LSUBROT=      F    optimize rotation matrix (better conditioning)
   TURBO    =      0    0=normal 1=particle mesh
   IRESTART =      0    0=no restart 2=restart with 2 vectors
   NREBOOT  =      0    no. of reboots
   NMIN     =      0    reboot dimension
   EREF     =   0.00    reference energy to select bands
   IMIX   =      4    mixing-type and parameters
     AMIX     =   0.40;   BMIX     =  1.00
     AMIX_MAG =   1.60;   BMIX_MAG =  1.00
     AMIN     =   0.10
     WC   =   100.;   INIMIX=   1;  MIXPRE=   1;  MAXMIX= -45

 Intra band minimization:
   WEIMIN = 0.0010     energy-eigenvalue tresh-hold
   EBREAK =  0.96E-08  absolut break condition
   DEPER  =   0.30     relativ break condition  

   TIME   =   0.40     timestep for ELM

  volume/ion in A,a.u.               =     131.17       885.20
  Fermi-wavevector in a.u.,A,eV,Ry     =   0.499834  0.944548  3.399192  0.249834
  Thomas-Fermi vector in A             =   1.507532
 
 Write flags
   LWAVE        =      T    write WAVECAR
   LDOWNSAMPLE  =      F    k-point downsampling of WAVECAR
   LCHARG       =      F    write CHGCAR
   LVTOT        =      F    write LOCPOT, total local potential
   LVHAR        =      T    write LOCPOT, Hartree potential only
   LELF         =      F    write electronic localiz. function (ELF)
   LORBIT       =     11    0 simple, 1 ext, 2 COOP (PROOUT), +10 PAW based schemes


 Dipole corrections
   LMONO  =      F    monopole corrections only (constant potential shift)
   LDIPOL =      F    correct potential (dipole corrections)
   IDIPOL =      0    1-x, 2-y, 3-z, 4-all directions 
   EPSILON=  1.0000000 bulk dielectric constant

 Exchange correlation treatment:
   GGA     =    --    GGA type
   LEXCH   =     8    internal setting for exchange type
   VOSKOWN=      0    Vosko Wilk Nusair interpolation
   LHFCALC =     F    Hartree Fock is set to
   LHFONE  =     F    Hartree Fock one center treatment
   AEXX    =    0.0000 exact exchange contribution

 Linear response parameters
   LEPSILON=     F    determine dielectric tensor
   LRPA    =     F    only Hartree local field effects (RPA)
   LNABLA  =     F    use nabla operator in PAW spheres
   LVEL    =     F    velocity operator in full k-point grid
   LINTERFAST=   F  fast interpolation
   KINTER  =     0    interpolate to denser k-point grid
   CSHIFT  =0.1000    complex shift for real part using Kramers Kronig
   OMEGAMAX=  -1.0    maximum frequency
   DEG_THRESHOLD= 0.2000000E-02 threshold for treating states as degnerate
   RTIME   =   -0.100 relaxation time in fs
  (WPLASMAI=    0.000 imaginary part of plasma frequency in eV, 0.658/RTIME)
   DFIELD  = 0.0000000 0.0000000 0.0000000 field for delta impulse in time
 
 Orbital magnetization related:
   ORBITALMAG=     F  switch on orbital magnetization
   LCHIMAG   =     F  perturbation theory with respect to B field
   DQ        =  0.001000  dq finite difference perturbation B field
   LLRAUG    =     F  two centre corrections for induced B field

 Solvation model:
   LSOL    =     T         switch on solvation model
   EB_K    = 78.400000     relative permittivity of the bulk solvent
   SIGMA_K =  0.600000     width of the dielectric cavity
   NC_K    =  0.002500     cutoff charge density
   TAU     =  0.000000     cavity surface tension
   LAMBDA_D_K    =  3.040000     Debye length in Angstroms
   LRHOB     =     F     write boundcharge  density
   LRHOION     =     F     write ioniccharge density


 ----------------------------------------------------------------------------- 
|                                                                             |
|           W    W    AA    RRRRR   N    N  II  N    N   GGGG   !!!           |
|           W    W   A  A   R    R  NN   N  II  NN   N  G    G  !!!           |
|           W    W  A    A  R    R  N N  N  II  N N  N  G       !!!           |
|           W WW W  AAAAAA  RRRRR   N  N N  II  N  N N  G  GGG   !            |
|           WW  WW  A    A  R   R   N   NN  II  N   NN  G    G                |
|           W    W  A    A  R    R  N    N  II  N    N   GGGG   !!!           |
|                                                                             |
|      One of the lattice vectors is very long (>50 A), but AMIN is rather    |
|      large. This can spoil convergence since charge sloshing might occur    |
|      along the long lattice vector. If problems with convergence are        |
|      observed, try to decrease AMIN to a smaller values (e.g. 0.01).        |
|      Note: this warning only applies if the selfconsistency cycle is used.  |
|                                                                             |
 ----------------------------------------------------------------------------- 



--------------------------------------------------------------------------------------------------------


 conjugate gradient relaxation of ions
   using selective dynamics as specified on POSCAR
 charge density and potential will be updated during run
 spin polarized calculation
 RMM-DIIS sequential band-by-band and
  variant of blocked Davidson during initial phase
 perform sub-space diagonalisation
    before iterative eigenvector-optimisation
 modified Broyden-mixing scheme, WC =      100.0
 initial mixing is a Kerker type mixing with AMIX =  0.4000 and BMIX =      1.0000
 Hartree-type preconditioning will be used
 using additional bands           92
 real space projection scheme for non local part
 use partial core corrections
 calculate Harris-corrections to forces 
   (improved forces if not selfconsistent)
 use gradient corrections 
 use of overlap-Matrix (Vanderbilt PP)
 Gauss-broadening in eV      SIGMA  =   0.05


--------------------------------------------------------------------------------------------------------


  energy-cutoff  :      550.00
  volume of cell :    11805.59
      direct lattice vectors                 reciprocal lattice vectors
     7.536550000  0.000000000-13.053700000     0.066343590  0.000000000 -0.038303179
     0.000000000 15.000000000  0.000000000     0.000000000  0.066666667  0.000000000
    30.146100000  0.000000000 52.215000000     0.016585834  0.000000000  0.009575827

  length of vectors
    15.073110813 15.000000000 60.292566459     0.076606824  0.066666667  0.019151667


 
 old parameters found on file WAVECAR:
  energy-cutoff  :      550.00
  volume of cell :    11805.59
      direct lattice vectors                 reciprocal lattice vectors
     7.536550000  0.000000000-13.053700000     0.066343590  0.000000000 -0.038303179
     0.000000000 15.000000000  0.000000000     0.000000000  0.066666667  0.000000000
    30.146100000  0.000000000 52.215000000     0.016585834  0.000000000  0.009575827

  length of vectors

 
 k-points in units of 2pi/SCALE and weight: K-Point Grid                            
   0.00829295  0.00833333 -0.00478790       0.125
   0.02487885  0.00833333 -0.01436369       0.125
  -0.02487885  0.00833333  0.01436369       0.125
  -0.00829295  0.00833333  0.00478790       0.125
   0.00829295  0.02500000 -0.00478790       0.125
   0.02487885  0.02500000 -0.01436369       0.125
  -0.02487885  0.02500000  0.01436369       0.125
  -0.00829295  0.02500000  0.00478790       0.125
 
 k-points in reciprocal lattice and weights: K-Point Grid                            
   0.12500000  0.12500000 -0.00000000       0.125
   0.37500000  0.12500000  0.00000000       0.125
  -0.37500000  0.12500000  0.00000000       0.125
  -0.12500000  0.12500000  0.00000000       0.125
   0.12500000  0.37500000 -0.00000000       0.125
   0.37500000  0.37500000  0.00000000       0.125
  -0.37500000  0.37500000  0.00000000       0.125
  -0.12500000  0.37500000  0.00000000       0.125
 
 position of ions in fractional coordinates (direct lattice) 
   0.11843843  0.50464799  0.39046943
   0.11701776  0.49975817  0.43174590
   0.11605013  0.49909082  0.47308972
   0.11542625  0.49948097  0.51443518
   0.11513632  0.49967550  0.55581246
   0.11509269  0.49989664  0.59729574
   0.28515037  0.51055738  0.39050939
   0.28366410  0.50347518  0.43175617
   0.28271519  0.50010505  0.47309338
   0.28209624  0.49965573  0.51443914
   0.28180637  0.49971134  0.55581625
   0.28175838  0.49990309  0.59729733
   0.45181818  0.50776066  0.39047243
   0.45033188  0.50429286  0.43175305
   0.44937536  0.50094606  0.47309286
   0.44876277  0.49980039  0.51444001
   0.44847369  0.49974130  0.55581726
   0.44842482  0.49987539  0.59729816
   0.61840481  0.50202080  0.39043828
   0.61697665  0.50183645  0.43173745
   0.61602863  0.50056700  0.47308332
   0.61542100  0.49977058  0.51443268
   0.61514131  0.49974023  0.55581566
   0.61509395  0.49984902  0.59729914
   0.78509196  0.49718846  0.39043734
   0.78363776  0.49908761  0.43172922
   0.78269033  0.49967406  0.47307819
   0.78207923  0.49960952  0.51442783
   0.78180439  0.49970024  0.55581332
   0.78176218  0.49984004  0.59729864
   0.95185231  0.49683047  0.39044989
   0.95033435  0.49783335  0.43173658
   0.94936653  0.49893528  0.47308209
   0.94874617  0.49947172  0.51442993
   0.94847039  0.49966927  0.55581203
   0.94842677  0.49986217  0.59729581
   0.09631697  0.50005604  0.62967245
   0.26298092  0.50007070  0.62967256
   0.42964348  0.50003985  0.62967388
   0.59631779  0.49999771  0.62967619
   0.76299031  0.49998272  0.62967714
   0.92965565  0.50000765  0.62967480
   0.10924765  0.51040961  0.35695101
   0.27600927  0.51680878  0.35700439
   0.44274401  0.50992598  0.35693474
   0.60936453  0.50168556  0.35690237
   0.77604435  0.49516500  0.35690234
   0.94272404  0.49711770  0.35689637
   0.06231190  0.50007696  0.40408634
   0.06099868  0.49850152  0.44544733
   0.06011278  0.49918463  0.48678957
   0.05953173  0.49954518  0.52812898
   0.05918909  0.49974075  0.56947433
   0.05783541  0.49995092  0.61033391
   0.22893143  0.50682168  0.40411335
   0.22766602  0.50082430  0.44545370
   0.22678651  0.49959759  0.48679490
   0.22620706  0.49963136  0.52813389
   0.22585517  0.49975789  0.56947604
   0.22449701  0.49997735  0.61033382
   0.39563845  0.50792697  0.40411033
   0.39432406  0.50306026  0.44545692
   0.39344971  0.50011383  0.48679553
   0.39287472  0.49972769  0.52813606
   0.39252208  0.49976427  0.56947718
   0.39116327  0.49995051  0.61033467
   0.56225206  0.50361245  0.40407976
   0.56097224  0.50214175  0.44544547
   0.56010838  0.50016066  0.48678811
   0.55954415  0.49974591  0.52813317
   0.55919052  0.49976322  0.56947735
   0.55783362  0.49990975  0.61033677
   0.72889749  0.49916815  0.40406598
   0.72762951  0.50000688  0.44543573
   0.72676377  0.49977814  0.48678194
   0.72620332  0.49965953  0.52812844
   0.72585740  0.49974988  0.56947644
   0.72450369  0.49988378  0.61033737
   0.89562206  0.49665161  0.40407401
   0.89430780  0.49832006  0.44543864
   0.89343180  0.49933144  0.48678306
   0.89286306  0.49956550  0.52812739
   0.89252173  0.49973271  0.56947418
   0.89117169  0.49989731  0.61033531
   0.06351213  0.50681690  0.36415247
   0.23028904  0.51644994  0.36423912
   0.39704758  0.51168520  0.36417374
   0.56358693  0.50359098  0.36411747
   0.73022864  0.49604398  0.36411280
   0.89709823  0.49389952  0.36413572
 
 position of ions in cartesian coordinates  (Angst):
  12.66374760  7.56971980 18.84230159
  13.89736521  7.49637258 21.01609737
  15.13642751  7.48636237 23.18749584
  16.37813018  7.49221455 25.35449352
  17.62330872  7.49513248 27.51879269
  18.87353898  7.49844961 29.68541174
  13.92138508  7.65836071 16.66818018
  15.15361332  7.55212775 18.84128242
  16.39261764  7.50157571 21.01209175
  17.63436609  7.49483590 23.17903988
  18.87954018  7.49567009 25.34332994
  20.12967126  7.49854642 27.50989095
  15.17637117  7.61640992 14.49061892
  16.40961933  7.56439287 16.66548810
  17.64864440  7.51419083 18.83653231
  18.89048321  7.49700585 21.00347072
  20.13566699  7.49611954 23.16775693
  21.38578623  7.49813078 25.33432054
  16.43083023  7.53031205 12.31426385
  17.66507584  7.52754677 14.48934311
  18.90434761  7.50850493 16.66059265
  20.14629019  7.49655875 18.82758138
  21.39171763  7.49610341 20.99204456
  22.64192574  7.49773530 23.15872249
  17.68704778  7.45782694 10.13833057
  18.92087750  7.48631412 12.31336920
  20.16024727  7.49511084 14.48477296
  21.40217209  7.49414279 16.65182155
  22.64771170  7.49550357 18.81635245
  23.89801417  7.49760057 20.98305932
  18.94422407  7.45245712  7.96214671
  20.17741653  7.46750028 10.13774605
  21.41652821  7.48402914 12.30923528
  22.65832921  7.49207580 14.47631114
  23.90375970  7.49503911 16.64067737
  25.15400512  7.49793260 18.80732234
  19.70806621  7.50084060 31.62105401
  20.96414074  7.50106056 29.44547850
  22.22024137  7.50059778 27.26998453
  23.47646011  7.49996564 25.09438853
  24.73262461  7.49974076 22.91874521
  25.98863564  7.50011470 20.74302357
  11.58403128  7.65614408 17.21211094
  12.84244767  7.75213164 15.03804187
  14.09695284  7.64888963 12.85790005
  15.35172080  7.52528344 10.68119539
  16.60791075  7.42747504  8.50540562
  17.86392037  7.45676552  6.32930695
  12.65124387  7.50115437 20.28596723
  13.88821942  7.47752286 22.46277411
  15.12785012  7.48776945 24.63302345
  16.36969277  7.49317774 26.79914524
  17.61351164  7.49611131 28.96246541
  18.83506663  7.49926373 31.11361929
  13.90779460  7.60232517 18.11237630
  15.14450808  7.51236456 20.28748099
  16.38415576  7.49396386 22.45759288
  17.62599777  7.49447037 24.62367174
  18.86965033  7.49636838 26.78694560
  20.09111727  7.49966028 28.93806381
  15.16409940  7.61890461 15.93607540
  16.40063195  7.54590394 18.11214532
  17.64023999  7.50170741 20.28205393
  18.88216240  7.49591534 22.44815563
  20.12577840  7.49646404 24.61138553
  21.34723146  7.49925767 26.76249661
  16.41886964  7.55418681 13.75955493
  17.65623902  7.53212630 15.93617184
  18.89604782  7.50240989 18.10615427
  20.13818776  7.49618871 20.27235181
  21.38188837  7.49644825 22.43575440
  22.60341444  7.49864630 24.58694189
  17.67438587  7.48752220 11.58349604
  18.91196615  7.50010316 13.76016921
  20.15186843  7.49667206 15.93036252
  21.39408028  7.49489293 18.09658608
  22.63795443  7.49624815 20.26008780
  23.85954958  7.49825670 22.41131191
  18.93115613  7.44977419  9.40754295
  20.16823335  7.47480087 11.58455317
  21.40800442  7.48997167 13.75478698
  22.65008833  7.49348256 15.92100539
  23.89396023  7.49599062 18.08438329
  25.11558930  7.49845960 20.23557047
  11.45643913  7.60225355 18.18515307
  12.71597372  7.74674903 16.01262150
  13.97078699  7.67527797 13.83239206
  15.22422277  7.55386463 11.65549898
  16.47998543  7.44065968  9.47996396
  17.73829735  7.40849280  7.30289527
 


--------------------------------------------------------------------------------------------------------


 k-point  1 :   0.1250 0.1250-0.0000  plane waves:  345791
 k-point  2 :   0.3750 0.1250 0.0000  plane waves:  345788
 k-point  3 :  -0.3750 0.1250 0.0000  plane waves:  345788
 k-point  4 :  -0.1250 0.1250 0.0000  plane waves:  345791
 k-point  5 :   0.1250 0.3750-0.0000  plane waves:  345699
 k-point  6 :   0.3750 0.3750 0.0000  plane waves:  345789
 k-point  7 :  -0.3750 0.3750 0.0000  plane waves:  345789
 k-point  8 :  -0.1250 0.3750 0.0000  plane waves:  345699

 maximum and minimum number of plane-waves per node :     14459    14350

 maximum number of plane-waves:    345791
 maximum index in each direction: 
   IXMAX=   29   IYMAX=   28   IZMAX=  115
   IXMIN=  -29   IYMIN=  -29   IZMIN= -115


 real space projection operators:
  total allocation   :      26890.92 KBytes
  max/ min on nodes  :       1125.54       1116.14


 parallel 3D FFT for wavefunctions:
    minimum data exchange during FFTs selected (reduces bandwidth)
 parallel 3D FFT for charge:
    minimum data exchange during FFTs selected (reduces bandwidth)


 total amount of memory used by VASP MPI-rank0   432433. kBytes
=======================================================================

   base      :      30000. kBytes
   nonlr-proj:      11861. kBytes
   fftplans  :      31024. kBytes
   grid      :     119043. kBytes
   one-center:         24. kBytes
   wavefun   :     240481. kBytes
 
     INWAV:  cpu time  108.5717: real time  110.0750
 Broyden mixing: mesh for mixing (old mesh)
   NGX = 57   NGY = 57   NGZ =231
  (NGX  =240   NGY  =240   NGZ  =960)
  gives a total of 750519 points

 charge density for first step will be calculated from the start-wavefunctions


--------------------------------------------------------------------------------------------------------


 Maximum index for non-local projection operator          388
 Maximum index for augmentation-charges          441 (set IRDMAX)


--------------------------------------------------------------------------------------------------------


 initial charge from wavefunction
 First call to EWALD:  gamma=   0.078
 Maximum number of real-space cells 4x 4x 1
 Maximum number of reciprocal cells 2x 2x 6

    FEWALD:  cpu time    0.0074: real time    0.0039


--------------------------------------- Iteration      1(   1)  ---------------------------------------


    POTLOK:  cpu time   31.2806: real time   31.2295
    SETDIJ:  cpu time    0.4904: real time    0.2945
     EDDAV:  cpu time  138.8468: real time   69.7373
       DOS:  cpu time    0.0756: real time    0.0401
    CHARGE:  cpu time   13.9235: real time   13.1936
    MIXING:  cpu time    0.1911: real time    0.0959
    --------------------------------------------
      LOOP:  cpu time  184.8083: real time  114.5910

 eigenvalue-minimisations  :  8320
 total energy-change (2. order) :-0.8047842E+03  (-0.5492262E+01)
 number of electron     336.0000018 magnetization       0.0000000
 augmentation part       12.5915023 magnetization       0.0000002

 Broyden mixing:
  rms(total) = 0.88870E+00    rms(broyden)= 0.88815E+00
  rms(prec ) = 0.89184E+00
  weight for this iteration     100.00

 Free energy of the ion-electron system (eV)
  ---------------------------------------------------
  alpha Z        PSCENC =        50.36193904
  Ewald energy   TEWEN  =    127891.62218945
  -Hartree energ DENC   =   -140453.52315041
  -exchange      EXHF   =         0.00000000
  -V(xc)+E(xc)   XCENC  =      1498.58656193
  PAW double counting   =     39988.74334769   -40135.80372731
  entropy T*S    EENTRO =        -0.00000000
  eigenvalues    EBANDS =     -4629.15618553
  atomic energy  EATOM  =     14829.43562692
  Solvation  Ediel_sol  =       154.94922100
  ---------------------------------------------------
  free energy    TOTEN  =      -804.78417723 eV

  energy without entropy =     -804.78417723  energy(sigma->0) =     -804.78417723


--------------------------------------------------------------------------------------------------------




--------------------------------------- Iteration      1(   2)  ---------------------------------------


    POTLOK:  cpu time   27.9865: real time   28.0107
    SETDIJ:  cpu time    0.5462: real time    0.3502
    EDDIAG:  cpu time   22.9067: real time   15.8030
  RMM-DIIS:  cpu time  177.8663: real time   90.7386
    ORTHCH:  cpu time    0.8148: real time    0.4110
       DOS:  cpu time    0.0197: real time    0.0099
    CHARGE:  cpu time   14.0535: real time   13.1995
    MIXING:  cpu time    0.1240: real time    0.0622
    --------------------------------------------
      LOOP:  cpu time  244.3176: real time  148.5849

 eigenvalue-minimisations  :  8320
 total energy-change (2. order) : 0.4349096E+00  (-0.1860060E+00)
 number of electron     336.0000019 magnetization       0.0000000
 augmentation part       12.5759958 magnetization      -0.0000000

 Broyden mixing:
  rms(total) = 0.50236E+00    rms(broyden)= 0.50234E+00
  rms(prec ) = 0.50519E+00
  weight for this iteration     100.00

 eigenvalues of (default mixing * dielectric matrix)
  average eigenvalue GAMMA=   2.0724
  2.0724

 Free energy of the ion-electron system (eV)
  ---------------------------------------------------
  alpha Z        PSCENC =        50.36193904
  Ewald energy   TEWEN  =    127891.62218945
  -Hartree energ DENC   =   -140477.69055461
  -exchange      EXHF   =         0.00000000
  -V(xc)+E(xc)   XCENC  =      1498.59915439
  PAW double counting   =     39765.90160020   -39913.18630787
  entropy T*S    EENTRO =        -0.00000000
  eigenvalues    EBANDS =     -4615.45860557
  atomic energy  EATOM  =     14829.43562692
  Solvation  Ediel_sol  =       166.06569044
  ---------------------------------------------------
  free energy    TOTEN  =      -804.34926762 eV

  energy without entropy =     -804.34926762  energy(sigma->0) =     -804.34926762


--------------------------------------------------------------------------------------------------------




--------------------------------------- Iteration      1(   3)  ---------------------------------------


    POTLOK:  cpu time   28.3415: real time   28.3219
    SETDIJ:  cpu time    0.4105: real time    0.2142
    EDDIAG:  cpu time   22.9753: real time   15.8366
  RMM-DIIS:  cpu time  177.9434: real time   90.1346
    ORTHCH:  cpu time    0.8107: real time    0.4096
       DOS:  cpu time    0.0236: real time    0.0118
    CHARGE:  cpu time   13.8783: real time   13.1456
    MIXING:  cpu time    0.1256: real time    0.0631
    --------------------------------------------
      LOOP:  cpu time  244.5089: real time  148.1374

 eigenvalue-minimisations  :  8320
 total energy-change (2. order) : 0.3167208E+00  (-0.9734582E-01)
 number of electron     336.0000018 magnetization       0.0000000
 augmentation part       12.5636069 magnetization      -0.0000004

 Broyden mixing:
  rms(total) = 0.88355E-01    rms(broyden)= 0.88344E-01
  rms(prec ) = 0.89951E-01
  weight for this iteration     100.00

 eigenvalues of (default mixing * dielectric matrix)
  average eigenvalue GAMMA=   1.6051
  0.8619  2.3482

 Free energy of the ion-electron system (eV)
  ---------------------------------------------------
  alpha Z        PSCENC =        50.36193904
  Ewald energy   TEWEN  =    127891.62218945
  -Hartree energ DENC   =   -140517.92021620
  -exchange      EXHF   =         0.00000000
  -V(xc)+E(xc)   XCENC  =      1499.08066617
  PAW double counting   =     39446.56156434   -39593.99864637
  entropy T*S    EENTRO =        -0.00000000
  eigenvalues    EBANDS =     -4596.31839239
  atomic energy  EATOM  =     14829.43562692
  Solvation  Ediel_sol  =       187.14272222
  ---------------------------------------------------
  free energy    TOTEN  =      -804.03254682 eV

  energy without entropy =     -804.03254682  energy(sigma->0) =     -804.03254682


--------------------------------------------------------------------------------------------------------




--------------------------------------- Iteration      1(   4)  ---------------------------------------


    POTLOK:  cpu time   26.4325: real time   26.4389
    SETDIJ:  cpu time    0.5641: real time    0.3684
    EDDIAG:  cpu time   23.0107: real time   15.8371
  RMM-DIIS:  cpu time  179.8601: real time   91.8757
    ORTHCH:  cpu time    0.8140: real time    0.4123
       DOS:  cpu time    0.0166: real time    0.0083
    CHARGE:  cpu time   14.1458: real time   13.2127
    MIXING:  cpu time    0.1180: real time    0.0593
    --------------------------------------------
      LOOP:  cpu time  244.9617: real time  148.2126

 eigenvalue-minimisations  :  8360
 total energy-change (2. order) :-0.6987439E-02  (-0.5548586E-02)
 number of electron     336.0000018 magnetization       0.0000000
 augmentation part       12.5608937 magnetization       0.0000000

 Broyden mixing:
  rms(total) = 0.50955E-01    rms(broyden)= 0.50951E-01
  rms(prec ) = 0.52810E-01
  weight for this iteration     100.00

 eigenvalues of (default mixing * dielectric matrix)
  average eigenvalue GAMMA=   2.0391
  0.9961  2.5606  2.5606

 Free energy of the ion-electron system (eV)
  ---------------------------------------------------
  alpha Z        PSCENC =        50.36193904
  Ewald energy   TEWEN  =    127891.62218945
  -Hartree energ DENC   =   -140529.66550378
  -exchange      EXHF   =         0.00000000
  -V(xc)+E(xc)   XCENC  =      1499.08197865
  PAW double counting   =     39398.70083196   -39546.14019120
  entropy T*S    EENTRO =        -0.00000000
  eigenvalues    EBANDS =     -4593.19234843
  atomic energy  EATOM  =     14829.43562692
  Solvation  Ediel_sol  =       195.75594314
  ---------------------------------------------------
  free energy    TOTEN  =      -804.03953426 eV

  energy without entropy =     -804.03953426  energy(sigma->0) =     -804.03953426


--------------------------------------------------------------------------------------------------------




--------------------------------------- Iteration      1(   5)  ---------------------------------------


    POTLOK:  cpu time   27.3351: real time   27.3065
    SETDIJ:  cpu time    0.5196: real time    0.3238
    EDDIAG:  cpu time   22.9395: real time   15.8197
  RMM-DIIS:  cpu time  178.1871: real time   90.3045
    ORTHCH:  cpu time    0.8116: real time    0.4112
       DOS:  cpu time    0.0203: real time    0.0102
    CHARGE:  cpu time   14.3939: real time   13.3832
    MIXING:  cpu time    0.1267: real time    0.0637
    --------------------------------------------
      LOOP:  cpu time  244.3340: real time  147.6227

 eigenvalue-minimisations  :  8320
 total energy-change (2. order) :-0.6284680E-02  (-0.3988544E-02)
 number of electron     336.0000018 magnetization       0.0000000
 augmentation part       12.5647618 magnetization       0.0000014

 Broyden mixing:
  rms(total) = 0.22738E-01    rms(broyden)= 0.22734E-01
  rms(prec ) = 0.24725E-01
  weight for this iteration     100.00

 eigenvalues of (default mixing * dielectric matrix)
  average eigenvalue GAMMA=   1.6978
  2.6236  1.0586  1.5545  1.5545

 Free energy of the ion-electron system (eV)
  ---------------------------------------------------
  alpha Z        PSCENC =        50.36193904
  Ewald energy   TEWEN  =    127891.62218945
  -Hartree energ DENC   =   -140549.60368930
  -exchange      EXHF   =         0.00000000
  -V(xc)+E(xc)   XCENC  =      1499.07377583
  PAW double counting   =     39380.37331235   -39527.76041194
  entropy T*S    EENTRO =        -0.00000000
  eigenvalues    EBANDS =     -4591.36853348
  atomic energy  EATOM  =     14829.43562692
  Solvation  Ediel_sol  =       213.81997219
  ---------------------------------------------------
  free energy    TOTEN  =      -804.04581894 eV

  energy without entropy =     -804.04581894  energy(sigma->0) =     -804.04581894


--------------------------------------------------------------------------------------------------------




--------------------------------------- Iteration      1(   6)  ---------------------------------------


    POTLOK:  cpu time   24.9320: real time   24.9033
    SETDIJ:  cpu time    0.5839: real time    0.3882
    EDDIAG:  cpu time   23.0081: real time   15.8340
  RMM-DIIS:  cpu time  179.1101: real time   90.9043
    ORTHCH:  cpu time    0.8110: real time    0.4121
       DOS:  cpu time    0.0147: real time    0.0074
    CHARGE:  cpu time   14.1013: real time   13.2211
    MIXING:  cpu time    0.1439: real time    0.0738
    --------------------------------------------
      LOOP:  cpu time  242.7050: real time  145.7442

 eigenvalue-minimisations  :  8320
 total energy-change (2. order) :-0.6860485E-03  (-0.4253019E-03)
 number of electron     336.0000018 magnetization       0.0000000
 augmentation part       12.5634455 magnetization      -0.0000000

 Broyden mixing:
  rms(total) = 0.92582E-02    rms(broyden)= 0.92567E-02
  rms(prec ) = 0.12431E-01
  weight for this iteration     100.00

 eigenvalues of (default mixing * dielectric matrix)
  average eigenvalue GAMMA=   1.6998
  2.7479  2.1638  1.4981  0.9637  1.1254

 Free energy of the ion-electron system (eV)
  ---------------------------------------------------
  alpha Z        PSCENC =        50.36193904
  Ewald energy   TEWEN  =    127891.62218945
  -Hartree energ DENC   =   -140553.84956571
  -exchange      EXHF   =         0.00000000
  -V(xc)+E(xc)   XCENC  =      1499.14515842
  PAW double counting   =     39375.89788602   -39523.29570406
  entropy T*S    EENTRO =        -0.00000000
  eigenvalues    EBANDS =     -4590.00052928
  atomic energy  EATOM  =     14829.43562692
  Solvation  Ediel_sol  =       216.63649422
  ---------------------------------------------------
  free energy    TOTEN  =      -804.04650499 eV

  energy without entropy =     -804.04650499  energy(sigma->0) =     -804.04650499


--------------------------------------------------------------------------------------------------------




--------------------------------------- Iteration      1(   7)  ---------------------------------------


    POTLOK:  cpu time   26.2438: real time   26.2287
    SETDIJ:  cpu time    0.5320: real time    0.3362
    EDDIAG:  cpu time   23.0528: real time   15.8657
  RMM-DIIS:  cpu time  178.2859: real time   90.3566
    ORTHCH:  cpu time    0.8115: real time    0.4111
       DOS:  cpu time    0.0197: real time    0.0099
    CHARGE:  cpu time   13.9726: real time   13.2240
    MIXING:  cpu time    0.1293: real time    0.0650
    --------------------------------------------
      LOOP:  cpu time  243.0474: real time  146.4971

 eigenvalue-minimisations  :  8320
 total energy-change (2. order) :-0.5550266E-02  (-0.3012555E-03)
 number of electron     336.0000018 magnetization       0.0000000
 augmentation part       12.5623656 magnetization      -0.0000021

 Broyden mixing:
  rms(total) = 0.64153E-02    rms(broyden)= 0.64141E-02
  rms(prec ) = 0.88802E-02
  weight for this iteration     100.00

 eigenvalues of (default mixing * dielectric matrix)
  average eigenvalue GAMMA=   1.7366
  2.5828  2.3546  1.7118  1.7118  1.0024  1.0561

 Free energy of the ion-electron system (eV)
  ---------------------------------------------------
  alpha Z        PSCENC =        50.36193904
  Ewald energy   TEWEN  =    127891.62218945
  -Hartree energ DENC   =   -140566.26657662
  -exchange      EXHF   =         0.00000000
  -V(xc)+E(xc)   XCENC  =      1499.17881405
  PAW double counting   =     39372.69899022   -39520.08985363
  entropy T*S    EENTRO =        -0.00000000
  eigenvalues    EBANDS =     -4588.14215433
  atomic energy  EATOM  =     14829.43562692
  Solvation  Ediel_sol  =       227.14896965
  ---------------------------------------------------
  free energy    TOTEN  =      -804.05205525 eV

  energy without entropy =     -804.05205525  energy(sigma->0) =     -804.05205525


--------------------------------------------------------------------------------------------------------




--------------------------------------- Iteration      1(   8)  ---------------------------------------


    POTLOK:  cpu time   25.5658: real time   25.5582
    SETDIJ:  cpu time    0.5394: real time    0.3433
    EDDIAG:  cpu time   23.0299: real time   15.8453
  RMM-DIIS:  cpu time  178.6840: real time   91.0737
    ORTHCH:  cpu time    0.8144: real time    0.4112
       DOS:  cpu time    0.0194: real time    0.0097
    CHARGE:  cpu time   13.9672: real time   13.1475
    MIXING:  cpu time    0.1307: real time    0.0657
    --------------------------------------------
      LOOP:  cpu time  242.7509: real time  146.4547

 eigenvalue-minimisations  :  8320
 total energy-change (2. order) :-0.4974741E-02  (-0.1518097E-03)
 number of electron     336.0000018 magnetization       0.0000000
 augmentation part       12.5627357 magnetization      -0.0000024

 Broyden mixing:
  rms(total) = 0.55540E-02    rms(broyden)= 0.55537E-02
  rms(prec ) = 0.73334E-02
  weight for this iteration     100.00

 eigenvalues of (default mixing * dielectric matrix)
  average eigenvalue GAMMA=   1.9240
  4.4176  2.6109  1.9786  1.3923  1.1465  0.9610  0.9610

 Free energy of the ion-electron system (eV)
  ---------------------------------------------------
  alpha Z        PSCENC =        50.36193904
  Ewald energy   TEWEN  =    127891.62218945
  -Hartree energ DENC   =   -140574.31856105
  -exchange      EXHF   =         0.00000000
  -V(xc)+E(xc)   XCENC  =      1499.17889882
  PAW double counting   =     39372.66155929   -39520.04932842
  entropy T*S    EENTRO =        -0.00000000
  eigenvalues    EBANDS =     -4587.51035074
  atomic energy  EATOM  =     14829.43562692
  Solvation  Ediel_sol  =       234.56099671
  ---------------------------------------------------
  free energy    TOTEN  =      -804.05702999 eV

  energy without entropy =     -804.05702999  energy(sigma->0) =     -804.05702999


--------------------------------------------------------------------------------------------------------




--------------------------------------- Iteration      1(   9)  ---------------------------------------


    POTLOK:  cpu time   26.4080: real time   26.4029
    SETDIJ:  cpu time    0.5752: real time    0.3796
    EDDIAG:  cpu time   22.9848: real time   15.8463
  RMM-DIIS:  cpu time  178.3656: real time   90.5210
    ORTHCH:  cpu time    0.8094: real time    0.4100
       DOS:  cpu time    0.0204: real time    0.0102
    CHARGE:  cpu time   14.4796: real time   13.3920
    MIXING:  cpu time    0.1342: real time    0.0675
    --------------------------------------------
      LOOP:  cpu time  243.7772: real time  147.0295

 eigenvalue-minimisations  :  8320
 total energy-change (2. order) :-0.7219136E-02  (-0.4971192E-03)
 number of electron     336.0000018 magnetization       0.0000000
 augmentation part       12.5619322 magnetization       0.0000031

 Broyden mixing:
  rms(total) = 0.27925E-02    rms(broyden)= 0.27898E-02
  rms(prec ) = 0.31755E-02
  weight for this iteration     100.00

 eigenvalues of (default mixing * dielectric matrix)
  average eigenvalue GAMMA=   2.0729
  6.5001  2.5875  2.0040  1.3524  1.3524  1.0141  1.1300  0.6424

 Free energy of the ion-electron system (eV)
  ---------------------------------------------------
  alpha Z        PSCENC =        50.36193904
  Ewald energy   TEWEN  =    127891.62218945
  -Hartree energ DENC   =   -140594.58115152
  -exchange      EXHF   =         0.00000000
  -V(xc)+E(xc)   XCENC  =      1499.23475213
  PAW double counting   =     39368.61036022   -39515.99433453
  entropy T*S    EENTRO =        -0.00000000
  eigenvalues    EBANDS =     -4585.02330637
  atomic energy  EATOM  =     14829.43562692
  Solvation  Ediel_sol  =       252.26967553
  ---------------------------------------------------
  free energy    TOTEN  =      -804.06424913 eV

  energy without entropy =     -804.06424913  energy(sigma->0) =     -804.06424913


--------------------------------------------------------------------------------------------------------




--------------------------------------- Iteration      1(  10)  ---------------------------------------


    POTLOK:  cpu time   24.2731: real time   24.2559
    SETDIJ:  cpu time    0.5481: real time    0.3524
    EDDIAG:  cpu time   23.0444: real time   15.8557
  RMM-DIIS:  cpu time  179.2896: real time   91.0184
    ORTHCH:  cpu time    0.8192: real time    0.4145
       DOS:  cpu time    0.0324: real time    0.0162
    CHARGE:  cpu time   13.9527: real time   13.1364
    MIXING:  cpu time    0.1355: real time    0.0682
    --------------------------------------------
      LOOP:  cpu time  242.0949: real time  145.1177

 eigenvalue-minimisations  :  8320
 total energy-change (2. order) :-0.2281551E-02  (-0.1005703E-03)
 number of electron     336.0000018 magnetization       0.0000000
 augmentation part       12.5616865 magnetization      -0.0000004

 Broyden mixing:
  rms(total) = 0.26976E-02    rms(broyden)= 0.26966E-02
  rms(prec ) = 0.28987E-02
  weight for this iteration     100.00

 eigenvalues of (default mixing * dielectric matrix)
  average eigenvalue GAMMA=   2.2561
  7.7948  2.9275  2.4668  2.1107  1.2119  1.2119  0.9464  1.0162  0.6189

 Free energy of the ion-electron system (eV)
  ---------------------------------------------------
  alpha Z        PSCENC =        50.36193904
  Ewald energy   TEWEN  =    127891.62218945
  -Hartree energ DENC   =   -140598.01050097
  -exchange      EXHF   =         0.00000000
  -V(xc)+E(xc)   XCENC  =      1499.24041999
  PAW double counting   =     39368.78600793   -39516.16997128
  entropy T*S    EENTRO =        -0.00000000
  eigenvalues    EBANDS =     -4584.78257846
  atomic energy  EATOM  =     14829.43562692
  Solvation  Ediel_sol  =       255.45033671
  ---------------------------------------------------
  free energy    TOTEN  =      -804.06653068 eV

  energy without entropy =     -804.06653068  energy(sigma->0) =     -804.06653068


--------------------------------------------------------------------------------------------------------




--------------------------------------- Iteration      1(  11)  ---------------------------------------


    POTLOK:  cpu time   24.2521: real time   24.2315
    SETDIJ:  cpu time    0.5489: real time    0.3530
    EDDIAG:  cpu time   23.0791: real time   15.8847
  RMM-DIIS:  cpu time  178.4397: real time   90.5650
    ORTHCH:  cpu time    0.8164: real time    0.4124
       DOS:  cpu time    0.0187: real time    0.0094
    CHARGE:  cpu time   13.9123: real time   13.1305
    MIXING:  cpu time    0.1387: real time    0.0697
    --------------------------------------------
      LOOP:  cpu time  241.2061: real time  144.6562

 eigenvalue-minimisations  :  8320
 total energy-change (2. order) :-0.3004430E-02  (-0.5356564E-04)
 number of electron     336.0000018 magnetization       0.0000000
 augmentation part       12.5618454 magnetization       0.0000001

 Broyden mixing:
  rms(total) = 0.86423E-03    rms(broyden)= 0.86391E-03
  rms(prec ) = 0.99143E-03
  weight for this iteration     100.00

 eigenvalues of (default mixing * dielectric matrix)
  average eigenvalue GAMMA=   2.2198
  8.3386  3.1844  2.5482  1.9306  1.2866  1.2866  1.1695  0.9998  0.8354  0.6188

 Free energy of the ion-electron system (eV)
  ---------------------------------------------------
  alpha Z        PSCENC =        50.36193904
  Ewald energy   TEWEN  =    127891.62218945
  -Hartree energ DENC   =   -140601.35992487
  -exchange      EXHF   =         0.00000000
  -V(xc)+E(xc)   XCENC  =      1499.23393797
  PAW double counting   =     39370.11523414   -39517.49975614
  entropy T*S    EENTRO =        -0.00000000
  eigenvalues    EBANDS =     -4585.00143711
  atomic energy  EATOM  =     14829.43562692
  Solvation  Ediel_sol  =       259.02265549
  ---------------------------------------------------
  free energy    TOTEN  =      -804.06953511 eV

  energy without entropy =     -804.06953511  energy(sigma->0) =     -804.06953511


--------------------------------------------------------------------------------------------------------




--------------------------------------- Iteration      1(  12)  ---------------------------------------


    POTLOK:  cpu time   23.1634: real time   23.1500
    SETDIJ:  cpu time    0.5698: real time    0.3740
    EDDIAG:  cpu time   23.0196: real time   15.8419
  RMM-DIIS:  cpu time  177.5249: real time   90.1500
    ORTHCH:  cpu time    0.8166: real time    0.4123
       DOS:  cpu time    0.0156: real time    0.0078
    CHARGE:  cpu time   13.9005: real time   13.1314
    MIXING:  cpu time    0.1394: real time    0.0701
    --------------------------------------------
      LOOP:  cpu time  239.1497: real time  143.1374

 eigenvalue-minimisations  :  8183
 total energy-change (2. order) :-0.6959371E-03  (-0.1189871E-04)
 number of electron     336.0000018 magnetization       0.0000000
 augmentation part       12.5619309 magnetization       0.0000000

 Broyden mixing:
  rms(total) = 0.10715E-02    rms(broyden)= 0.10714E-02
  rms(prec ) = 0.11352E-02
  weight for this iteration     100.00

 eigenvalues of (default mixing * dielectric matrix)
  average eigenvalue GAMMA=   2.2097
  8.8056  3.3506  2.5837  1.8997  1.8997  1.2390  1.2390  1.0087  0.8322  0.8322
  0.6169

 Free energy of the ion-electron system (eV)
  ---------------------------------------------------
  alpha Z        PSCENC =        50.36193904
  Ewald energy   TEWEN  =    127891.62218945
  -Hartree energ DENC   =   -140601.99892705
  -exchange      EXHF   =         0.00000000
  -V(xc)+E(xc)   XCENC  =      1499.23286478
  PAW double counting   =     39369.91845701   -39517.30310333
  entropy T*S    EENTRO =        -0.00000000
  eigenvalues    EBANDS =     -4585.09212137
  atomic energy  EATOM  =     14829.43562692
  Solvation  Ediel_sol  =       259.75284351
  ---------------------------------------------------
  free energy    TOTEN  =      -804.07023105 eV

  energy without entropy =     -804.07023105  energy(sigma->0) =     -804.07023105


--------------------------------------------------------------------------------------------------------




--------------------------------------- Iteration      1(  13)  ---------------------------------------


    POTLOK:  cpu time   23.2584: real time   23.2443
    SETDIJ:  cpu time    0.4702: real time    0.2742
    EDDIAG:  cpu time   23.0339: real time   15.8609
  RMM-DIIS:  cpu time  172.1732: real time   87.0438
    ORTHCH:  cpu time    0.8099: real time    0.4095
       DOS:  cpu time    0.0214: real time    0.0107
    CHARGE:  cpu time   14.3810: real time   13.3632
    MIXING:  cpu time    0.1413: real time    0.0710
    --------------------------------------------
      LOOP:  cpu time  234.2894: real time  140.2777

 eigenvalue-minimisations  :  7853
 total energy-change (2. order) :-0.7221903E-03  (-0.8424744E-05)
 number of electron     336.0000018 magnetization       0.0000000
 augmentation part       12.5618218 magnetization      -0.0000006

 Broyden mixing:
  rms(total) = 0.39741E-03    rms(broyden)= 0.39737E-03
  rms(prec ) = 0.44837E-03
  weight for this iteration     100.00

 eigenvalues of (default mixing * dielectric matrix)
  average eigenvalue GAMMA=   2.2211
  9.1458  3.8272  2.6642  2.2924  1.8834  1.2171  1.2171  1.1730  0.9738  0.9738
  0.6689  0.6167

 Free energy of the ion-electron system (eV)
  ---------------------------------------------------
  alpha Z        PSCENC =        50.36193904
  Ewald energy   TEWEN  =    127891.62218945
  -Hartree energ DENC   =   -140602.79364214
  -exchange      EXHF   =         0.00000000
  -V(xc)+E(xc)   XCENC  =      1499.23411847
  PAW double counting   =     39369.61542659   -39516.99991449
  entropy T*S    EENTRO =        -0.00000000
  eigenvalues    EBANDS =     -4585.13790877
  atomic energy  EATOM  =     14829.43562692
  Solvation  Ediel_sol  =       260.59121170
  ---------------------------------------------------
  free energy    TOTEN  =      -804.07095324 eV

  energy without entropy =     -804.07095324  energy(sigma->0) =     -804.07095324


--------------------------------------------------------------------------------------------------------




--------------------------------------- Iteration      1(  14)  ---------------------------------------


    POTLOK:  cpu time   22.5395: real time   22.5244
    SETDIJ:  cpu time    0.4816: real time    0.2897
    EDDIAG:  cpu time   22.9724: real time   15.8345
  RMM-DIIS:  cpu time  154.9045: real time   78.4565
    ORTHCH:  cpu time    0.8138: real time    0.4119
       DOS:  cpu time    0.0161: real time    0.0081
    CHARGE:  cpu time   13.9158: real time   13.1225
    MIXING:  cpu time    0.1451: real time    0.0730
    --------------------------------------------
      LOOP:  cpu time  215.7888: real time  130.7206

 eigenvalue-minimisations  :  6677
 total energy-change (2. order) :-0.3036269E-03  (-0.4339099E-05)
 number of electron     336.0000018 magnetization       0.0000000
 augmentation part       12.5617700 magnetization      -0.0000011

 Broyden mixing:
  rms(total) = 0.33011E-03    rms(broyden)= 0.33006E-03
  rms(prec ) = 0.36060E-03
  weight for this iteration     100.00

 eigenvalues of (default mixing * dielectric matrix)
  average eigenvalue GAMMA=   2.2652
  9.3510  4.6452  2.8804  2.4553  1.8979  1.6883  1.1791  1.1791  0.9824  0.9663
  0.9663  0.6176  0.6387

 Free energy of the ion-electron system (eV)
  ---------------------------------------------------
  alpha Z        PSCENC =        50.36193904
  Ewald energy   TEWEN  =    127891.62218945
  -Hartree energ DENC   =   -140603.07807293
  -exchange      EXHF   =         0.00000000
  -V(xc)+E(xc)   XCENC  =      1499.23318859
  PAW double counting   =     39369.43441016   -39516.81870213
  entropy T*S    EENTRO =        -0.00000000
  eigenvalues    EBANDS =     -4585.17475541
  atomic energy  EATOM  =     14829.43562692
  Solvation  Ediel_sol  =       260.91291945
  ---------------------------------------------------
  free energy    TOTEN  =      -804.07125686 eV

  energy without entropy =     -804.07125686  energy(sigma->0) =     -804.07125686


--------------------------------------------------------------------------------------------------------




--------------------------------------- Iteration      1(  15)  ---------------------------------------


    POTLOK:  cpu time   22.5446: real time   22.5277
    SETDIJ:  cpu time    0.5229: real time    0.3314
    EDDIAG:  cpu time   23.0646: real time   15.8681
  RMM-DIIS:  cpu time  148.5701: real time   75.5626
    ORTHCH:  cpu time    0.8152: real time    0.4122
       DOS:  cpu time    0.0288: real time    0.0144
    CHARGE:  cpu time   14.0214: real time   13.1956
    MIXING:  cpu time    0.1504: real time    0.0755
    --------------------------------------------
      LOOP:  cpu time  209.7180: real time  127.9875

 eigenvalue-minimisations  :  6204
 total energy-change (2. order) :-0.1906623E-03  (-0.1884039E-05)
 number of electron     336.0000018 magnetization       0.0000000
 augmentation part       12.5618079 magnetization      -0.0000008

 Broyden mixing:
  rms(total) = 0.17370E-03    rms(broyden)= 0.17368E-03
  rms(prec ) = 0.19324E-03
  weight for this iteration     100.00

 eigenvalues of (default mixing * dielectric matrix)
  average eigenvalue GAMMA=   2.2158
  9.5274  5.1317  2.7708  2.4757  1.9845  1.6910  1.1337  1.1337  1.0468  1.0468
  0.9816  0.8539  0.6192  0.6240

 Free energy of the ion-electron system (eV)
  ---------------------------------------------------
  alpha Z        PSCENC =        50.36193904
  Ewald energy   TEWEN  =    127891.62218945
  -Hartree energ DENC   =   -140603.22186969
  -exchange      EXHF   =         0.00000000
  -V(xc)+E(xc)   XCENC  =      1499.23112760
  PAW double counting   =     39369.30082615   -39516.68494850
  entropy T*S    EENTRO =        -0.00000000
  eigenvalues    EBANDS =     -4585.23588667
  atomic energy  EATOM  =     14829.43562692
  Solvation  Ediel_sol  =       261.11954817
  ---------------------------------------------------
  free energy    TOTEN  =      -804.07144753 eV

  energy without entropy =     -804.07144753  energy(sigma->0) =     -804.07144753


--------------------------------------------------------------------------------------------------------




--------------------------------------- Iteration      1(  16)  ---------------------------------------


    POTLOK:  cpu time   20.5461: real time   20.5359
    SETDIJ:  cpu time    0.5573: real time    0.3614
    EDDIAG:  cpu time   23.0189: real time   15.8511
  RMM-DIIS:  cpu time  138.7349: real time   70.2992
    ORTHCH:  cpu time    0.8118: real time    0.4118
       DOS:  cpu time    0.0189: real time    0.0095
    CHARGE:  cpu time   14.0405: real time   13.1649
    MIXING:  cpu time    0.1629: real time    0.0819
    --------------------------------------------
      LOOP:  cpu time  197.8914: real time  120.7156

 eigenvalue-minimisations  :  5632
 total energy-change (2. order) :-0.3955204E-04  (-0.9526752E-06)
 number of electron     336.0000018 magnetization       0.0000000
 augmentation part       12.5618117 magnetization      -0.0000005

 Broyden mixing:
  rms(total) = 0.87204E-04    rms(broyden)= 0.87191E-04
  rms(prec ) = 0.10987E-03
  weight for this iteration     100.00

 eigenvalues of (default mixing * dielectric matrix)
[...]
   -.288E+03 0.377E+00 -.167E+03   0.288E+03 -.378E+00 0.166E+03   -.120E+00 -.385E-03 -.114E+00   -.153E-02 0.225E-03 0.314E-03
   -.520E+03 -.127E+00 -.300E+03   0.513E+03 0.108E+00 0.296E+03   0.426E+01 0.125E-01 0.247E+01   -.557E-02 0.838E-03 -.177E-02
   0.676E+03 -.125E+02 0.358E+03   -.707E+03 0.120E+02 -.343E+03   0.313E+02 0.669E+00 -.153E+02   0.125E-01 0.276E-02 0.188E-02
   0.674E+03 -.428E+02 0.357E+03   -.706E+03 0.453E+02 -.342E+03   0.312E+02 -.228E+01 -.154E+02   0.135E-01 -.427E-03 0.228E-02
   0.675E+03 -.243E+02 0.358E+03   -.707E+03 0.264E+02 -.343E+03   0.313E+02 -.208E+01 -.153E+02   0.115E-01 -.517E-03 -.205E-03
   0.676E+03 -.569E+01 0.358E+03   -.707E+03 0.687E+01 -.343E+03   0.313E+02 -.126E+01 -.153E+02   0.112E-01 0.221E-02 0.401E-04
   0.676E+03 0.138E+02 0.358E+03   -.707E+03 -.141E+02 -.343E+03   0.313E+02 0.185E+00 -.153E+02   0.122E-01 0.221E-02 -.959E-03
   0.675E+03 0.286E+02 0.359E+03   -.706E+03 -.314E+02 -.344E+03   0.312E+02 0.273E+01 -.153E+02   0.114E-01 -.520E-02 -.862E-03
 -----------------------------------------------------------------------------------------------
   -.156E+03 0.147E+01 0.588E+02   0.682E-12 -.284E-13 0.682E-12   0.155E+03 -.132E+01 -.584E+02   0.195E-01 -.119E-01 -.154E-01
 
 
 POSITION                                       TOTAL-FORCE (eV/Angst)
 -----------------------------------------------------------------------------------
     12.66216      7.56977     18.84429        -0.002635     -0.000796      0.000859
     13.89769      7.49751     21.01470        -0.013383      0.004529      0.003526
     15.13593      7.48658     23.18751        -0.007808      0.002104     -0.006692
     16.37688      7.49218     25.35359         0.003541      0.001043     -0.000873
     17.62272      7.49532     27.51766         0.016568      0.000829      0.008725
     18.87448      7.49821     29.68632         0.005734     -0.000720     -0.002297
     13.91986      7.65797     16.66997        -0.003258     -0.002903      0.000145
     15.15408      7.55226     18.83975        -0.012830     -0.000237      0.003544
     16.39231      7.50157     21.01202        -0.009566      0.001385     -0.006261
     17.63318      7.49466     23.17809         0.003402     -0.001157      0.000352
     18.87893      7.49584     25.34210         0.016099      0.000489      0.008831
     20.13062      7.49827     27.51075         0.005871     -0.000512     -0.001766
     15.17469      7.61717     14.49276         0.000113      0.000510      0.000562
     16.41010      7.56404     16.66398        -0.011308     -0.001854      0.002529
     17.64830      7.51483     18.83641        -0.008431      0.000503     -0.006865
     18.88934      7.49688     21.00245         0.003574      0.000082      0.001850
     20.13512      7.49611     23.16650         0.015807      0.000155      0.009120
     21.38684      7.49795     25.33519         0.004520     -0.000570     -0.002961
     16.42951      7.53105     12.31634        -0.001613      0.001978      0.002841
     17.66539      7.52760     14.48790        -0.011986      0.001887      0.004622
     18.90403      7.50885     16.66067        -0.007404     -0.000194     -0.007766
     20.14528      7.49651     18.82677         0.003764      0.001487     -0.000395
     21.39118      7.49595     20.99081         0.016492     -0.000362      0.009900
     22.64295      7.49759     23.15953         0.004370     -0.000341     -0.001981
     17.68570      7.45656     10.14069        -0.002717     -0.000672      0.001449
     18.92130      7.48692     12.31217        -0.011615      0.000296      0.004625
     20.15993      7.49477     14.48487        -0.008237      0.001495     -0.005890
     21.40119      7.49437     16.65098         0.002581      0.000596      0.000307
     22.64716      7.49539     18.81511         0.015594     -0.000039      0.009777
     23.89895      7.49747     20.98385         0.004995     -0.000236     -0.001600
     18.94270      7.45236      7.96458         0.000275      0.000441      0.001429
     20.17781      7.46751     10.13656        -0.011962      0.002486      0.002625
     21.41605      7.48451     12.30927        -0.006653      0.002787     -0.006195
     22.65725      7.49234     14.47532         0.002347      0.001444      0.000578
     23.90313      7.49510     16.63949         0.016939      0.000728      0.009327
     25.15497      7.49775     18.80823         0.005326     -0.000450     -0.002688
     19.71203      7.50059     31.62046         0.002601     -0.001867     -0.006021
     20.96812      7.50085     29.44493         0.002512     -0.001679     -0.006030
     22.22423      7.50037     27.26940         0.003711     -0.001743     -0.005420
     23.48036      7.49970     25.09376         0.004248     -0.001912     -0.005662
     24.73647      7.49943     22.91807         0.003784     -0.002059     -0.006104
     25.99254      7.49981     20.74235         0.003150     -0.002031     -0.005795
     11.58326      7.65580     17.21247        -0.002626     -0.003547      0.006860
     12.84159      7.75074     15.03806        -0.002471     -0.007558      0.007410
     14.09627      7.64951     12.85874        -0.003311      0.002951      0.007372
     15.35087      7.52484     10.68190        -0.002503     -0.003042      0.008510
     16.60722      7.42751      8.50611        -0.001617     -0.000180      0.009969
     17.86354      7.45685      6.33023        -0.001610      0.002003      0.008955
     12.64966      7.50196     20.28772         0.006634      0.004996     -0.000954
     13.88866      7.47870     22.46146        -0.002268      0.006321      0.001058
     15.12690      7.48771     24.63284        -0.004077      0.000566     -0.008003
     16.36855      7.49347     26.79812         0.001653      0.001318     -0.002498
     17.61373      7.49616     28.96191         0.007259     -0.000035     -0.000364
     18.83713      7.49904     31.11498         0.001750     -0.002029     -0.004883
     13.90632      7.60180     18.11390         0.004989     -0.001004     -0.001354
     15.14508      7.51294     20.28605        -0.003450      0.003683      0.000327
     16.38326      7.49353     22.45736        -0.004254     -0.001227     -0.009341
     17.62475      7.49461     24.62264         0.002241     -0.000096     -0.003321
     18.86988      7.49642     26.78635         0.007078      0.000163      0.000331
     20.09324      7.49942     28.93942         0.001518     -0.002275     -0.005104
     15.16271      7.61838     15.93774         0.005672     -0.001649     -0.001079
     16.40127      7.54588     18.11062        -0.003646      0.001450      0.003240
     17.63944      7.50186     20.28170        -0.003687      0.001380     -0.007349
     18.88098      7.49583     22.44704         0.001380     -0.001203     -0.003262
     20.12610      7.49655     24.61078         0.006121      0.000083     -0.000190
     21.34941      7.49905     26.76386         0.000970     -0.002057     -0.005092
     16.41734      7.55567     13.76123         0.006044      0.007419      0.000394
     17.65683      7.53159     15.93474        -0.002802     -0.001250      0.002960
     18.89533      7.50301     18.10603        -0.003120      0.003819     -0.008515
     20.13706      7.49599     20.27136         0.001309     -0.001741     -0.003563
     21.38224      7.49651     22.43511         0.005782     -0.000725     -0.000129
     22.60556      7.49844     24.58821         0.000812     -0.001774     -0.004541
     17.67309      7.48780     11.58537         0.005479     -0.000082      0.000870
     18.91252      7.49963     13.75893        -0.002394     -0.000214      0.002005
     20.15116      7.49701     15.93028        -0.003919      0.000736     -0.008605
     21.39298      7.49476     18.09561         0.002275     -0.000601     -0.003007
     22.63824      7.49625     20.25939         0.007122     -0.001085      0.000443
     23.86163      7.49810     22.41254         0.001448     -0.001523     -0.005008
     18.92981      7.44827      9.40955         0.007078     -0.008073      0.000567
     20.16871      7.47575     11.58333        -0.002714      0.005100      0.002450
     21.40721      7.49021     13.75459        -0.003993      0.000722     -0.006455
     22.64896      7.49363     15.91992         0.002206      0.001260     -0.002099
     23.89423      7.49603     18.08376         0.007338     -0.000621     -0.000225
     25.11765      7.49832     20.23690         0.001741     -0.001565     -0.005451
     11.45581      7.60162     18.18560        -0.013054     -0.003306      0.005484
     12.71550      7.74675     16.01283        -0.013713     -0.001622      0.004690
     13.96985      7.67515     13.83325        -0.011697      0.001689      0.005587
     15.22377      7.55339     11.65629        -0.013992     -0.000661      0.006541
     16.47967      7.44045      9.48079        -0.013033     -0.004050      0.008394
     17.73767      7.40936      7.30388        -0.012462      0.004215      0.007711
 -----------------------------------------------------------------------------------
    total drift:                               -0.322355      0.132442      0.440128


--------------------------------------------------------------------------------------------------------



  FREE ENERGIE OF THE ION-ELECTRON SYSTEM (eV)
  ---------------------------------------------------
  free  energy   TOTEN  =      -804.07299736 eV

  energy  without entropy=     -804.07299736  energy(sigma->0) =     -804.07299736
 
 d Force = 0.1893815E-03[ 0.140E-03, 0.238E-03]  d Energy = 0.1835861E-03 0.580E-05
 d Force = 0.3187757E+01[ 0.319E+01, 0.319E+01]  d Ewald  = 0.3187757E+01 0.204E-09


--------------------------------------------------------------------------------------------------------


    POTLOK:  cpu time   23.5974: real time   23.4406


--------------------------------------------------------------------------------------------------------


 Conjugate gradient step on ions:
 trial-energy change:   -0.000184  1 .order   -0.000189   -0.000238   -0.000140
  (g-gl).g = 0.804E-03      g.g   = 0.747E-03  gl.gl    = 0.200E-02
 g(Force)  = 0.747E-03   g(Stress)= 0.000E+00 ortho     =-0.567E-04
 gamma     =   0.40237
 trial     =   0.32938
 opt step  =   0.79970  (harmonic =   0.79970) maximal distance =0.00130052
 next E    =  -804.073103   (d E  =  -0.00029)


--------------------------------------------------------------------------------------------------------


  
 reached required accuracy - stopping structural energy minimisation
 writing wavefunctions
     LOOP+:  cpu time 1222.9603: real time  838.9484
    4ORBIT:  cpu time    0.0000: real time    0.0000
 


 total charge     
 
# of ion       s       p       d       tot
------------------------------------------
    1        0.748   1.415   0.000   2.164
    2        0.748   1.407   0.000   2.155
    3        0.749   1.410   0.000   2.160
    4        0.749   1.411   0.000   2.161
    5        0.749   1.411   0.000   2.159
    6        0.752   1.433   0.000   2.185
    7        0.748   1.415   0.000   2.164
    8        0.748   1.407   0.000   2.155
    9        0.749   1.410   0.000   2.160
   10        0.749   1.412   0.000   2.161
   11        0.749   1.411   0.000   2.159
   12        0.752   1.433   0.000   2.185
   13        0.748   1.415   0.000   2.163
   14        0.748   1.407   0.000   2.155
   15        0.749   1.410   0.000   2.160
   16        0.749   1.412   0.000   2.161
   17        0.749   1.411   0.000   2.159
   18        0.752   1.433   0.000   2.185
   19        0.748   1.415   0.000   2.164
   20        0.748   1.407   0.000   2.155
   21        0.749   1.410   0.000   2.159
   22        0.749   1.411   0.000   2.161
   23        0.749   1.411   0.000   2.159
   24        0.752   1.433   0.000   2.185
   25        0.748   1.415   0.000   2.164
   26        0.748   1.407   0.000   2.155
   27        0.749   1.410   0.000   2.159
   28        0.749   1.411   0.000   2.161
   29        0.749   1.411   0.000   2.159
   30        0.752   1.433   0.000   2.185
   31        0.748   1.415   0.000   2.163
   32        0.748   1.407   0.000   2.155
   33        0.749   1.410   0.000   2.159
   34        0.749   1.411   0.000   2.161
   35        0.749   1.411   0.000   2.159
   36        0.752   1.433   0.000   2.185
   37        0.638   0.090   0.000   0.728
   38        0.638   0.090   0.000   0.728
   39        0.638   0.090   0.000   0.728
   40        0.638   0.090   0.000   0.728
   41        0.638   0.090   0.000   0.728
   42        0.638   0.090   0.000   0.728
   43        0.579   0.140   0.000   0.719
   44        0.579   0.140   0.000   0.719
   45        0.579   0.140   0.000   0.719
   46        0.579   0.140   0.000   0.719
   47        0.579   0.140   0.000   0.719
   48        0.579   0.140   0.000   0.719
   49        1.239   2.841   0.000   4.080
   50        1.240   2.833   0.000   4.073
   51        1.240   2.833   0.000   4.073
   52        1.240   2.831   0.000   4.071
   53        1.239   2.829   0.000   4.067
   54        1.236   2.839   0.000   4.076
   55        1.239   2.841   0.000   4.080
   56        1.240   2.833   0.000   4.073
   57        1.240   2.833   0.000   4.073
   58        1.240   2.831   0.000   4.071
   59        1.239   2.829   0.000   4.067
   60        1.236   2.839   0.000   4.076
   61        1.239   2.841   0.000   4.080
   62        1.240   2.833   0.000   4.073
   63        1.240   2.833   0.000   4.073
   64        1.240   2.831   0.000   4.071
   65        1.239   2.829   0.000   4.067
   66        1.236   2.839   0.000   4.076
   67        1.239   2.841   0.000   4.080
   68        1.240   2.833   0.000   4.073
   69        1.240   2.833   0.000   4.073
   70        1.240   2.831   0.000   4.071
   71        1.239   2.829   0.000   4.067
   72        1.236   2.839   0.000   4.076
   73        1.239   2.841   0.000   4.080
   74        1.240   2.833   0.000   4.073
   75        1.240   2.833   0.000   4.073
   76        1.240   2.831   0.000   4.071
   77        1.239   2.829   0.000   4.067
   78        1.236   2.839   0.000   4.076
   79        1.239   2.841   0.000   4.080
   80        1.240   2.833   0.000   4.073
   81        1.240   2.833   0.000   4.073
   82        1.240   2.831   0.000   4.071
   83        1.239   2.829   0.000   4.067
   84        1.236   2.839   0.000   4.076
   85        1.566   3.714   0.000   5.280
   86        1.566   3.714   0.000   5.280
   87        1.566   3.714   0.000   5.280
   88        1.565   3.714   0.000   5.280
   89        1.565   3.714   0.000   5.280
   90        1.565   3.714   0.000   5.280
--------------------------------------------------
tot         88.273 176.627   0.000 264.900
 


 magnetization (x)
 
# of ion       s       p       d       tot
------------------------------------------
    1       -0.000  -0.000   0.000  -0.000
    2       -0.000   0.000   0.000  -0.000
    3        0.000   0.000   0.000   0.000
    4        0.000   0.000   0.000   0.000
    5        0.000   0.000   0.000   0.000
    6       -0.000  -0.000   0.000  -0.000
    7       -0.000  -0.000   0.000  -0.000
    8        0.000   0.000   0.000   0.000
    9        0.000   0.000   0.000   0.000
   10        0.000   0.000   0.000   0.000
   11       -0.000   0.000   0.000   0.000
   12       -0.000  -0.000   0.000  -0.000
   13        0.000  -0.000   0.000  -0.000
   14        0.000   0.000   0.000   0.000
   15        0.000   0.000   0.000   0.000
   16       -0.000  -0.000   0.000  -0.000
   17        0.000   0.000   0.000   0.000
   18       -0.000  -0.000   0.000  -0.000
   19       -0.000  -0.000   0.000  -0.000
   20        0.000   0.000   0.000   0.000
   21        0.000   0.000   0.000   0.000
   22        0.000  -0.000   0.000  -0.000
   23        0.000  -0.000   0.000  -0.000
   24        0.000  -0.000   0.000   0.000
   25       -0.000  -0.000   0.000  -0.000
   26       -0.000   0.000   0.000   0.000
   27        0.000   0.000   0.000   0.000
   28        0.000  -0.000   0.000  -0.000
   29        0.000   0.000   0.000   0.000
   30       -0.000   0.000   0.000   0.000
   31       -0.000  -0.000   0.000  -0.000
   32        0.000   0.000   0.000   0.000
   33        0.000   0.000   0.000   0.000
   34        0.000  -0.000   0.000  -0.000
   35       -0.000   0.000   0.000   0.000
   36       -0.000   0.000   0.000   0.000
   37       -0.000  -0.000   0.000  -0.000
   38       -0.000   0.000   0.000  -0.000
   39       -0.000   0.000   0.000  -0.000
   40       -0.000   0.000   0.000  -0.000
   41        0.000  -0.000   0.000   0.000
   42        0.000  -0.000   0.000   0.000
   43       -0.000   0.000   0.000  -0.000
   44        0.000   0.000   0.000   0.000
   45       -0.000  -0.000   0.000  -0.000
   46        0.000   0.000   0.000   0.000
   47        0.000  -0.000   0.000   0.000
   48       -0.000  -0.000   0.000  -0.000
   49        0.000   0.000   0.000   0.000
   50        0.000   0.000   0.000   0.000
   51        0.000  -0.000   0.000  -0.000
   52        0.000  -0.000   0.000  -0.000
   53       -0.000   0.000   0.000   0.000
   54        0.000  -0.000   0.000  -0.000
   55        0.000  -0.000   0.000  -0.000
   56       -0.000   0.000   0.000   0.000
   57        0.000  -0.000   0.000  -0.000
   58       -0.000  -0.000   0.000  -0.000
   59        0.000   0.000   0.000   0.000
   60       -0.000  -0.000   0.000  -0.000
   61       -0.000  -0.000   0.000  -0.000
   62       -0.000  -0.000   0.000  -0.000
   63        0.000  -0.000   0.000  -0.000
   64       -0.000  -0.000   0.000  -0.000
   65       -0.000   0.000   0.000   0.000
   66        0.000   0.000   0.000   0.000
   67        0.000   0.000   0.000   0.000
   68       -0.000   0.000   0.000   0.000
   69       -0.000  -0.000   0.000  -0.000
   70        0.000   0.000   0.000   0.000
   71       -0.000   0.000   0.000   0.000
   72       -0.000   0.000   0.000   0.000
   73        0.000  -0.000   0.000  -0.000
   74        0.000   0.000   0.000   0.000
   75       -0.000   0.000   0.000   0.000
   76       -0.000  -0.000   0.000  -0.000
   77       -0.000  -0.000   0.000  -0.000
   78       -0.000   0.000   0.000   0.000
   79        0.000  -0.000   0.000  -0.000
   80        0.000   0.000   0.000   0.000
   81        0.000   0.000   0.000   0.000
   82        0.000   0.000   0.000   0.000
   83       -0.000   0.000   0.000   0.000
   84       -0.000  -0.000   0.000  -0.000
   85        0.000  -0.000   0.000  -0.000
   86        0.000  -0.000   0.000  -0.000
   87       -0.000  -0.000   0.000  -0.000
   88        0.000  -0.000   0.000  -0.000
   89       -0.000  -0.000   0.000  -0.000
   90        0.000   0.000   0.000   0.000
--------------------------------------------------
tot          0.000  -0.000   0.000  -0.000
 

 total amount of memory used by VASP MPI-rank0   432433. kBytes
=======================================================================

   base      :      30000. kBytes
   nonlr-proj:      11861. kBytes
   fftplans  :      31024. kBytes
   grid      :     119043. kBytes
   one-center:         24. kBytes
   wavefun   :     240481. kBytes
 
  
  
 General timing and accounting informations for this job:
 ========================================================
  
                  Total CPU time used (sec):    10711.285
                            User time (sec):    10104.233
                          System time (sec):      607.052
                         Elapsed time (sec):     7109.955
  
                   Maximum memory used (kb):     1055876.
                   Average memory used (kb):           0.
  
                          Minor page faults:      2654589
                          Major page faults:           16
                 Voluntary context switches:        60840
