 vasp.5.4.4.18Apr17-6-g9f103f2a35 (build Jun 11 2020 13:42:08) complex          
  
 executed on             LinuxIFC date 2021.02.03  05:57:26
 running on   48 total cores
 distrk:  each k-point on    8 cores,    6 groups
 distr:  one band on NCORES_PER_BAND=   1 cores,    8 groups


--------------------------------------------------------------------------------------------------------


 INCAR:
 POTCAR:    PAW_PBE B 06Sep2000                   
 POTCAR:    PAW_PBE N 08Apr2002                   
 POTCAR:    PAW_PBE C 08Apr2002                   
 POTCAR:    PAW_PBE F 08Apr2002                   
 POTCAR:    PAW_PBE O 08Apr2002                   

 ----------------------------------------------------------------------------- 
|                                                                             |
|           W    W    AA    RRRRR   N    N  II  N    N   GGGG   !!!           |
|           W    W   A  A   R    R  NN   N  II  NN   N  G    G  !!!           |
|           W    W  A    A  R    R  N N  N  II  N N  N  G       !!!           |
|           W WW W  AAAAAA  RRRRR   N  N N  II  N  N N  G  GGG   !            |
|           WW  WW  A    A  R   R   N   NN  II  N   NN  G    G                |
|           W    W  A    A  R    R  N    N  II  N    N   GGGG   !!!           |
|                                                                             |
|      For optimal performance we recommend to set                            |
|        NCORE= 4 - approx SQRT( number of cores)                             |
|      NCORE specifies how many cores store one orbital (NPAR=cpu/NCORE).     |
|      This setting can  greatly improve the performance of VASP for DFT.     |
|      The default,   NCORE=1            might be grossly inefficient         |
|      on modern multi-core architectures or massively parallel machines.     |
|      Do your own testing !!!!                                               |
|      Unfortunately you need to use the default for GW and RPA calculations. |
|      (for HF NCORE is supported but not extensively tested yet)             |
|                                                                             |
 ----------------------------------------------------------------------------- 


 ----------------------------------------------------------------------------- 
|                                                                             |
|           W    W    AA    RRRRR   N    N  II  N    N   GGGG   !!!           |
|           W    W   A  A   R    R  NN   N  II  NN   N  G    G  !!!           |
|           W    W  A    A  R    R  N N  N  II  N N  N  G       !!!           |
|           W WW W  AAAAAA  RRRRR   N  N N  II  N  N N  G  GGG   !            |
|           WW  WW  A    A  R   R   N   NN  II  N   NN  G    G                |
|           W    W  A    A  R    R  N    N  II  N    N   GGGG   !!!           |
|                                                                             |
|      You have enabled k-point parallelism (KPAR>1).                         |
|      This developmental code was originally  written by Paul Kent at ORNL,  |
|      and carefully double checked in Vienna.                                |
|      GW as well as linear response parallelism added by Martijn Marsman     |
|      and Georg Kresse.                                                      |
|      Carefully verify results versus KPAR=1.                                |
|      Report problems to Paul Kent and Vienna.                               |
|                                                                             |
 ----------------------------------------------------------------------------- 

 POTCAR:    PAW_PBE B 06Sep2000                   
   VRHFIN =B: s2p1                                                              
   LEXCH  = PE                                                                  
   EATOM  =    71.1703 eV,    5.2309 Ry                                         
                                                                                
   TITEL  = PAW_PBE B 06Sep2000                                                 
   LULTRA =        F    use ultrasoft PP ?                                      
   IUNSCR =        1    unscreen: 0-lin 1-nonlin 2-no                           
   RPACOR =    1.200    partial core radius                                     
   POMASS =   10.811; ZVAL   =    3.000    mass and valenz                      
   RCORE  =    1.700    outmost cutoff radius                                   
   RWIGS  =    1.710; RWIGS  =    0.905    wigner-seitz radius (au A)           
   ENMAX  =  318.614; ENMIN  =  238.960 eV                                      
   ICORE  =        2    local potential                                         
   LCOR   =        T    correct aug charges                                     
   LPAW   =        T    paw PP                                                  
   EAUG   =  535.514                                                            
   DEXC   =    0.000                                                            
   RMAX   =    1.732    core radius for proj-oper                               
   RAUG   =    1.300    factor for augmentation sphere                          
   RDEP   =    1.757    radius for radial grids                                 
   RDEPT  =    1.436    core radius for aug-charge                              
                                                                                
   Atomic configuration                                                         
    4 entries                                                                   
     n  l   j            E        occ.                                          
     1  0  0.50      -180.5896   2.0000                                         
     2  0  0.50        -9.4431   2.0000                                         
     2  1  0.50        -3.6068   1.0000                                         
     3  2  1.50        -4.0817   0.0000                                         
   Description                                                                  
     l       E           TYP  RCUT    TYP  RCUT                                 
     0     -9.4430752     23  1.500                                             
     0      0.8675899     23  1.500                                             
     1     -3.6067955     23  1.700                                             
     1      6.1086146     23  1.700                                             
     2     -4.0817478      7  1.700                                             
  local pseudopotential read in
  partial core-charges read in
  partial kinetic energy density read in
  atomic valenz-charges read in
  non local Contribution for L=           0  read in
    real space projection operators read in
  non local Contribution for L=           0  read in
    real space projection operators read in
  non local Contribution for L=           1  read in
    real space projection operators read in
  non local Contribution for L=           1  read in
    real space projection operators read in
    PAW grid and wavefunctions read in
 
   number of l-projection  operators is LMAX  =           4
   number of lm-projection operators is LMMAX =           8
 
 POTCAR:    PAW_PBE N 08Apr2002                   
   VRHFIN =N: s2p3                                                              
   LEXCH  = PE                                                                  
   EATOM  =   264.5486 eV,   19.4438 Ry                                         
                                                                                
   TITEL  = PAW_PBE N 08Apr2002                                                 
   LULTRA =        F    use ultrasoft PP ?                                      
   IUNSCR =        1    unscreen: 0-lin 1-nonlin 2-no                           
   RPACOR =    1.200    partial core radius                                     
   POMASS =   14.001; ZVAL   =    5.000    mass and valenz                      
   RCORE  =    1.500    outmost cutoff radius                                   
   RWIGS  =    1.400; RWIGS  =    0.741    wigner-seitz radius (au A)           
   ENMAX  =  400.000; ENMIN  =  300.000 eV                                      
   ICORE  =        2    local potential                                         
   LCOR   =        T    correct aug charges                                     
   LPAW   =        T    paw PP                                                  
   EAUG   =  627.112                                                            
   DEXC   =    0.000                                                            
   RMAX   =    1.529    core radius for proj-oper                               
   RAUG   =    1.300    factor for augmentation sphere                          
   RDEP   =    1.514    radius for radial grids                                 
   RDEPT  =    1.338    core radius for aug-charge                              
                                                                                
   Atomic configuration                                                         
    4 entries                                                                   
     n  l   j            E        occ.                                          
     1  0  0.50      -384.7179   2.0000                                         
     2  0  0.50       -18.5828   2.0000                                         
     2  1  0.50        -7.0898   3.0000                                         
     3  2  1.50        -6.8029   0.0000                                         
   Description                                                                  
     l       E           TYP  RCUT    TYP  RCUT                                 
     0    -18.5828119     23  1.200                                             
     0    -13.5018863     23  1.200                                             
     1     -7.0897853     23  1.500                                             
     1      9.5240782     23  1.500                                             
     2     -6.8029130      7  1.500                                             
  local pseudopotential read in
  partial core-charges read in
  partial kinetic energy density read in
  atomic valenz-charges read in
  non local Contribution for L=           0  read in
    real space projection operators read in
  non local Contribution for L=           0  read in
    real space projection operators read in
  non local Contribution for L=           1  read in
    real space projection operators read in
  non local Contribution for L=           1  read in
    real space projection operators read in
    PAW grid and wavefunctions read in
 
   number of l-projection  operators is LMAX  =           4
   number of lm-projection operators is LMMAX =           8
 
 POTCAR:    PAW_PBE C 08Apr2002                   
   VRHFIN =C: s2p2                                                              
   LEXCH  = PE                                                                  
   EATOM  =   147.1560 eV,   10.8157 Ry                                         
                                                                                
   TITEL  = PAW_PBE C 08Apr2002                                                 
   LULTRA =        F    use ultrasoft PP ?                                      
   IUNSCR =        1    unscreen: 0-lin 1-nonlin 2-no                           
   RPACOR =    1.200    partial core radius                                     
   POMASS =   12.011; ZVAL   =    4.000    mass and valenz                      
   RCORE  =    1.500    outmost cutoff radius                                   
   RWIGS  =    1.630; RWIGS  =    0.863    wigner-seitz radius (au A)           
   ENMAX  =  400.000; ENMIN  =  300.000 eV                                      
   ICORE  =        2    local potential                                         
   LCOR   =        T    correct aug charges                                     
   LPAW   =        T    paw PP                                                  
   EAUG   =  644.873                                                            
   DEXC   =    0.000                                                            
   RMAX   =    1.529    core radius for proj-oper                               
   RAUG   =    1.300    factor for augmentation sphere                          
   RDEP   =    1.501    radius for radial grids                                 
   RDEPT  =    1.300    core radius for aug-charge                              
                                                                                
   Atomic configuration                                                         
    4 entries                                                                   
     n  l   j            E        occ.                                          
     1  0  0.50      -273.3789   2.0000                                         
     2  0  0.50       -13.7508   2.0000                                         
     2  1  0.50        -5.2854   2.0000                                         
     3  2  1.50        -5.4423   0.0000                                         
   Description                                                                  
     l       E           TYP  RCUT    TYP  RCUT                                 
     0    -13.7508458     23  1.200                                             
     0     -8.2022199     23  1.200                                             
     1     -5.2854383     23  1.500                                             
     1     34.0145650     23  1.500                                             
     2     -5.4423304      7  1.500                                             
  local pseudopotential read in
  partial core-charges read in
  partial kinetic energy density read in
  atomic valenz-charges read in
  non local Contribution for L=           0  read in
    real space projection operators read in
  non local Contribution for L=           0  read in
    real space projection operators read in
  non local Contribution for L=           1  read in
    real space projection operators read in
  non local Contribution for L=           1  read in
    real space projection operators read in
    PAW grid and wavefunctions read in
 
   number of l-projection  operators is LMAX  =           4
   number of lm-projection operators is LMMAX =           8
 
 POTCAR:    PAW_PBE F 08Apr2002                   
   VRHFIN =F: s2p5                                                              
   LEXCH  = PE                                                                  
   EATOM  =   659.6475 eV,   48.4827 Ry                                         
                                                                                
   TITEL  = PAW_PBE F 08Apr2002                                                 
   LULTRA =        F    use ultrasoft PP ?                                      
   IUNSCR =        1    unscreen: 0-lin 1-nonlin 2-no                           
   RPACOR =    1.200    partial core radius                                     
   POMASS =   18.998; ZVAL   =    7.000    mass and valenz                      
   RCORE  =    1.520    outmost cutoff radius                                   
   RWIGS  =    1.500; RWIGS  =    0.794    wigner-seitz radius (au A)           
   ENMAX  =  400.000; ENMIN  =  300.000 eV                                      
   ICORE  =        2    local potential                                         
   LCOR   =        T    correct aug charges                                     
   LPAW   =        T    paw PP                                                  
   EAUG   =  613.614                                                            
   RMAX   =    1.555    core radius for proj-oper                               
   RAUG   =    1.300    factor for augmentation sphere                          
   RDEP   =    1.539    radius for radial grids                                 
   RDEPT  =    1.299    core radius for aug-charge                              
                                                                                
   Atomic configuration                                                         
    4 entries                                                                   
     n  l   j            E        occ.                                          
     1  0  0.50      -663.3661   2.0000                                         
     2  0  0.50       -29.8995   2.0000                                         
     2  1  0.50       -11.1114   5.0000                                         
     3  2  1.50       -10.8847   0.0000                                         
   Description                                                                  
     l       E           TYP  RCUT    TYP  RCUT                                 
     0    -29.8995018     23  1.200                                             
     0     -9.5240782     23  1.200                                             
     1    -11.1113914     23  1.520                                             
     1      1.3605826     23  1.520                                             
     2    -10.8846608      7  1.500                                             
  local pseudopotential read in
  partial core-charges read in
  partial kinetic energy density read in
  atomic valenz-charges read in
  non local Contribution for L=           0  read in
    real space projection operators read in
  non local Contribution for L=           0  read in
    real space projection operators read in
  non local Contribution for L=           1  read in
    real space projection operators read in
  non local Contribution for L=           1  read in
    real space projection operators read in
    PAW grid and wavefunctions read in
 
   number of l-projection  operators is LMAX  =           4
   number of lm-projection operators is LMMAX =           8
 
 POTCAR:    PAW_PBE O 08Apr2002                   
   VRHFIN =O: s2p4                                                              
   LEXCH  = PE                                                                  
   EATOM  =   432.3788 eV,   31.7789 Ry                                         
                                                                                
   TITEL  = PAW_PBE O 08Apr2002                                                 
   LULTRA =        F    use ultrasoft PP ?                                      
   IUNSCR =        1    unscreen: 0-lin 1-nonlin 2-no                           
   RPACOR =    1.200    partial core radius                                     
   POMASS =   16.000; ZVAL   =    6.000    mass and valenz                      
   RCORE  =    1.520    outmost cutoff radius                                   
   RWIGS  =    1.550; RWIGS  =    0.820    wigner-seitz radius (au A)           
   ENMAX  =  400.000; ENMIN  =  300.000 eV                                      
   ICORE  =        2    local potential                                         
   LCOR   =        T    correct aug charges                                     
   LPAW   =        T    paw PP                                                  
   EAUG   =  605.392                                                            
   DEXC   =    0.000                                                            
   RMAX   =    1.553    core radius for proj-oper                               
   RAUG   =    1.300    factor for augmentation sphere                          
   RDEP   =    1.550    radius for radial grids                                 
   RDEPT  =    1.329    core radius for aug-charge                              
                                                                                
   Atomic configuration                                                         
    4 entries                                                                   
     n  l   j            E        occ.                                          
     1  0  0.50      -514.6923   2.0000                                         
     2  0  0.50       -23.9615   2.0000                                         
     2  1  0.50        -9.0305   4.0000                                         
     3  2  1.50        -9.5241   0.0000                                         
   Description                                                                  
     l       E           TYP  RCUT    TYP  RCUT                                 
     0    -23.9615318     23  1.200                                             
     0     -9.5240782     23  1.200                                             
     1     -9.0304911     23  1.520                                             
     1      8.1634956     23  1.520                                             
     2     -9.5240782      7  1.500                                             
  local pseudopotential read in
  partial core-charges read in
  partial kinetic energy density read in
  kinetic energy density of atom read in
  atomic valenz-charges read in
  non local Contribution for L=           0  read in
    real space projection operators read in
  non local Contribution for L=           0  read in
    real space projection operators read in
  non local Contribution for L=           1  read in
    real space projection operators read in
  non local Contribution for L=           1  read in
    real space projection operators read in
    PAW grid and wavefunctions read in
 
   number of l-projection  operators is LMAX  =           4
   number of lm-projection operators is LMMAX =           8
 
 Optimization of the real space projectors (new method)

 maximal supplied QI-value         = 22.11
 optimisation between [QCUT,QGAM] = [ 11.94, 23.88] = [ 39.92,159.67] Ry 
 Optimized for a Real-space Cutoff    1.11 Angstroem

   l    n(q)    QCUT    max X(q) W(low)/X(q) W(high)/X(q)  e(spline) 
   0      8    11.939    53.033    0.41E-03    0.69E-03    0.53E-07
   0      8    11.939    34.740    0.40E-03    0.68E-03    0.52E-07
   1      7    11.939    30.949    0.26E-03    0.22E-03    0.14E-06
   1      7    11.939    19.518    0.24E-03    0.20E-03    0.13E-06
 Optimization of the real space projectors (new method)

 maximal supplied QI-value         = 25.13
 optimisation between [QCUT,QGAM] = [ 11.81, 23.88] = [ 39.08,159.64] Ry 
 Optimized for a Real-space Cutoff    1.25 Angstroem

   l    n(q)    QCUT    max X(q) W(low)/X(q) W(high)/X(q)  e(spline) 
   0      9    11.813    79.467    0.37E-04    0.68E-04    0.41E-06
   0      9    11.813    66.151    0.38E-04    0.67E-04    0.41E-06
   1      8    11.813    20.169    0.33E-03    0.30E-03    0.71E-06
   1      8    11.813    14.454    0.33E-03    0.31E-03    0.72E-06
 Optimization of the real space projectors (new method)

 maximal supplied QI-value         = 25.13
 optimisation between [QCUT,QGAM] = [ 11.81, 23.88] = [ 39.08,159.64] Ry 
 Optimized for a Real-space Cutoff    1.05 Angstroem

   l    n(q)    QCUT    max X(q) W(low)/X(q) W(high)/X(q)  e(spline) 
   0      7    11.813   115.676    0.42E-03    0.31E-03    0.23E-06
   0      7    11.813    87.132    0.42E-03    0.31E-03    0.23E-06
   1      7    11.813     4.429    0.34E-03    0.52E-04    0.16E-06
   1      7    11.813     2.733    0.27E-03    0.31E-04    0.13E-06
 Optimization of the real space projectors (new method)

 maximal supplied QI-value         = 24.76
 optimisation between [QCUT,QGAM] = [ 11.88, 24.01] = [ 39.54,161.47] Ry 
 Optimized for a Real-space Cutoff    1.05 Angstroem

   l    n(q)    QCUT    max X(q) W(low)/X(q) W(high)/X(q)  e(spline) 
   0      7    11.883    14.049    0.20E-03    0.16E-03    0.14E-06
   0      7    11.883     8.945    0.29E-03    0.20E-03    0.19E-06
   1      7    11.883     7.086    0.38E-03    0.88E-04    0.22E-06
   1      7    11.883     6.747    0.34E-03    0.55E-04    0.20E-06
 Optimization of the real space projectors (new method)

 maximal supplied QI-value         = 24.76
 optimisation between [QCUT,QGAM] = [ 11.88, 24.01] = [ 39.54,161.47] Ry 
 Optimized for a Real-space Cutoff    1.05 Angstroem

   l    n(q)    QCUT    max X(q) W(low)/X(q) W(high)/X(q)  e(spline) 
   0      7    11.883    20.381    0.32E-03    0.21E-03    0.20E-06
   0      7    11.883    15.268    0.35E-03    0.22E-03    0.22E-06
   1      7    11.883     5.964    0.44E-03    0.69E-04    0.24E-06
   1      7    11.883     5.382    0.38E-03    0.34E-04    0.20E-06
  PAW_PBE B 06Sep2000                   :
 energy of atom  1       EATOM=  -71.1703
 kinetic energy error for atom=    0.0009 (will be added to EATOM!!)
  PAW_PBE N 08Apr2002                   :
 energy of atom  2       EATOM= -264.5486
 kinetic energy error for atom=    0.0116 (will be added to EATOM!!)
  PAW_PBE C 08Apr2002                   :
 energy of atom  3       EATOM= -147.1560
 kinetic energy error for atom=    0.0066 (will be added to EATOM!!)
  PAW_PBE F 08Apr2002                   :
 energy of atom  4       EATOM= -659.6475
 kinetic energy error for atom=    0.0296 (will be added to EATOM!!)
  PAW_PBE O 08Apr2002                   :
 energy of atom  5       EATOM= -432.3788
 kinetic energy error for atom=    0.0194 (will be added to EATOM!!)
 
 
 POSCAR: B N C F O                               
  positions in direct lattice
  velocities in cartesian coordinates

 METAGGA = SCAN     LMAXTAU =  6    LMIXTAU =  F

 exchange correlation table for  LEXCH =        8
   RHO(1)=    0.500       N(1)  =     2000
   RHO(2)=  100.500       N(2)  =     4000

 VTST: version 3.1, (03/28/14)

 CHAIN: initializing optimizer
 
 OPT: Using Conjugate-Gradient optimizer
 OPT: CG, Init
 OPT: CG, FDSTEP      0.005000
 OPT: CG, MAXMOVE      0.200000
 
 CHAIN: Read ICHAIN            2
 
 POSCAR: B N C F O                               
  positions in direct lattice
  velocities in cartesian coordinates
 CHAIN: Running the Dimer method

 Dimer: -----------------
 Dimer: Input Parameters
 Dimer:   Seed      0
 Dimer: RotMax      4
 Dimer:     dR      0.005000
 Dimer:  FNMax      1.000000
 Dimer:  FNMin      0.010000
 Dimer: -----------------
 


--------------------------------------------------------------------------------------------------------


 ion  position               nearest neighbor table
   1  0.111  0.056  0.500-  37 1.45  43 1.45  42 1.45
   2  0.111  0.222  0.500-  44 1.45  38 1.45  37 1.45
   3  0.111  0.389  0.500-  45 1.45  38 1.45  39 1.45
   4  0.111  0.556  0.500-  46 1.45  39 1.45  40 1.45
   5  0.111  0.722  0.500-  40 1.45  47 1.45  41 1.45
   6  0.111  0.889  0.500-  48 1.45  42 1.45  41 1.45
   7  0.278  0.056  0.500-  43 1.45  49 1.45  48 1.45
   8  0.278  0.222  0.500-  44 1.45  50 1.45  43 1.45
   9  0.278  0.389  0.500-  45 1.45  51 1.45  44 1.45
  10  0.278  0.556  0.500-  45 1.45  52 1.45  46 1.45
  11  0.278  0.722  0.500-  46 1.45  53 1.45  47 1.45
  12  0.278  0.889  0.500-  47 1.45  54 1.45  48 1.45
  13  0.444  0.056  0.500-  49 1.45  54 1.45  55 1.45
  14  0.444  0.222  0.500-  50 1.45  56 1.45  49 1.45
  15  0.444  0.389  0.500-  51 1.45  57 1.45  50 1.45
  16  0.444  0.556  0.500-  52 1.45  58 1.45  51 1.45
  17  0.444  0.722  0.500-  52 1.45  59 1.45  53 1.45
  18  0.444  0.889  0.500-  53 1.45  60 1.45  54 1.45
  19  0.611  0.056  0.500-  60 1.45  55 1.45  61 1.45
  20  0.611  0.222  0.500-  56 1.45  62 1.45  55 1.45
  21  0.611  0.389  0.500-  57 1.45  63 1.45  56 1.45
  22  0.611  0.556  0.500-  58 1.45  57 1.45  64 1.45
  23  0.611  0.722  0.500-  58 1.45  59 1.45  65 1.45
  24  0.611  0.889  0.500-  59 1.45  66 1.45  60 1.45
  25  0.778  0.056  0.500-  67 1.45  66 1.45  61 1.45
  26  0.778  0.222  0.500-  68 1.45  62 1.45  61 1.45
  27  0.778  0.389  0.500-  63 1.45  69 1.45  62 1.45
  28  0.778  0.556  0.500-  64 1.45  63 1.45  70 1.45
  29  0.778  0.722  0.500-  64 1.45  65 1.45  71 1.45
  30  0.778  0.889  0.500-  65 1.45  72 1.45  66 1.45
  31  0.944  0.056  0.500-  37 1.45  67 1.45  72 1.45
  32  0.944  0.222  0.500-  38 1.45  68 1.45  67 1.45
  33  0.944  0.389  0.500-  39 1.45  68 1.45  69 1.45
  34  0.944  0.556  0.500-  40 1.45  69 1.45  70 1.45
  35  0.944  0.722  0.500-  70 1.45  71 1.45  41 1.45
  36  0.944  0.889  0.500-  42 1.45  72 1.45  71 1.45
  37  0.056  0.111  0.500-  31 1.45   1 1.45   2 1.45
  38  0.056  0.278  0.500-  32 1.45   2 1.45   3 1.45
  39  0.056  0.444  0.500-  33 1.45   4 1.45   3 1.45
  40  0.056  0.611  0.500-   5 1.45  34 1.45   4 1.45
  41  0.056  0.778  0.500-   6 1.45  35 1.45   5 1.45
  42  0.056  0.944  0.500-  36 1.45   6 1.45   1 1.45
  43  0.222  0.111  0.500-   7 1.45   1 1.45   8 1.45
  44  0.222  0.278  0.500-   2 1.45   8 1.45   9 1.45
  45  0.222  0.444  0.500-   3 1.45  10 1.45   9 1.45
  46  0.222  0.611  0.500-  11 1.45   4 1.45  10 1.45
  47  0.222  0.778  0.500-  12 1.45   5 1.45  11 1.45
  48  0.222  0.944  0.500-   6 1.45  12 1.45   7 1.45
  49  0.389  0.111  0.500-  13 1.45   7 1.45  14 1.45
  50  0.389  0.278  0.500-  14 1.45   8 1.45  15 1.45
  51  0.389  0.444  0.500-  15 1.45   9 1.45  16 1.45
  52  0.389  0.611  0.500-  17 1.45  10 1.45  16 1.45
  53  0.389  0.778  0.500-  18 1.45  11 1.45  17 1.45
  54  0.389  0.944  0.500-  13 1.45  12 1.45  18 1.45
  55  0.556  0.111  0.500-  19 1.45  13 1.45  20 1.45
  56  0.556  0.278  0.500-  20 1.45  14 1.45  21 1.45
  57  0.556  0.444  0.500-  21 1.45  22 1.45  15 1.45
  58  0.556  0.611  0.500-  23 1.45  22 1.45  16 1.45
  59  0.556  0.778  0.500-  24 1.45  23 1.45  17 1.45
  60  0.556  0.944  0.500-  19 1.45  18 1.45  24 1.45
  61  0.722  0.111  0.500-  19 1.45  26 1.45  25 1.45
  62  0.722  0.278  0.500-  20 1.45  26 1.45  27 1.45
  63  0.722  0.444  0.500-  27 1.45  28 1.45  21 1.45
  64  0.722  0.611  0.500-  29 1.45  28 1.45  22 1.45
  65  0.722  0.778  0.500-  30 1.45  29 1.45  23 1.45
  66  0.722  0.944  0.500-  25 1.45  30 1.45  24 1.45
  67  0.889  0.111  0.500-  25 1.45  31 1.45  32 1.45
  68  0.889  0.278  0.500-  26 1.45  33 1.45  32 1.45
  69  0.889  0.444  0.500-  34 1.45  27 1.45  33 1.45
  70  0.889  0.611  0.500-  35 1.45  34 1.45  28 1.45
  71  0.889  0.778  0.500-  36 1.45  35 1.45  29 1.45
  72  0.889  0.944  0.500-  36 1.45  30 1.45  31 1.45
  73  0.374  0.312  0.673-  76 1.34  78 1.34  77 1.35  74 1.53
  74  0.355  0.310  0.630-  80 1.33  79 1.33  73 1.53  75 1.93
  75  0.342  0.427  0.617-  82 1.20  81 1.20  74 1.93
  76  0.462  0.395  0.683-  73 1.34
  77  0.378  0.229  0.683-  73 1.35
  78  0.297  0.313  0.692-  73 1.34
  79  0.434  0.317  0.610-  74 1.33
  80  0.269  0.227  0.620-  74 1.33
  81  0.429  0.496  0.613-  75 1.20
  82  0.252  0.396  0.616-  75 1.20
 

IMPORTANT INFORMATION: All symmetrisations will be switched off!
NOSYMM: (Re-)initialisation of all symmetry stuff for point group C_1.

 
 
 KPOINTS: K-Point Grid                            

Automatic generation of k-mesh.
Space group operators:
 irot       det(A)        alpha          n_x          n_y          n_z        tau_x        tau_y        tau_z
    1     1.000000     0.000000     1.000000     0.000000     0.000000     0.000000     0.000000     0.000000
 
 Subroutine IBZKPT returns following result:
 ===========================================
 
 Found      5 irreducible k-points:
 
 Following reciprocal coordinates:
            Coordinates               Weight
  0.000000  0.000000  0.000000      1.000000
  0.333333  0.000000  0.000000      2.000000
  0.000000  0.333333  0.000000      2.000000
  0.333333  0.333333  0.000000      2.000000
 -0.333333  0.333333  0.000000      2.000000
 
 Following cartesian coordinates:
            Coordinates               Weight
  0.000000  0.000000  0.000000      1.000000
  0.022114 -0.012768  0.000000      2.000000
  0.022114  0.012768  0.000000      2.000000
  0.044229  0.000000  0.000000      2.000000
  0.000000  0.025535  0.000000      2.000000
 


--------------------------------------------------------------------------------------------------------




 Dimension of arrays:
   k-points           NKPTS =      5   k-points in BZ     NKDIM =      5   number of bands    NBANDS=    256
   number of dos      NEDOS =   1200   number of ions     NIONS =     82
   non local maximal  LDIM  =      4   non local SUM 2l+1 LMDIM =      8
   total plane-waves  NPLWV = ******
   max r-space proj   IRMAX =   2059   max aug-charges    IRDMAX=   4038
   dimension x,y,z NGX =    90 NGY =   90 NGZ =  210
   dimension x,y,z NGXF=   180 NGYF=  180 NGZF=  420
   support grid    NGXF=   180 NGYF=  180 NGZF=  420
   ions per type =              36  36   3   5   2
   NGX,Y,Z   is equivalent  to a cutoff of   9.93,  9.93,  9.94 a.u.
   NGXF,Y,Z  is equivalent  to a cutoff of  19.85, 19.85, 19.88 a.u.

 SYSTEM =  hBN                                     
 POSCAR =  B N C F O                               

 Startparameter for this run:
   NWRITE =      2    write-flag & timer
   PREC   = normal    normal or accurate (medium, high low for compatibility)
   ISTART =      0    job   : 0-new  1-cont  2-samecut
   ICHARG =      2    charge: 1-file 2-atom 10-const
   ISPIN  =      2    spin polarized calculation?
   LNONCOLLINEAR =      F non collinear calculations
   LSORBIT =      F    spin-orbit coupling
   INIWAV =      1    electr: 0-lowe 1-rand  2-diag
   LASPH  =      T    aspherical Exc in radial PAW
   METAGGA=      F    non-selfconsistent MetaGGA calc.

 Electronic Relaxation 1
   ENCUT  =  550.0 eV  40.42 Ry    6.36 a.u.  28.82 28.82 67.15*2*pi/ulx,y,z
   ENINI  =  550.0     initial cutoff
   ENAUG  =  644.9 eV  augmentation charge cutoff
   NELM   =    100;   NELMIN=  2; NELMDL=  0     # of ELM steps 
   EDIFF  = 0.1E-04   stopping-criterion for ELM
   LREAL  =      T    real-space projection
   NLSPLINE    = F    spline interpolate recip. space projectors
   LCOMPAT=      F    compatible to vasp.4.4
   GGA_COMPAT  = T    GGA compatible to vasp.4.4-vasp.4.6
   LMAXPAW     = -100 max onsite density
   LMAXMIX     =    2 max onsite mixed and CHGCAR
   VOSKOWN=      0    Vosko Wilk Nusair interpolation
   ROPT   =   -0.00050  -0.00050  -0.00050  -0.00050
   ROPT   =   -0.00050
 Ionic relaxation
   EDIFFG = -.5E-01   stopping-criterion for IOM
   NSW    =    500    number of steps for IOM
   NBLOCK =      1;   KBLOCK =    500    inner block; outer block 
   IBRION =      3    ionic relax: 0-MD 1-quasi-New 2-CG
   NFREE  =      0    steps in history (QN), initial steepest desc. (CG)
   ISIF   =      2    stress and relaxation
   IWAVPR =     11    prediction:  0-non 1-charg 2-wave 3-comb
   ISYM   =      0    0-nonsym 1-usesym 2-fastsym
   LCORR  =      T    Harris-Foulkes like correction to forces

   POTIM  = 0.0000    time-step for ionic-motion
   TEIN   =    0.0    initial temperature
   TEBEG  =    0.0;   TEEND  =   0.0 temperature during run
   SMASS  =  -3.00    Nose mass-parameter (am)
   estimated Nose-frequenzy (Omega)   =  0.10E-29 period in steps =  0.00 mass=  -0.519E-26a.u.
   SCALEE = 1.0000    scale energy and forces
   NPACO  =    256;   APACO  = 16.0  distance and # of slots for P.C.
   PSTRESS=    0.0 pullay stress

  Mass of Ions in am
   POMASS =  10.81 14.00 12.01 19.00 16.00
  Ionic Valenz
   ZVAL   =   3.00  5.00  4.00  7.00  6.00
  Atomic Wigner-Seitz radii
   RWIGS  =  -1.00 -1.00 -1.00 -1.00 -1.00
  virtual crystal weights 
   VCA    =   1.00  1.00  1.00  1.00  1.00
   NELECT =     347.0000    total number of electrons
   NUPDOWN=      -1.0000    fix difference up-down

 DOS related values:
   EMIN   = -10.00;   EMAX   =  5.00  energy-range for DOS
   EFERMI =   0.00
   ISMEAR =     0;   SIGMA  =   0.05  broadening in eV -4-tet -1-fermi 0-gaus

 Electronic relaxation 2 (details)
   IALGO  =     68    algorithm
   LDIAG  =      T    sub-space diagonalisation (order eigenvalues)
   LSUBROT=      F    optimize rotation matrix (better conditioning)
   TURBO    =      0    0=normal 1=particle mesh
   IRESTART =      0    0=no restart 2=restart with 2 vectors
   NREBOOT  =      0    no. of reboots
   NMIN     =      0    reboot dimension
   EREF     =   0.00    reference energy to select bands
   IMIX   =      4    mixing-type and parameters
     AMIX     =   0.40;   BMIX     =  1.00
     AMIX_MAG =   1.60;   BMIX_MAG =  1.00
     AMIN     =   0.10
     WC   =   100.;   INIMIX=   1;  MIXPRE=   1;  MAXMIX= -45

 Intra band minimization:
   WEIMIN = 0.0010     energy-eigenvalue tresh-hold
   EBREAK =  0.98E-08  absolut break condition
   DEPER  =   0.30     relativ break condition  

   TIME   =   0.40     timestep for ELM

  volume/ion in A,a.u.               =      84.26       568.60
  Fermi-wavevector in a.u.,A,eV,Ry     =   0.604008  1.141409  4.963752  0.364825
  Thomas-Fermi vector in A             =   1.657201
 
 Write flags
   LWAVE        =      T    write WAVECAR
   LDOWNSAMPLE  =      F    k-point downsampling of WAVECAR
   LCHARG       =      F    write CHGCAR
   LVTOT        =      F    write LOCPOT, total local potential
   LVHAR        =      F    write LOCPOT, Hartree potential only
   LELF         =      F    write electronic localiz. function (ELF)
   LORBIT       =     11    0 simple, 1 ext, 2 COOP (PROOUT), +10 PAW based schemes


 Dipole corrections
   LMONO  =      F    monopole corrections only (constant potential shift)
   LDIPOL =      F    correct potential (dipole corrections)
   IDIPOL =      0    1-x, 2-y, 3-z, 4-all directions 
   EPSILON=  1.0000000 bulk dielectric constant

 Exchange correlation treatment:
   GGA     =    --    GGA type
   LEXCH   =     8    internal setting for exchange type
   VOSKOWN=      0    Vosko Wilk Nusair interpolation
   LHFCALC =     F    Hartree Fock is set to
   LHFONE  =     F    Hartree Fock one center treatment
   AEXX    =    0.0000 exact exchange contribution

 Linear response parameters
   LEPSILON=     F    determine dielectric tensor
   LRPA    =     F    only Hartree local field effects (RPA)
   LNABLA  =     F    use nabla operator in PAW spheres
   LVEL    =     F    velocity operator in full k-point grid
   LINTERFAST=   F  fast interpolation
   KINTER  =     0    interpolate to denser k-point grid
   CSHIFT  =0.1000    complex shift for real part using Kramers Kronig
   OMEGAMAX=  -1.0    maximum frequency
   DEG_THRESHOLD= 0.2000000E-02 threshold for treating states as degnerate
   RTIME   =   -0.100 relaxation time in fs
  (WPLASMAI=    0.000 imaginary part of plasma frequency in eV, 0.658/RTIME)
   DFIELD  = 0.0000000 0.0000000 0.0000000 field for delta impulse in time
 
 Orbital magnetization related:
   ORBITALMAG=     F  switch on orbital magnetization
   LCHIMAG   =     F  perturbation theory with respect to B field
   DQ        =  0.001000  dq finite difference perturbation B field
   LLRAUG    =     F  two centre corrections for induced B field

 Solvation model:
   LSOL    =     T         switch on solvation model
   EB_K    = 78.400000     relative permittivity of the bulk solvent
   SIGMA_K =  0.600000     width of the dielectric cavity
   NC_K    =  0.002500     cutoff charge density
   TAU     =  0.000000     cavity surface tension
   LAMBDA_D_K    =  3.040000     Debye length in Angstroms
   LRHOB     =     F     write boundcharge  density
   LRHOION     =     F     write ioniccharge density



--------------------------------------------------------------------------------------------------------


 quickmin algorithm: (dynamic with friction)
   using selective dynamics as specified on POSCAR
 charge density and potential will be updated during run
 spin polarized calculation
 RMM-DIIS sequential band-by-band and
  variant of blocked Davidson during initial phase
 perform sub-space diagonalisation
    before iterative eigenvector-optimisation
 modified Broyden-mixing scheme, WC =      100.0
 initial mixing is a Kerker type mixing with AMIX =  0.4000 and BMIX =      1.0000
 Hartree-type preconditioning will be used
 using additional bands           82
 real space projection scheme for non local part
 use partial core corrections
 calculate Harris-corrections to forces 
   (improved forces if not selfconsistent)
 use gradient corrections 
 use of overlap-Matrix (Vanderbilt PP)
 Gauss-broadening in eV      SIGMA  =   0.05


--------------------------------------------------------------------------------------------------------


  energy-cutoff  :      550.00
  volume of cell :     6909.18
      direct lattice vectors                 reciprocal lattice vectors
     7.536550057-13.053746059  0.000000000     0.066343353 -0.038303181  0.000000000
     7.536550057 13.053746059  0.000000000     0.066343353  0.038303181  0.000000000
     0.000000000  0.000000000 35.114664386     0.000000000  0.000000000  0.028478131

  length of vectors
    15.073150730 15.073150730 35.114664386     0.076606620  0.076606620  0.028478131


 
 k-points in units of 2pi/SCALE and weight: K-Point Grid                            
   0.00000000  0.00000000  0.00000000       0.111
   0.02211445 -0.01276773  0.00000000       0.222
   0.02211445  0.01276773  0.00000000       0.222
   0.04422890  0.00000000  0.00000000       0.222
   0.00000000  0.02553545  0.00000000       0.222
 
 k-points in reciprocal lattice and weights: K-Point Grid                            
   0.00000000  0.00000000  0.00000000       0.111
   0.33333333  0.00000000  0.00000000       0.222
   0.00000000  0.33333333  0.00000000       0.222
   0.33333333  0.33333333  0.00000000       0.222
  -0.33333333  0.33333333  0.00000000       0.222
 
 position of ions in fractional coordinates (direct lattice) 
   0.11110752  0.05555868  0.50000643
   0.11110512  0.22222533  0.49996632
   0.11111924  0.38889235  0.49995308
   0.11111537  0.55555461  0.49997586
   0.11111259  0.72222284  0.50001376
   0.11111132  0.88889158  0.50001886
   0.27777856  0.05555727  0.50001332
   0.27778215  0.22223349  0.49994571
   0.27776104  0.38889402  0.49985729
   0.27778050  0.55555782  0.49992192
   0.27777968  0.72221908  0.49998690
   0.27777874  0.88888904  0.50002121
   0.44444541  0.05555675  0.50002152
   0.44444508  0.22222526  0.49999983
   0.44445421  0.38889922  0.49991779
   0.44444716  0.55556369  0.49991388
   0.44444251  0.72221517  0.49995808
   0.44444362  0.88888520  0.50001064
   0.61111157  0.05555580  0.50001641
   0.61111110  0.22222447  0.50001620
   0.61110832  0.38889330  0.49998632
   0.61110261  0.55555877  0.49995236
   0.61110298  0.72221533  0.49996989
   0.61110858  0.88888447  0.50000427
   0.77777872  0.05555652  0.50001536
   0.77778004  0.22222530  0.50001454
   0.77777675  0.38889282  0.50001748
   0.77777150  0.55555706  0.50000403
   0.77777110  0.72222000  0.50000180
   0.77777418  0.88888579  0.50001441
   0.94444477  0.05555840  0.50001291
   0.94444869  0.22222663  0.49999416
   0.94444936  0.38889262  0.50000067
   0.94444489  0.55555731  0.50001652
   0.94444264  0.72222355  0.50001671
   0.94444236  0.88889009  0.50001958
   0.05554909  0.11110871  0.50000183
   0.05554417  0.27777371  0.49996181
   0.05554965  0.44444555  0.49996980
   0.05555561  0.61111291  0.50000868
   0.05555546  0.77777940  0.50001899
   0.05555337  0.94444495  0.50002009
   0.22221704  0.11110360  0.50000008
   0.22220634  0.27776184  0.49994349
   0.22220388  0.44445033  0.49987292
   0.22221869  0.61111993  0.49995560
   0.22222331  0.77777936  0.50001560
   0.22222262  0.94444470  0.50002355
   0.38889078  0.11111083  0.50002153
   0.38888742  0.27776788  0.49997451
   0.38888197  0.44443763  0.49988904
   0.38889247  0.61112842  0.49991569
   0.38889088  0.77778218  0.49998956
   0.38889045  0.94444550  0.50002489
   0.55555741  0.11111222  0.50002033
   0.55555775  0.27777673  0.50000874
   0.55557094  0.44444834  0.49994575
   0.55556836  0.61112604  0.49993133
   0.55555867  0.77778467  0.49997783
   0.55555663  0.94444626  0.50001424
   0.72222268  0.11111290  0.50001524
   0.72222248  0.27777910  0.50002012
   0.72222263  0.44444589  0.50000619
   0.72222309  0.61111480  0.49998709
   0.72222069  0.77777940  0.49999964
   0.72222166  0.94444590  0.50001627
   0.88888709  0.11111240  0.50001204
   0.88888760  0.27777898  0.50000587
   0.88888841  0.44444607  0.50002061
   0.88888746  0.61111287  0.50001801
   0.88888685  0.77777889  0.50001684
   0.88888684  0.94444529  0.50002310
   0.37362577  0.31249463  0.67305820
   0.35522512  0.31008564  0.63004052
   0.34222939  0.42729798  0.61656246
   0.46209717  0.39542034  0.68255321
   0.37791488  0.22865954  0.68331820
   0.29698861  0.31283762  0.69213809
   0.43366806  0.31683422  0.61044661
   0.26872667  0.22674897  0.62020641
   0.42891816  0.49570530  0.61281650
   0.25178296  0.39585941  0.61593171
 
 position of ions in cartesian coordinates  (Angst):
   1.25608819 -0.72512038 17.55755782
   2.51216159  1.45053499 17.55614944
   3.76836239  3.62597975 17.55568466
   5.02439167  5.80159700 17.55648466
   6.28047420  7.97727805 17.55781528
   7.53657189 10.15294608 17.55799431
   2.51220217 -2.90082038 17.55779992
   3.76839287 -0.72511814 17.55542583
   5.02427928  1.45070169 17.55232097
   6.28049598  3.62603463 17.55459048
   7.53654070  5.80159917 17.55687228
   8.79265010  7.97727874 17.55807707
   3.76829129 -5.07645384 17.55808778
   5.02439436 -2.90080115 17.55732621
   6.28060988 -0.72520067 17.55444549
   7.53663183  1.45048690 17.55430817
   8.79257402  3.62597381 17.55586019
  10.04869939  5.80162747 17.55770589
   5.02437204 -7.25208399 17.55790857
   6.28047524 -5.07642730 17.55790113
   7.53656223 -2.90073849 17.55685167
   8.79260190 -0.72505524 17.55565935
  10.04862016  1.45043246 17.55627476
  11.30477272  3.62601584 17.55748207
   6.28047278 -9.42770528 17.55787160
   7.53659028 -7.25207059 17.55784284
   8.79266367 -5.07639205 17.55794590
  10.04869746 -2.90073094 17.55747385
  11.30475805 -0.72514995 17.55739546
  12.56086626  1.45042275 17.55783820
   7.53657394-11.60329694 17.55778564
   8.79270697 -9.42770343 17.55712700
  10.04879853 -7.25209663 17.55735588
  11.30484165 -5.07643967 17.55791226
  12.56091320 -2.90079150 17.55791880
  13.81700177 -0.72516520 17.55801969
   1.25602488  0.72526123 17.55739644
   2.51206692  2.90092793 17.55599102
   3.76823887  5.07654837 17.55627166
   5.02438070  7.25210386 17.55763697
   6.28046982  9.42772791 17.55799911
   7.53653739 11.60336498 17.55803780
   2.51208764 -1.45044662 17.55733500
   3.76803523  0.72520744 17.55534776
   5.02427281  2.90114876 17.55286987
   6.28049822  5.07661806 17.55577325
   7.53657022  7.25208755 17.55787993
   8.79264659  9.42770362 17.55815911
   3.76828717 -3.62606887 17.55808806
   5.02428099 -1.45052625 17.55643724
   6.28035492  0.72520947 17.55343597
   7.53670744  2.90101163 17.55437170
   8.79268990  5.07648834 17.55696573
  10.04875308  7.25207451 17.55820619
   5.02438904 -5.80167464 17.55804607
   6.28046705 -3.62608289 17.55763913
   7.53669537 -1.45056629 17.55542735
   8.79285081  0.72523583 17.55492076
  10.04880883  2.90088175 17.55655370
  11.30484687  5.07646650 17.55783231
   6.28047526 -7.97727188 17.55786726
   7.53656198 -5.80165104 17.55803866
   8.79265571 -3.62602697 17.55754956
  10.04876775 -1.45037935 17.55687900
  11.30482580  0.72524934 17.55731949
  12.56092356  2.90085881 17.55790356
   7.53654623-10.15287327 17.55775507
   8.79264101 -7.97725676 17.55753838
  10.04874203 -5.80163752 17.55805601
  11.30482755 -3.62599894 17.55796449
  12.56090975 -1.45037505 17.55792353
  13.81699930  0.72524589 17.55814338
   5.17098076 -0.79799041 23.63421274
   5.01414784 -0.58923928 22.12366141
   5.79958154  1.11046365 21.65038373
   6.46272363 -0.87038240 23.96762677
   4.57147850 -1.94834137 23.99448936
   4.59598592  0.20688888 24.30419668
   5.65619806 -1.52511927 21.43562767
   3.73417700 -0.54796623 21.77833990
   6.96847102  0.87182235 21.51884581
   4.88098911  1.88073738 21.62823520
 


--------------------------------------------------------------------------------------------------------


 k-point  1 :   0.0000 0.0000 0.0000  plane waves:  202395
 k-point  2 :   0.3333 0.0000 0.0000  plane waves:  202358
 k-point  3 :   0.0000 0.3333 0.0000  plane waves:  202358
 k-point  4 :   0.3333 0.3333 0.0000  plane waves:  202335
 k-point  5 :  -0.3333 0.3333 0.0000  plane waves:  202358

 maximum and minimum number of plane-waves per node :    202395   202335

 maximum number of plane-waves:    202395
 maximum index in each direction: 
   IXMAX=   29   IYMAX=   28   IZMAX=   67
   IXMIN=  -29   IYMIN=  -29   IZMIN=  -67


 serial   3D FFT for wavefunctions
 parallel 3D FFT for charge:
    minimum data exchange during FFTs selected (reduces bandwidth)


 total amount of memory used by VASP MPI-rank0  1602130. kBytes
=======================================================================

   base      :      30000. kBytes
   nonlr-proj:      12081. kBytes
   fftplans  :      65180. kBytes
   grid      :     454720. kBytes
   one-center:        503. kBytes
   wavefun   :    1039646. kBytes
 
     INWAV:  cpu time    0.0000: real time    0.0000
 Broyden mixing: mesh for mixing (old mesh)
   NGX = 57   NGY = 57   NGZ =135
  (NGX  =180   NGY  =180   NGZ  =420)
  gives a total of 438615 points

 initial charge density was supplied:
 charge density of overlapping atoms calculated
 number of electron     347.0000000 magnetization      82.0000000
 keeping initial charge density in first step


--------------------------------------------------------------------------------------------------------


 Maximum index for non-local projection operator         1953
 Maximum index for augmentation-charges          483 (set IRDMAX)


--------------------------------------------------------------------------------------------------------


 First call to EWALD:  gamma=   0.093
 Maximum number of real-space cells 4x 4x 2
 Maximum number of reciprocal cells 2x 2x 5

    FEWALD:  cpu time    0.0055: real time    0.0048


--------------------------------------- Iteration      1(   1)  ---------------------------------------


    POTLOK:  cpu time   81.8277: real time   81.8859
    SETDIJ:  cpu time    1.7924: real time    1.3944
     EDDAV:  cpu time  152.8421: real time   91.8343
       DOS:  cpu time    0.1227: real time    0.0933
    --------------------------------------------
      LOOP:  cpu time  236.5851: real time  175.2080

 eigenvalue-minimisations  :  6104
 total energy-change (2. order) : 0.3500801E+04  (-0.1182766E+05)
 number of electron     347.0000000 magnetization      82.0000000
 augmentation part      347.0000000 magnetization      82.0000000

 Free energy of the ion-electron system (eV)
  ---------------------------------------------------
  alpha Z        PSCENC =        92.14382556
  Ewald energy   TEWEN  =    110882.94578193
  -Hartree energ DENC   =   -123572.09579341
  -exchange      EXHF   =         0.00000000
  -V(xc)+E(xc)   XCENC  =      1477.67468442
  PAW double counting   =     12389.81687870   -12541.43845553
  entropy T*S    EENTRO =        -0.05430712
  eigenvalues    EBANDS =     -2297.31409167
  atomic energy  EATOM  =     16689.68470767
  Solvation  Ediel_sol  =       379.43728730
  ---------------------------------------------------
  free energy    TOTEN  =      3500.80051785 eV

  energy without entropy =     3500.85482497  energy(sigma->0) =     3500.82767141


--------------------------------------------------------------------------------------------------------




--------------------------------------- Iteration      1(   2)  ---------------------------------------


     EDDAV:  cpu time  187.2053: real time  110.8064
       DOS:  cpu time    0.0023: real time    0.0012
    --------------------------------------------
      LOOP:  cpu time  187.2076: real time  110.8075

 eigenvalue-minimisations  :  8152
 total energy-change (2. order) :-0.3413458E+04  (-0.3117183E+04)
 number of electron     347.0000000 magnetization      82.0000000
 augmentation part      347.0000000 magnetization      82.0000000

 Free energy of the ion-electron system (eV)
  ---------------------------------------------------
  alpha Z        PSCENC =        92.14382556
  Ewald energy   TEWEN  =    110882.94578193
  -Hartree energ DENC   =   -123572.09579341
  -exchange      EXHF   =         0.00000000
  -V(xc)+E(xc)   XCENC  =      1477.67468442
  PAW double counting   =     12389.81687870   -12541.43845553
  entropy T*S    EENTRO =        -0.00689487
  eigenvalues    EBANDS =     -5710.82000364
  atomic energy  EATOM  =     16689.68470767
  Solvation  Ediel_sol  =       379.43728730
  ---------------------------------------------------
  free energy    TOTEN  =        87.34201813 eV

  energy without entropy =       87.34891300  energy(sigma->0) =       87.34546557


--------------------------------------------------------------------------------------------------------




--------------------------------------- Iteration      1(   3)  ---------------------------------------


     EDDAV:  cpu time  162.7302: real time   97.2055
       DOS:  cpu time    0.0021: real time    0.0010
    --------------------------------------------
      LOOP:  cpu time  162.7323: real time   97.2065

 eigenvalue-minimisations  :  6600
 total energy-change (2. order) :-0.9491845E+03  (-0.9403023E+03)
 number of electron     347.0000000 magnetization      82.0000000
 augmentation part      347.0000000 magnetization      82.0000000

 Free energy of the ion-electron system (eV)
  ---------------------------------------------------
  alpha Z        PSCENC =        92.14382556
  Ewald energy   TEWEN  =    110882.94578193
  -Hartree energ DENC   =   -123572.09579341
  -exchange      EXHF   =         0.00000000
  -V(xc)+E(xc)   XCENC  =      1477.67468442
  PAW double counting   =     12389.81687870   -12541.43845553
  entropy T*S    EENTRO =        -0.00000000
  eigenvalues    EBANDS =     -6660.01137697
  atomic energy  EATOM  =     16689.68470767
  Solvation  Ediel_sol  =       379.43728730
  ---------------------------------------------------
  free energy    TOTEN  =      -861.84246033 eV

  energy without entropy =     -861.84246033  energy(sigma->0) =     -861.84246033


--------------------------------------------------------------------------------------------------------




--------------------------------------- Iteration      1(   4)  ---------------------------------------


     EDDAV:  cpu time  157.3969: real time   94.3005
       DOS:  cpu time    0.0020: real time    0.0010
    --------------------------------------------
      LOOP:  cpu time  157.3988: real time   94.3015

 eigenvalue-minimisations  :  6352
 total energy-change (2. order) :-0.4869493E+02  (-0.4827665E+02)
 number of electron     347.0000000 magnetization      82.0000000
 augmentation part      347.0000000 magnetization      82.0000000

 Free energy of the ion-electron system (eV)
  ---------------------------------------------------
  alpha Z        PSCENC =        92.14382556
  Ewald energy   TEWEN  =    110882.94578193
  -Hartree energ DENC   =   -123572.09579341
  -exchange      EXHF   =         0.00000000
  -V(xc)+E(xc)   XCENC  =      1477.67468442
  PAW double counting   =     12389.81687870   -12541.43845553
  entropy T*S    EENTRO =        -0.00000000
  eigenvalues    EBANDS =     -6708.70630417
  atomic energy  EATOM  =     16689.68470767
  Solvation  Ediel_sol  =       379.43728730
  ---------------------------------------------------
  free energy    TOTEN  =      -910.53738753 eV

  energy without entropy =     -910.53738753  energy(sigma->0) =     -910.53738753


--------------------------------------------------------------------------------------------------------




--------------------------------------- Iteration      1(   5)  ---------------------------------------


     EDDAV:  cpu time  159.6726: real time   95.9470
       DOS:  cpu time    0.0017: real time    0.0010
    CHARGE:  cpu time   15.8819: real time   14.9359
    MIXING:  cpu time    0.1453: real time    0.1405
    --------------------------------------------
      LOOP:  cpu time  175.7015: real time  111.0245

 eigenvalue-minimisations  :  6512
 total energy-change (2. order) :-0.1008791E+01  (-0.1005025E+01)
 number of electron     346.9999650 magnetization      77.9793082
 augmentation part       18.5009814 magnetization      77.5919214

 Broyden mixing:
  rms(total) = 0.65709E+01    rms(broyden)= 0.65700E+01
  rms(prec ) = 0.66663E+01
  weight for this iteration     100.00

 Free energy of the ion-electron system (eV)
  ---------------------------------------------------
  alpha Z        PSCENC =        92.14382556
  Ewald energy   TEWEN  =    110882.94578193
  -Hartree energ DENC   =   -123572.09579341
  -exchange      EXHF   =         0.00000000
  -V(xc)+E(xc)   XCENC  =      1477.67468442
  PAW double counting   =     12389.81687870   -12541.43845553
  entropy T*S    EENTRO =        -0.00000000
  eigenvalues    EBANDS =     -6709.71509561
  atomic energy  EATOM  =     16689.68470767
  Solvation  Ediel_sol  =       379.43728730
  ---------------------------------------------------
  free energy    TOTEN  =      -911.54617897 eV

  energy without entropy =     -911.54617897  energy(sigma->0) =     -911.54617897


--------------------------------------------------------------------------------------------------------




--------------------------------------- Iteration      1(   6)  ---------------------------------------


    POTLOK:  cpu time   76.3045: real time   76.4571
    SETDIJ:  cpu time    1.6570: real time    1.2546
    EDDIAG:  cpu time   22.8627: real time   18.2994
  RMM-DIIS:  cpu time  172.6720: real time  104.8175
    ORTHCH:  cpu time    2.1114: real time    1.0584
       DOS:  cpu time    0.0035: real time    0.0018
    CHARGE:  cpu time   15.8489: real time   14.8655
    MIXING:  cpu time    0.1401: real time    0.1015
    --------------------------------------------
      LOOP:  cpu time  291.6000: real time  216.8559

 eigenvalue-minimisations  :  5120
 total energy-change (2. order) : 0.2419105E+03  (-0.2820590E+02)
 number of electron     346.9999677 magnetization      73.2068278
 augmentation part       17.3990098 magnetization      71.2397701

 Broyden mixing:
  rms(total) = 0.33716E+01    rms(broyden)= 0.33713E+01
  rms(prec ) = 0.34168E+01
  weight for this iteration     100.00

 eigenvalues of (default mixing * dielectric matrix)
  average eigenvalue GAMMA=   1.0598
  1.0598

 Free energy of the ion-electron system (eV)
  ---------------------------------------------------
  alpha Z        PSCENC =        92.14382556
  Ewald energy   TEWEN  =    110882.94578193
  -Hartree energ DENC   =   -124229.72515426
  -exchange      EXHF   =         0.00000000
  -V(xc)+E(xc)   XCENC  =      1625.27695234
  PAW double counting   =     20307.22761108   -20466.00211297
  entropy T*S    EENTRO =        -0.00000000
  eigenvalues    EBANDS =     -5854.70485235
  atomic energy  EATOM  =     16689.68470767
  Solvation  Ediel_sol  =       283.51753232
  ---------------------------------------------------
  free energy    TOTEN  =      -669.63570868 eV

  energy without entropy =     -669.63570868  energy(sigma->0) =     -669.63570868


--------------------------------------------------------------------------------------------------------




--------------------------------------- Iteration      1(   7)  ---------------------------------------


    POTLOK:  cpu time   74.5796: real time   74.7261
    SETDIJ:  cpu time    1.6115: real time    1.2091
    EDDIAG:  cpu time   23.0159: real time   18.3036
  RMM-DIIS:  cpu time  173.5778: real time  105.0748
    ORTHCH:  cpu time    2.1096: real time    1.0574
       DOS:  cpu time    0.0021: real time    0.0010
    CHARGE:  cpu time   15.8763: real time   14.8899
    MIXING:  cpu time    0.1613: real time    0.1073
    --------------------------------------------
      LOOP:  cpu time  290.9341: real time  215.3691

 eigenvalue-minimisations  :  5124
 total energy-change (2. order) :-0.3463281E+02  (-0.8270264E+01)
 number of electron     346.9999698 magnetization      69.2178063
 augmentation part       16.2974399 magnetization      67.0158893

 Broyden mixing:
  rms(total) = 0.22935E+01    rms(broyden)= 0.22933E+01
  rms(prec ) = 0.23079E+01
  weight for this iteration     100.00

 eigenvalues of (default mixing * dielectric matrix)
  average eigenvalue GAMMA=   1.0545
  1.2980  0.8109

 Free energy of the ion-electron system (eV)
  ---------------------------------------------------
  alpha Z        PSCENC =        92.14382556
  Ewald energy   TEWEN  =    110882.94578193
  -Hartree energ DENC   =   -124694.95825331
  -exchange      EXHF   =         0.00000000
  -V(xc)+E(xc)   XCENC  =      1626.10194352
  PAW double counting   =     29041.10543511   -29204.99346853
  entropy T*S    EENTRO =        -0.00000000
  eigenvalues    EBANDS =     -5327.23161570
  atomic energy  EATOM  =     16689.68470767
  Solvation  Ediel_sol  =       190.93312547
  ---------------------------------------------------
  free energy    TOTEN  =      -704.26851828 eV

  energy without entropy =     -704.26851828  energy(sigma->0) =     -704.26851828


--------------------------------------------------------------------------------------------------------




--------------------------------------- Iteration      1(   8)  ---------------------------------------


    POTLOK:  cpu time   73.9838: real time   74.1295
    SETDIJ:  cpu time    1.5780: real time    1.1755
    EDDIAG:  cpu time   22.8864: real time   18.2581
  RMM-DIIS:  cpu time  172.9178: real time  104.8000
    ORTHCH:  cpu time    2.1148: real time    1.0621
       DOS:  cpu time    0.0024: real time    0.0012
    CHARGE:  cpu time   15.8295: real time   14.8457
    MIXING:  cpu time    0.1633: real time    0.1090
    --------------------------------------------
      LOOP:  cpu time  289.4760: real time  214.3810

 eigenvalue-minimisations  :  5121
 total energy-change (2. order) :-0.5165062E+01  (-0.1201869E+01)
 number of electron     346.9999699 magnetization      61.5527596
 augmentation part       16.1958142 magnetization      59.4978320

 Broyden mixing:
  rms(total) = 0.17128E+01    rms(broyden)= 0.17128E+01
  rms(prec ) = 0.17207E+01
  weight for this iteration     100.00

 eigenvalues of (default mixing * dielectric matrix)
  average eigenvalue GAMMA=   1.2779
  1.8130  1.3009  0.7200

 Free energy of the ion-electron system (eV)
  ---------------------------------------------------
  alpha Z        PSCENC =        92.14382556
  Ewald energy   TEWEN  =    110882.94578193
  -Hartree energ DENC   =   -124838.34336243
  -exchange      EXHF   =         0.00000000
  -V(xc)+E(xc)   XCENC  =      1627.00997123
  PAW double counting   =     34158.50058372   -34324.36828289
  entropy T*S    EENTRO =        -0.00447915
  eigenvalues    EBANDS =     -5139.32514896
  atomic energy  EATOM  =     16689.68470767
  Solvation  Ediel_sol  =       142.32282298
  ---------------------------------------------------
  free energy    TOTEN  =      -709.43358033 eV

  energy without entropy =     -709.42910117  energy(sigma->0) =     -709.43134075


--------------------------------------------------------------------------------------------------------




--------------------------------------- Iteration      1(   9)  ---------------------------------------


    POTLOK:  cpu time   75.7496: real time   75.9113
    SETDIJ:  cpu time    1.5897: real time    1.1872
    EDDIAG:  cpu time   22.9879: real time   18.3557
  RMM-DIIS:  cpu time  172.6431: real time  104.6455
    ORTHCH:  cpu time    2.0998: real time    1.0570
       DOS:  cpu time    0.0034: real time    0.0017
    CHARGE:  cpu time   15.8711: real time   14.8798
    MIXING:  cpu time    0.1615: real time    0.1074
    --------------------------------------------
      LOOP:  cpu time  291.1062: real time  216.1455

 eigenvalue-minimisations  :  5120
 total energy-change (2. order) :-0.4269312E+02  (-0.2517757E+01)
 number of electron     346.9999691 magnetization      57.7751325
 augmentation part       16.3091989 magnetization      56.3003451

 Broyden mixing:
  rms(total) = 0.11734E+01    rms(broyden)= 0.11733E+01
  rms(prec ) = 0.11764E+01
  weight for this iteration     100.00

 eigenvalues of (default mixing * dielectric matrix)
  average eigenvalue GAMMA=   1.3353
  2.5211  1.3893  0.8121  0.6189

 Free energy of the ion-electron system (eV)
  ---------------------------------------------------
  alpha Z        PSCENC =        92.14382556
  Ewald energy   TEWEN  =    110882.94578193
  -Hartree energ DENC   =   -125012.78068394
  -exchange      EXHF   =         0.00000000
  -V(xc)+E(xc)   XCENC  =      1605.03713870
  PAW double counting   =     40918.10496507   -41084.82562157
  entropy T*S    EENTRO =        -0.02000477
  eigenvalues    EBANDS =     -4928.15454099
  atomic energy  EATOM  =     16689.68470767
  Solvation  Ediel_sol  =        85.73773086
  ---------------------------------------------------
  free energy    TOTEN  =      -752.12670148 eV

  energy without entropy =     -752.10669671  energy(sigma->0) =     -752.11669910


--------------------------------------------------------------------------------------------------------




--------------------------------------- Iteration      1(  10)  ---------------------------------------


    POTLOK:  cpu time   74.1702: real time   74.3300
    SETDIJ:  cpu time    1.3541: real time    0.9510
    EDDIAG:  cpu time   22.8446: real time   18.2290
  RMM-DIIS:  cpu time  172.9323: real time  105.0657
    ORTHCH:  cpu time    2.1117: real time    1.0607
       DOS:  cpu time    0.0026: real time    0.0013
    CHARGE:  cpu time   15.8055: real time   14.8282
    MIXING:  cpu time    0.1692: real time    0.1144
    --------------------------------------------
      LOOP:  cpu time  289.3902: real time  214.5804

 eigenvalue-minimisations  :  5125
 total energy-change (2. order) :-0.1470545E+02  (-0.7397336E+00)
 number of electron     346.9999688 magnetization      54.8654617
 augmentation part       16.2738173 magnetization      53.9434278

 Broyden mixing:
  rms(total) = 0.10623E+01    rms(broyden)= 0.10622E+01
  rms(prec ) = 0.10721E+01
  weight for this iteration     100.00

 eigenvalues of (default mixing * dielectric matrix)
  average eigenvalue GAMMA=   1.1479
  2.4589  1.4237  0.8024  0.6071  0.4475

 Free energy of the ion-electron system (eV)
  ---------------------------------------------------
  alpha Z        PSCENC =        92.14382556
  Ewald energy   TEWEN  =    110882.94578193
  -Hartree energ DENC   =   -125079.19064053
  -exchange      EXHF   =         0.00000000
  -V(xc)+E(xc)   XCENC  =      1597.39376127
  PAW double counting   =     42207.89657735   -42375.42860406
  entropy T*S    EENTRO =        -0.02742712
  eigenvalues    EBANDS =     -4865.50176216
  atomic energy  EATOM  =     16689.68470767
  Solvation  Ediel_sol  =        83.25162741
  ---------------------------------------------------
  free energy    TOTEN  =      -766.83215269 eV

  energy without entropy =     -766.80472556  energy(sigma->0) =     -766.81843913


--------------------------------------------------------------------------------------------------------




--------------------------------------- Iteration      1(  11)  ---------------------------------------


    POTLOK:  cpu time   73.5261: real time   73.6848
    SETDIJ:  cpu time    1.4946: real time    1.0918
    EDDIAG:  cpu time   22.8511: real time   18.2431
  RMM-DIIS:  cpu time  172.8603: real time  104.7071
    ORTHCH:  cpu time    2.1173: real time    1.0635
       DOS:  cpu time    0.0034: real time    0.0017
    CHARGE:  cpu time   15.8504: real time   14.8564
    MIXING:  cpu time    0.1740: real time    0.1202
    --------------------------------------------
      LOOP:  cpu time  288.8771: real time  213.7687

 eigenvalue-minimisations  :  5120
 total energy-change (2. order) :-0.6991329E+01  (-0.3772096E+00)
 number of electron     346.9999691 magnetization      49.2309586
 augmentation part       16.1365568 magnetization      47.6903825

 Broyden mixing:
  rms(total) = 0.10078E+01    rms(broyden)= 0.10076E+01
  rms(prec ) = 0.10125E+01
  weight for this iteration     100.00

 eigenvalues of (default mixing * dielectric matrix)
  average eigenvalue GAMMA=   1.1520
  2.5212  1.6366  0.8393  0.8393  0.6220  0.4537

 Free energy of the ion-electron system (eV)
  ---------------------------------------------------
  alpha Z        PSCENC =        92.14382556
  Ewald energy   TEWEN  =    110882.94578193
  -Hartree energ DENC   =   -125093.27914661
  -exchange      EXHF   =         0.00000000
  -V(xc)+E(xc)   XCENC  =      1592.85730923
  PAW double counting   =     41701.67793038   -41869.28642928
  entropy T*S    EENTRO =        -0.00086698
  eigenvalues    EBANDS =     -4865.58580343
  atomic energy  EATOM  =     16689.68470767
  Solvation  Ediel_sol  =        95.01921033
  ---------------------------------------------------
  free energy    TOTEN  =      -773.82348120 eV

  energy without entropy =     -773.82261422  energy(sigma->0) =     -773.82304771


--------------------------------------------------------------------------------------------------------




--------------------------------------- Iteration      1(  12)  ---------------------------------------


    POTLOK:  cpu time   74.0800: real time   74.2395
    SETDIJ:  cpu time    1.4205: real time    1.0176
    EDDIAG:  cpu time   23.0635: real time   18.4281
  RMM-DIIS:  cpu time  172.7630: real time  104.7094
    ORTHCH:  cpu time    2.1070: real time    1.0560
       DOS:  cpu time    0.0021: real time    0.0011
    CHARGE:  cpu time   15.8870: real time   14.8986
    MIXING:  cpu time    0.1881: real time    0.1334
    --------------------------------------------
      LOOP:  cpu time  289.5111: real time  214.4836

 eigenvalue-minimisations  :  5120
 total energy-change (2. order) :-0.1388301E+02  (-0.7118173E+00)
 number of electron     346.9999690 magnetization      36.7526317
 augmentation part       16.0572337 magnetization      35.3816659

 Broyden mixing:
  rms(total) = 0.85224E+00    rms(broyden)= 0.85220E+00
  rms(prec ) = 0.85914E+00
  weight for this iteration     100.00

 eigenvalues of (default mixing * dielectric matrix)
  average eigenvalue GAMMA=   1.4225
  3.6159  2.4094  1.2491  0.8651  0.7335  0.5630  0.5211

 Free energy of the ion-electron system (eV)
  ---------------------------------------------------
  alpha Z        PSCENC =        92.14382556
  Ewald energy   TEWEN  =    110882.94578193
  -Hartree energ DENC   =   -125122.87922961
  -exchange      EXHF   =         0.00000000
  -V(xc)+E(xc)   XCENC  =      1583.33588519
  PAW double counting   =     41332.88939402   -41500.40937410
  entropy T*S    EENTRO =        -0.00000000
  eigenvalues    EBANDS =     -4870.02441539
  atomic energy  EATOM  =     16689.68470767
  Solvation  Ediel_sol  =       124.60693352
  ---------------------------------------------------
  free energy    TOTEN  =      -787.70649122 eV

  energy without entropy =     -787.70649122  energy(sigma->0) =     -787.70649122


--------------------------------------------------------------------------------------------------------




--------------------------------------- Iteration      1(  13)  ---------------------------------------


    POTLOK:  cpu time   74.5934: real time   74.7539
    SETDIJ:  cpu time    1.5602: real time    1.1578
    EDDIAG:  cpu time   22.9031: real time   18.2893
  RMM-DIIS:  cpu time  172.7537: real time  104.6233
    ORTHCH:  cpu time    2.1224: real time    1.0638
       DOS:  cpu time    0.0022: real time    0.0011
    CHARGE:  cpu time   15.8467: real time   14.8628
    MIXING:  cpu time    0.1899: real time    0.1343
    --------------------------------------------
      LOOP:  cpu time  289.9715: real time  214.8863

 eigenvalue-minimisations  :  5120
 total energy-change (2. order) :-0.1267821E+02  (-0.1197934E+01)
 number of electron     346.9999689 magnetization      29.2302778
 augmentation part       16.0477799 magnetization      28.1079793

 Broyden mixing:
  rms(total) = 0.67545E+00    rms(broyden)= 0.67539E+00
  rms(prec ) = 0.68594E+00
  weight for this iteration     100.00

 eigenvalues of (default mixing * dielectric matrix)
  average eigenvalue GAMMA=   1.6639
  5.8349  2.2824  1.5048  0.9529  0.9529  0.7377  0.5988  0.4465

 Free energy of the ion-electron system (eV)
  ---------------------------------------------------
  alpha Z        PSCENC =        92.14382556
  Ewald energy   TEWEN  =    110882.94578193
  -Hartree energ DENC   =   -125158.58635963
  -exchange      EXHF   =         0.00000000
  -V(xc)+E(xc)   XCENC  =      1571.47660946
  PAW double counting   =     40666.28110228   -40833.04033024
  entropy T*S    EENTRO =        -0.00000002
  eigenvalues    EBANDS =     -4908.78002208
  atomic energy  EATOM  =     16689.68470767
  Solvation  Ediel_sol  =       197.48998410
  ---------------------------------------------------
  free energy    TOTEN  =      -800.38470096 eV

  energy without entropy =     -800.38470094  energy(sigma->0) =     -800.38470095


--------------------------------------------------------------------------------------------------------




--------------------------------------- Iteration      1(  14)  ---------------------------------------


    POTLOK:  cpu time   72.8309: real time   72.9905
    SETDIJ:  cpu time    1.6159: real time    1.2135
    EDDIAG:  cpu time   22.9352: real time   18.3639
  RMM-DIIS:  cpu time  172.6709: real time  104.7256
    ORTHCH:  cpu time    2.1052: real time    1.0551
       DOS:  cpu time    0.0037: real time    0.0019
    CHARGE:  cpu time   15.8044: real time   14.8256
    MIXING:  cpu time    0.1973: real time    0.1433
    --------------------------------------------
      LOOP:  cpu time  288.1636: real time  213.3195

 eigenvalue-minimisations  :  5120
 total energy-change (2. order) :-0.8092466E+00  (-0.3021557E+00)
 number of electron     346.9999689 magnetization      24.6542718
 augmentation part       16.0568424 magnetization      23.6532055

 Broyden mixing:
  rms(total) = 0.49565E+00    rms(broyden)= 0.49560E+00
  rms(prec ) = 0.50582E+00
  weight for this iteration     100.00

 eigenvalues of (default mixing * dielectric matrix)
  average eigenvalue GAMMA=   1.7420
  7.2186  2.4008  1.3047  1.3047  0.8722  0.8722  0.6177  0.6177  0.4698

 Free energy of the ion-electron system (eV)
  ---------------------------------------------------
  alpha Z        PSCENC =        92.14382556
  Ewald energy   TEWEN  =    110882.94578193
  -Hartree energ DENC   =   -125174.61020265
  -exchange      EXHF   =         0.00000000
  -V(xc)+E(xc)   XCENC  =      1570.69893472
  PAW double counting   =     40649.91402203   -40816.53793050
  entropy T*S    EENTRO =        -0.00000000
  eigenvalues    EBANDS =     -4932.33660891
  atomic energy  EATOM  =     16689.68470767
  Solvation  Ediel_sol  =       236.90352262
  ---------------------------------------------------
  free energy    TOTEN  =      -801.19394753 eV

  energy without entropy =     -801.19394753  energy(sigma->0) =     -801.19394753


--------------------------------------------------------------------------------------------------------




--------------------------------------- Iteration      1(  15)  ---------------------------------------


    POTLOK:  cpu time   73.6272: real time   73.7885
    SETDIJ:  cpu time    1.3749: real time    0.9719
    EDDIAG:  cpu time   22.8518: real time   18.2407
  RMM-DIIS:  cpu time  173.0328: real time  105.0360
    ORTHCH:  cpu time    2.1065: real time    1.0580
       DOS:  cpu time    0.0034: real time    0.0017
    CHARGE:  cpu time   15.8352: real time   14.8510
    MIXING:  cpu time    0.2156: real time    0.1609
    --------------------------------------------
      LOOP:  cpu time  289.0474: real time  214.1088

 eigenvalue-minimisations  :  5125
 total energy-change (2. order) : 0.2406547E+01  (-0.1303259E+00)
 number of electron     346.9999689 magnetization      17.8052077
 augmentation part       16.0699071 magnetization      16.8828452

 Broyden mixing:
  rms(total) = 0.36601E+00    rms(broyden)= 0.36598E+00
  rms(prec ) = 0.37388E+00
  weight for this iteration     100.00

 eigenvalues of (default mixing * dielectric matrix)
  average eigenvalue GAMMA=   1.9572
  8.8228  2.6998  1.7773  1.7773  0.9932  0.9932  0.7583  0.6453  0.6453  0.4593

 Free energy of the ion-electron system (eV)
  ---------------------------------------------------
  alpha Z        PSCENC =        92.14382556
  Ewald energy   TEWEN  =    110882.94578193
  -Hartree energ DENC   =   -125166.94526620
  -exchange      EXHF   =         0.00000000
  -V(xc)+E(xc)   XCENC  =      1572.02485703
  PAW double counting   =     40390.47922216   -40557.17520451
  entropy T*S    EENTRO =        -0.00000000
  eigenvalues    EBANDS =     -4962.64796879
  atomic energy  EATOM  =     16689.68470767
  Solvation  Ediel_sol  =       260.70264483
  ---------------------------------------------------
  free energy    TOTEN  =      -798.78740032 eV

  energy without entropy =     -798.78740032  energy(sigma->0) =     -798.78740032


--------------------------------------------------------------------------------------------------------




--------------------------------------- Iteration      1(  16)  ---------------------------------------


    POTLOK:  cpu time   73.8919: real time   74.0532
    SETDIJ:  cpu time    1.6093: real time    1.2069
    EDDIAG:  cpu time   22.8226: real time   18.2194
  RMM-DIIS:  cpu time  172.7037: real time  104.6343
    ORTHCH:  cpu time    2.1170: real time    1.0610
       DOS:  cpu time    0.0035: real time    0.0017
    CHARGE:  cpu time   15.8193: real time   14.8348
    MIXING:  cpu time    0.2182: real time    0.1640
    --------------------------------------------
      LOOP:  cpu time  289.1854: real time  214.1754

 eigenvalue-minimisations  :  5120
 total energy-change (2. order) : 0.4985797E+01  (-0.1470414E+00)
 number of electron     346.9999687 magnetization      15.3066521
 augmentation part       16.0922491 magnetization      14.9683032

 Broyden mixing:
  rms(total) = 0.41720E+00    rms(broyden)= 0.41693E+00
  rms(prec ) = 0.42591E+00
  weight for this iteration     100.00

 eigenvalues of (default mixing * dielectric matrix)
  average eigenvalue GAMMA=   1.9833
  9.9710  2.9307  2.0812  1.6350  1.0968  0.9240  0.8209  0.4530  0.6505  0.6505
  0.6025

 Free energy of the ion-electron system (eV)
  ---------------------------------------------------
  alpha Z        PSCENC =        92.14382556
  Ewald energy   TEWEN  =    110882.94578193
  -Hartree energ DENC   =   -125161.43071582
  -exchange      EXHF   =         0.00000000
  -V(xc)+E(xc)   XCENC  =      1575.95610415
  PAW double counting   =     40230.80421916   -40397.77271551
  entropy T*S    EENTRO =        -0.02749058
  eigenvalues    EBANDS =     -4995.30429602
  atomic energy  EATOM  =     16689.68470767
  Solvation  Ediel_sol  =       289.19897605
  ---------------------------------------------------
  free energy    TOTEN  =      -793.80160342 eV

  energy without entropy =     -793.77411284  energy(sigma->0) =     -793.78785813


--------------------------------------------------------------------------------------------------------




--------------------------------------- Iteration      1(  17)  ---------------------------------------


    POTLOK:  cpu time   69.9590: real time   70.1114
    SETDIJ:  cpu time    1.5097: real time    1.1071
    EDDIAG:  cpu time   22.8961: real time   18.2723
  RMM-DIIS:  cpu time  172.7684: real time  104.6035
[...]
   -.321E+02 0.100E+02 0.911E+02   0.320E+02 -.988E+01 -.907E+02   -.438E-02 0.214E-02 -.765E-02   0.421E-03 -.211E-03 -.469E-03
   -.202E+02 -.312E+01 0.791E+02   0.200E+02 0.313E+01 -.788E+02   -.149E-02 -.112E-02 -.925E-02   0.328E-03 -.671E-05 -.396E-03
   -.325E+01 -.430E+01 0.700E+02   0.319E+01 0.426E+01 -.697E+02   -.640E-03 -.559E-03 -.695E-02   0.112E-03 0.149E-03 -.225E-03
   0.187E+02 -.102E+02 0.775E+02   -.186E+02 0.102E+02 -.772E+02   0.212E-02 -.229E-02 -.811E-02   -.318E-03 0.188E-03 -.325E-03
   0.978E+01 -.912E+01 0.759E+02   -.968E+01 0.904E+01 -.756E+02   0.128E-02 -.112E-02 -.603E-02   -.262E-03 0.173E-03 -.319E-03
   -.466E+01 0.130E+00 0.730E+02   0.469E+01 -.186E+00 -.727E+02   0.467E-03 0.185E-02 -.120E-01   0.236E-04 0.727E-04 -.290E-03
   -.111E+02 0.605E+01 0.722E+02   0.111E+02 -.603E+01 -.719E+02   0.522E-03 0.118E-02 -.743E-02   0.223E-03 -.624E-04 -.212E-03
   -.318E+01 0.386E+01 0.726E+02   0.310E+01 -.381E+01 -.724E+02   0.153E-02 -.146E-03 -.600E-02   0.102E-03 -.161E-03 -.240E-03
   0.122E+02 -.322E+01 0.751E+02   -.122E+02 0.325E+01 -.748E+02   0.201E-02 -.137E-02 -.956E-02   -.146E-03 0.542E-05 -.324E-03
   0.393E+01 0.253E+02 -.411E+03   -.476E+01 -.241E+02 0.403E+03   0.989E+00 -.887E+00 0.844E+01   -.111E-04 -.638E-03 0.151E-02
   -.130E+02 -.463E+02 -.322E+03   0.192E+02 0.562E+02 0.329E+03   -.582E+01 -.921E+01 -.644E+01   -.652E-03 -.144E-02 -.699E-05
   -.430E+02 -.111E+03 -.315E+03   0.427E+02 0.110E+03 0.316E+03   0.570E+00 0.118E+01 -.215E+00   0.506E-03 0.110E-02 -.719E-03
   -.535E+03 0.854E+02 -.901E+03   0.593E+03 -.884E+02 0.917E+03   -.573E+02 0.338E+01 -.155E+02   0.150E-02 -.912E-03 0.175E-02
   0.244E+03 0.512E+03 -.883E+03   -.269E+03 -.562E+03 0.900E+03   0.255E+02 0.492E+02 -.162E+02   -.774E-03 -.204E-02 0.126E-02
   0.242E+03 -.365E+03 -.103E+04   -.268E+03 0.410E+03 0.106E+04   0.253E+02 -.441E+02 -.304E+02   -.893E-03 0.406E-03 0.218E-02
   -.214E+03 0.410E+03 -.310E+03   0.245E+03 -.451E+03 0.278E+03   -.292E+02 0.414E+02 0.318E+02   0.966E-03 -.364E-02 -.224E-02
   0.548E+03 0.235E+02 -.436E+03   -.606E+03 -.192E+02 0.420E+03   0.576E+02 -.274E+01 0.164E+02   -.377E-02 -.130E-02 -.127E-02
   -.445E+03 -.116E+03 -.445E+03   0.505E+03 0.105E+03 0.438E+03   -.579E+02 0.119E+02 0.658E+01   0.240E-02 0.531E-03 -.112E-02
   0.209E+03 -.424E+03 -.483E+03   -.257E+03 0.464E+03 0.482E+03   0.457E+02 -.382E+02 0.114E+01   -.113E-02 0.224E-02 -.952E-03
 -----------------------------------------------------------------------------------------------
   -.545E+01 -.120E+02 0.443E+01   -.568E-13 -.568E-13 0.227E-12   0.543E+01 0.120E+02 -.440E+01   -.187E-02 -.570E-02 -.277E-01
 
 
 POSITION                                       TOTAL-FORCE (eV/Angst)
 -----------------------------------------------------------------------------------
      1.25609     -0.72512     17.55756        -0.006503     -0.000830      0.001625
      2.51216      1.45053     17.55615        -0.017427      0.005496      0.003044
      3.76836      3.62598     17.55568        -0.017227      0.017581     -0.006765
      5.02439      5.80160     17.55648        -0.002223      0.007447      0.000825
      6.28047      7.97728     17.55782        -0.000073      0.001229      0.001288
      7.53657     10.15295     17.55799        -0.001768     -0.000474      0.001980
      2.51220     -2.90082     17.55780        -0.003528     -0.004993      0.002322
      3.76839     -0.72512     17.55543        -0.023419     -0.013883      0.008071
      5.02428      1.45070     17.55232        -0.007631      0.005187      0.015510
      6.28050      3.62603     17.55459         0.003823      0.015073      0.006762
      7.53654      5.80160     17.55687         0.004207      0.006345      0.000578
      8.79265      7.97728     17.55808        -0.000019     -0.000677      0.001722
      3.76829     -5.07645     17.55809         0.000244     -0.004843      0.002219
      5.02439     -2.90080     17.55733        -0.001225     -0.016537      0.004003
      6.28061     -0.72520     17.55445         0.004233     -0.014241      0.011920
      7.53663      1.45049     17.55431         0.014610      0.005059      0.011485
      8.79257      3.62597     17.55586         0.014779      0.009952      0.001747
     10.04870      5.80163     17.55771         0.003903      0.001385      0.000968
      5.02437     -7.25208     17.55791         0.000830     -0.001154      0.001692
      6.28048     -5.07643     17.55790         0.000607     -0.006256      0.002090
      7.53656     -2.90074     17.55685         0.003950     -0.013365      0.002476
      8.79260     -0.72506     17.55566         0.014450     -0.010698      0.005507
     10.04862      1.45043     17.55627         0.014118      0.004690      0.000686
     11.30477      3.62602     17.55748         0.005065      0.002737      0.000674
      6.28047     -9.42771     17.55787        -0.000822      0.001217      0.001434
      7.53659     -7.25207     17.55784        -0.001141     -0.000075      0.001423
      8.79266     -5.07639     17.55795         0.000438     -0.002796      0.001284
     10.04870     -2.90073     17.55747         0.003304     -0.002751      0.000946
     11.30476     -0.72515     17.55740         0.004293      0.000154      0.000710
     12.56087      1.45042     17.55784         0.001893      0.001713      0.001078
      7.53657    -11.60330     17.55779        -0.005386      0.002672      0.001470
      8.79271     -9.42770     17.55713        -0.008013      0.005073      0.001089
     10.04880     -7.25210     17.55736        -0.004256      0.003485      0.000898
     11.30484     -5.07644     17.55791        -0.000104      0.000939      0.001157
     12.56091     -2.90079     17.55792         0.000253      0.000158      0.001612
     13.81700     -0.72517     17.55802        -0.001342      0.000502      0.001686
      1.25602      0.72526     17.55740         0.008887      0.000350     -0.001617
      2.51207      2.90093     17.55599         0.013143     -0.006688      0.000468
      3.76824      5.07655     17.55627         0.004960     -0.009028      0.000674
      5.02438      7.25210     17.55764         0.000367     -0.002063     -0.001419
      6.28047      9.42773     17.55800         0.001015      0.000599      0.000345
      7.53654     11.60336     17.55804         0.003380      0.001423     -0.000037
      2.51209     -1.45045     17.55733         0.013306      0.007817     -0.002757
      3.76804      0.72521     17.55535         0.022429      0.003748     -0.005873
      5.02427      2.90115     17.55287         0.009715     -0.019307      0.003221
      6.28050      5.07662     17.55577        -0.001166     -0.013064     -0.001110
      7.53657      7.25209     17.55788         0.000502     -0.001205     -0.000980
      8.79265      9.42770     17.55816         0.002775      0.002209      0.000102
      3.76829     -3.62607     17.55809         0.002921      0.007287     -0.000053
      5.02428     -1.45053     17.55644         0.009734      0.018499     -0.001070
      6.28035      0.72521     17.55344        -0.005166      0.003761      0.004041
      7.53671      2.90101     17.55437        -0.014289     -0.015537      0.000961
      8.79269      5.07649     17.55697        -0.004104     -0.004817     -0.002423
     10.04875      7.25207     17.55821         0.000293      0.001563     -0.000204
      5.02439     -5.80167     17.55805        -0.000193      0.003627      0.000111
      6.28047     -3.62608     17.55764        -0.001520      0.010575     -0.000094
      7.53670     -1.45057     17.55543        -0.012596      0.016806     -0.001148
      8.79285      0.72524     17.55492        -0.021225      0.002349     -0.001852
     10.04881      2.90088     17.55655        -0.008818     -0.003105     -0.002680
     11.30485      5.07647     17.55783        -0.001658     -0.000020     -0.000399
      6.28048     -7.97727     17.55787         0.000382      0.000577      0.000265
      7.53656     -5.80165     17.55804        -0.000019      0.002798     -0.000165
      8.79266     -3.62603     17.55755        -0.002981      0.004588     -0.000979
     10.04877     -1.45038     17.55688        -0.007043      0.003869     -0.002198
     11.30483      0.72525     17.55732        -0.004163      0.000580     -0.001544
     12.56092      2.90086     17.55790        -0.000885     -0.000366     -0.000289
      7.53655    -10.15287     17.55776         0.003137     -0.001057     -0.000932
      8.79264     -7.97726     17.55754         0.002802     -0.001277     -0.000902
     10.04874     -5.80164     17.55806         0.000294      0.000195     -0.000827
     11.30483     -3.62600     17.55796        -0.001224      0.001020     -0.000128
     12.56091     -1.45038     17.55792        -0.000449      0.001080     -0.000094
     13.81700      0.72525     17.55814         0.001327      0.000351     -0.000278
      5.17098     -0.79799     23.63421        -0.001655     -0.004540     -0.011335
      5.01415     -0.58924     22.12366         0.009661      0.031857     -0.024757
      5.79958      1.11046     21.65038        -0.009867     -0.027885      0.014635
      6.46272     -0.87038     23.96763         0.002925      0.014792     -0.016883
      4.57148     -1.94834     23.99449         0.005871      0.007482      0.009661
      4.59599      0.20689     24.30420         0.005406      0.014282     -0.024699
      5.65620     -1.52512     21.43563         0.001481     -0.020088     -0.019872
      3.73418     -0.54797     21.77834        -0.012827     -0.020759     -0.013515
      6.96847      0.87182     21.51885        -0.025735     -0.000780      0.004435
      4.88099      1.88074     21.62824         0.017981     -0.017018      0.006979
 -----------------------------------------------------------------------------------
    total drift:                               -0.014809     -0.010960      0.002495


--------------------------------------------------------------------------------------------------------



  FREE ENERGIE OF THE ION-ELECTRON SYSTEM (eV)
  ---------------------------------------------------
  free  energy   TOTEN  =      -778.96617808 eV

  energy  without entropy=     -778.95104891  energy(sigma->0) =     -778.95861349
 


--------------------------------------------------------------------------------------------------------


    POTLOK:  cpu time   51.5967: real time   51.3197


--------------------------------------------------------------------------------------------------------


 Dimer: Init Mode:
 Dimer: MODECAR found
 Dimer: -----------------
 Dimer: Itr    1 Rot    0

 Dimer: Central Point
 Dimer: F0      0.129506

 Dimer: Projection
 Dimer: N*F0  4.532178270853516E-002
 Dimer: F0sq  1.677179047655823E-002
 Dimer: Feffsq   2.054063987879677E-003
 
 stress matrix after NEB project (eV)
    -26.31953      0.62996      0.33142
      0.62986    -25.35330      0.26032
      0.33016      0.25996     -0.04243
  FORCES: max atom, RMS     0.041486    0.014302
  FORCE total and by dimension    0.129506    0.031857
  Stress total and by dimension   36.560320   26.319527
 OPT: skip step - force has converged


--------------------------------------------------------------------------------------------------------


  
 reached required accuracy - stopping structural energy minimisation
 writing wavefunctions
     LOOP+:  cpu time10748.5456: real time 7870.8417
    4ORBIT:  cpu time    0.0000: real time    0.0000
 


 total charge     
 
# of ion       s       p       d       tot
------------------------------------------
    1        0.745   1.394   0.000   2.138
    2        0.745   1.394   0.000   2.138
    3        0.745   1.394   0.000   2.138
    4        0.745   1.394   0.000   2.138
    5        0.745   1.394   0.000   2.138
    6        0.745   1.394   0.000   2.138
    7        0.745   1.394   0.000   2.138
    8        0.745   1.394   0.000   2.139
    9        0.745   1.394   0.000   2.138
   10        0.745   1.394   0.000   2.138
   11        0.745   1.394   0.000   2.139
   12        0.745   1.394   0.000   2.138
   13        0.745   1.394   0.000   2.138
   14        0.745   1.394   0.000   2.139
   15        0.745   1.394   0.000   2.138
   16        0.745   1.393   0.000   2.138
   17        0.745   1.394   0.000   2.139
   18        0.745   1.394   0.000   2.139
   19        0.745   1.394   0.000   2.139
   20        0.745   1.394   0.000   2.139
   21        0.745   1.394   0.000   2.139
   22        0.745   1.394   0.000   2.138
   23        0.745   1.394   0.000   2.139
   24        0.745   1.394   0.000   2.139
   25        0.745   1.394   0.000   2.138
   26        0.745   1.394   0.000   2.138
   27        0.745   1.394   0.000   2.138
   28        0.745   1.394   0.000   2.138
   29        0.745   1.394   0.000   2.139
   30        0.745   1.394   0.000   2.138
   31        0.745   1.394   0.000   2.139
   32        0.745   1.394   0.000   2.139
   33        0.745   1.394   0.000   2.139
   34        0.745   1.394   0.000   2.138
   35        0.745   1.394   0.000   2.138
   36        0.745   1.394   0.000   2.138
   37        1.238   2.821   0.000   4.059
   38        1.238   2.821   0.000   4.059
   39        1.238   2.821   0.000   4.059
   40        1.238   2.821   0.000   4.059
   41        1.238   2.821   0.000   4.059
   42        1.238   2.821   0.000   4.059
   43        1.238   2.821   0.000   4.059
   44        1.238   2.821   0.000   4.059
   45        1.238   2.821   0.000   4.059
   46        1.238   2.821   0.000   4.059
   47        1.238   2.821   0.000   4.059
   48        1.238   2.821   0.000   4.059
   49        1.238   2.821   0.000   4.059
   50        1.238   2.821   0.000   4.059
   51        1.238   2.821   0.000   4.059
   52        1.238   2.821   0.000   4.059
   53        1.238   2.821   0.000   4.059
   54        1.238   2.821   0.000   4.059
   55        1.238   2.821   0.000   4.059
   56        1.238   2.821   0.000   4.059
   57        1.238   2.821   0.000   4.059
   58        1.238   2.821   0.000   4.059
   59        1.238   2.821   0.000   4.059
   60        1.238   2.821   0.000   4.059
   61        1.238   2.821   0.000   4.059
   62        1.238   2.821   0.000   4.059
   63        1.238   2.821   0.000   4.059
   64        1.238   2.821   0.000   4.059
   65        1.238   2.821   0.000   4.059
   66        1.238   2.821   0.000   4.059
   67        1.238   2.821   0.000   4.059
   68        1.238   2.821   0.000   4.059
   69        1.238   2.821   0.000   4.059
   70        1.238   2.821   0.000   4.059
   71        1.238   2.821   0.000   4.059
   72        1.238   2.821   0.000   4.059
   73        0.814   1.563   0.000   2.377
   74        0.838   1.551   0.000   2.390
   75        0.908   1.728   0.000   2.636
   76        1.759   4.414   0.000   6.172
   77        1.759   4.406   0.000   6.165
   78        1.758   4.413   0.000   6.172
   79        1.758   4.401   0.000   6.159
   80        1.758   4.402   0.000   6.160
   81        1.605   3.563   0.000   5.168
   82        1.605   3.565   0.000   5.170
--------------------------------------------------
tot         85.931 185.746   0.000 271.676
 


 magnetization (x)
 
# of ion       s       p       d       tot
------------------------------------------
    1       -0.000  -0.000   0.000  -0.000
    2       -0.000  -0.000   0.000  -0.000
    3       -0.000  -0.000   0.000  -0.000
    4       -0.000  -0.000   0.000  -0.000
    5       -0.000  -0.000   0.000  -0.000
    6       -0.000  -0.000   0.000  -0.000
    7       -0.000  -0.000   0.000  -0.000
    8       -0.000  -0.000   0.000  -0.000
    9       -0.000   0.000   0.000   0.000
   10       -0.000   0.000   0.000   0.000
   11       -0.000  -0.000   0.000  -0.000
   12       -0.000  -0.000   0.000  -0.000
   13       -0.000  -0.000   0.000  -0.000
   14       -0.000  -0.000   0.000  -0.000
   15       -0.000  -0.000   0.000  -0.000
   16        0.000   0.000   0.000   0.000
   17       -0.000  -0.000   0.000  -0.000
   18       -0.000  -0.000   0.000  -0.000
   19       -0.000  -0.000   0.000  -0.000
   20       -0.000  -0.000   0.000  -0.000
   21       -0.000  -0.000   0.000  -0.000
   22       -0.000  -0.000   0.000  -0.000
   23       -0.000  -0.000   0.000  -0.000
   24       -0.000  -0.000   0.000  -0.000
   25       -0.000  -0.000   0.000  -0.000
   26       -0.000  -0.000   0.000  -0.000
   27       -0.000  -0.000   0.000  -0.000
   28       -0.000  -0.000   0.000  -0.000
   29       -0.000  -0.000   0.000  -0.000
   30       -0.000  -0.000   0.000  -0.000
   31       -0.000  -0.000   0.000  -0.000
   32       -0.000  -0.000   0.000  -0.000
   33       -0.000  -0.000   0.000  -0.000
   34       -0.000  -0.000   0.000  -0.000
   35       -0.000  -0.000   0.000  -0.000
   36       -0.000  -0.000   0.000  -0.000
   37        0.000   0.000   0.000   0.000
   38       -0.000  -0.000   0.000  -0.000
   39       -0.000   0.000   0.000   0.000
   40        0.000   0.000   0.000   0.000
   41        0.000   0.000   0.000   0.000
   42        0.000   0.000   0.000   0.000
   43        0.000   0.000   0.000   0.000
   44        0.000   0.000   0.000   0.000
   45        0.000   0.000   0.000   0.000
   46       -0.000   0.000   0.000   0.000
   47        0.000   0.000   0.000   0.000
   48        0.000   0.000   0.000   0.000
   49        0.000   0.000   0.000   0.000
   50       -0.000  -0.000   0.000  -0.000
   51        0.000   0.000   0.000   0.000
   52        0.000  -0.000   0.000   0.000
   53        0.000   0.000   0.000   0.000
   54       -0.000   0.000   0.000   0.000
   55        0.000   0.000   0.000   0.000
   56        0.000   0.000   0.000   0.000
   57        0.000   0.000   0.000   0.000
   58        0.000   0.000   0.000   0.000
   59        0.000   0.000   0.000   0.000
   60        0.000   0.000   0.000   0.000
   61        0.000   0.000   0.000   0.000
   62        0.000   0.000   0.000   0.000
   63        0.000   0.000   0.000   0.000
   64        0.000   0.000   0.000   0.000
   65        0.000   0.000   0.000   0.000
   66        0.000   0.000   0.000   0.000
   67        0.000   0.000   0.000   0.000
   68        0.000   0.000   0.000   0.000
   69        0.000   0.000   0.000   0.000
   70        0.000   0.000   0.000   0.000
   71        0.000   0.000   0.000   0.000
   72        0.000   0.000   0.000   0.000
   73        0.005   0.013   0.000   0.018
   74        0.038   0.202   0.000   0.240
   75       -0.013  -0.027   0.000  -0.039
   76       -0.000  -0.001   0.000  -0.001
   77        0.000   0.019   0.000   0.019
   78       -0.000  -0.001   0.000  -0.001
   79        0.001   0.051   0.000   0.052
   80        0.001   0.049   0.000   0.050
   81        0.002   0.140   0.000   0.142
   82        0.002   0.132   0.000   0.134
--------------------------------------------------
tot          0.037   0.578   0.000   0.615
 

 total amount of memory used by VASP MPI-rank0  1602130. kBytes
=======================================================================

   base      :      30000. kBytes
   nonlr-proj:      12081. kBytes
   fftplans  :      65180. kBytes
   grid      :     454720. kBytes
   one-center:        503. kBytes
   wavefun   :    1039646. kBytes
 
  
  
 General timing and accounting informations for this job:
 ========================================================
  
                  Total CPU time used (sec):    10796.559
                            User time (sec):    10542.036
                          System time (sec):      254.523
                         Elapsed time (sec):     7925.097
  
                   Maximum memory used (kb):     3372644.
                   Average memory used (kb):           0.
  
                          Minor page faults:      5430178
                          Major page faults:           14
                 Voluntary context switches:        72223
