 vasp.5.4.4.18Apr17-6-g9f103f2a35 (build May 01 2020 14:57:12) complex          
  
 executed on             LinuxIFC date 2021.12.09  00:38:56
 running on  192 total cores
 distrk:  each k-point on  192 cores,    1 groups
 distr:  one band on NCORES_PER_BAND=  48 cores,    4 groups


--------------------------------------------------------------------------------------------------------


 INCAR:
 POTCAR:    PAW_PBE B 06Sep2000                   
 POTCAR:    PAW_PBE N 08Apr2002                   
 POTCAR:    PAW_PBE C 08Apr2002                   
 POTCAR:    PAW_PBE F 08Apr2002                   
 POTCAR:    PAW_PBE O 08Apr2002                   

 ----------------------------------------------------------------------------- 
|                                                                             |
|           W    W    AA    RRRRR   N    N  II  N    N   GGGG   !!!           |
|           W    W   A  A   R    R  NN   N  II  NN   N  G    G  !!!           |
|           W    W  A    A  R    R  N N  N  II  N N  N  G       !!!           |
|           W WW W  AAAAAA  RRRRR   N  N N  II  N  N N  G  GGG   !            |
|           WW  WW  A    A  R   R   N   NN  II  N   NN  G    G                |
|           W    W  A    A  R    R  N    N  II  N    N   GGGG   !!!           |
|                                                                             |
|      For optimal performance we recommend to set                            |
|        NCORE= 4 - approx SQRT( number of cores)                             |
|      NCORE specifies how many cores store one orbital (NPAR=cpu/NCORE).     |
|      This setting can  greatly improve the performance of VASP for DFT.     |
|      The default,   NCORE=1            might be grossly inefficient         |
|      on modern multi-core architectures or massively parallel machines.     |
|      Do your own testing !!!!                                               |
|      Unfortunately you need to use the default for GW and RPA calculations. |
|      (for HF NCORE is supported but not extensively tested yet)             |
|                                                                             |
 ----------------------------------------------------------------------------- 


 ----------------------------------------------------------------------------- 
|                                                                             |
|  ADVICE TO THIS USER RUNNING 'VASP/VAMP'   (HEAR YOUR MASTER'S VOICE ...):  |
|                                                                             |
|      You have switched on vdW-DFT.                                          |
|      This routine was written and supplied by Jiri Klimes.                  |
|      We recommed that you carefully read and cite the following             |
|      publication                                                            |
|      J. Klimes, D.R. Bowler, A. Michelides                                  |
|        J. Phys.: Cond Matt. 22 022201 (2010)                                |
|      J. Klimes, D.R. Bowler, A. Michelides                                  |
|        Phys. Rev. B. 83, 195131 (2011)                                      |
|      and references therein.                                                |
|                                                                             |
 ----------------------------------------------------------------------------- 

 POTCAR:    PAW_PBE B 06Sep2000                   
   VRHFIN =B: s2p1                                                              
   LEXCH  = PE                                                                  
   EATOM  =    71.1703 eV,    5.2309 Ry                                         
                                                                                
   TITEL  = PAW_PBE B 06Sep2000                                                 
   LULTRA =        F    use ultrasoft PP ?                                      
   IUNSCR =        1    unscreen: 0-lin 1-nonlin 2-no                           
   RPACOR =    1.200    partial core radius                                     
   POMASS =   10.811; ZVAL   =    3.000    mass and valenz                      
   RCORE  =    1.700    outmost cutoff radius                                   
   RWIGS  =    1.710; RWIGS  =    0.905    wigner-seitz radius (au A)           
   ENMAX  =  318.614; ENMIN  =  238.960 eV                                      
   ICORE  =        2    local potential                                         
   LCOR   =        T    correct aug charges                                     
   LPAW   =        T    paw PP                                                  
   EAUG   =  535.514                                                            
   DEXC   =    0.000                                                            
   RMAX   =    1.732    core radius for proj-oper                               
   RAUG   =    1.300    factor for augmentation sphere                          
   RDEP   =    1.757    radius for radial grids                                 
   RDEPT  =    1.436    core radius for aug-charge                              
                                                                                
   Atomic configuration                                                         
    4 entries                                                                   
     n  l   j            E        occ.                                          
     1  0  0.50      -180.5896   2.0000                                         
     2  0  0.50        -9.4431   2.0000                                         
     2  1  0.50        -3.6068   1.0000                                         
     3  2  1.50        -4.0817   0.0000                                         
   Description                                                                  
     l       E           TYP  RCUT    TYP  RCUT                                 
     0     -9.4430752     23  1.500                                             
     0      0.8675899     23  1.500                                             
     1     -3.6067955     23  1.700                                             
     1      6.1086146     23  1.700                                             
     2     -4.0817478      7  1.700                                             
  local pseudopotential read in
  partial core-charges read in
  partial kinetic energy density read in
  atomic valenz-charges read in
  non local Contribution for L=           0  read in
    real space projection operators read in
  non local Contribution for L=           0  read in
    real space projection operators read in
  non local Contribution for L=           1  read in
    real space projection operators read in
  non local Contribution for L=           1  read in
    real space projection operators read in
    PAW grid and wavefunctions read in
 
   number of l-projection  operators is LMAX  =           4
   number of lm-projection operators is LMMAX =           8
 
 POTCAR:    PAW_PBE N 08Apr2002                   
   VRHFIN =N: s2p3                                                              
   LEXCH  = PE                                                                  
   EATOM  =   264.5486 eV,   19.4438 Ry                                         
                                                                                
   TITEL  = PAW_PBE N 08Apr2002                                                 
   LULTRA =        F    use ultrasoft PP ?                                      
   IUNSCR =        1    unscreen: 0-lin 1-nonlin 2-no                           
   RPACOR =    1.200    partial core radius                                     
   POMASS =   14.001; ZVAL   =    5.000    mass and valenz                      
   RCORE  =    1.500    outmost cutoff radius                                   
   RWIGS  =    1.400; RWIGS  =    0.741    wigner-seitz radius (au A)           
   ENMAX  =  400.000; ENMIN  =  300.000 eV                                      
   ICORE  =        2    local potential                                         
   LCOR   =        T    correct aug charges                                     
   LPAW   =        T    paw PP                                                  
   EAUG   =  627.112                                                            
   DEXC   =    0.000                                                            
   RMAX   =    1.529    core radius for proj-oper                               
   RAUG   =    1.300    factor for augmentation sphere                          
   RDEP   =    1.514    radius for radial grids                                 
   RDEPT  =    1.338    core radius for aug-charge                              
                                                                                
   Atomic configuration                                                         
    4 entries                                                                   
     n  l   j            E        occ.                                          
     1  0  0.50      -384.7179   2.0000                                         
     2  0  0.50       -18.5828   2.0000                                         
     2  1  0.50        -7.0898   3.0000                                         
     3  2  1.50        -6.8029   0.0000                                         
   Description                                                                  
     l       E           TYP  RCUT    TYP  RCUT                                 
     0    -18.5828119     23  1.200                                             
     0    -13.5018863     23  1.200                                             
     1     -7.0897853     23  1.500                                             
     1      9.5240782     23  1.500                                             
     2     -6.8029130      7  1.500                                             
  local pseudopotential read in
  partial core-charges read in
  partial kinetic energy density read in
  atomic valenz-charges read in
  non local Contribution for L=           0  read in
    real space projection operators read in
  non local Contribution for L=           0  read in
    real space projection operators read in
  non local Contribution for L=           1  read in
    real space projection operators read in
  non local Contribution for L=           1  read in
    real space projection operators read in
    PAW grid and wavefunctions read in
 
   number of l-projection  operators is LMAX  =           4
   number of lm-projection operators is LMMAX =           8
 
 POTCAR:    PAW_PBE C 08Apr2002                   
   VRHFIN =C: s2p2                                                              
   LEXCH  = PE                                                                  
   EATOM  =   147.1560 eV,   10.8157 Ry                                         
                                                                                
   TITEL  = PAW_PBE C 08Apr2002                                                 
   LULTRA =        F    use ultrasoft PP ?                                      
   IUNSCR =        1    unscreen: 0-lin 1-nonlin 2-no                           
   RPACOR =    1.200    partial core radius                                     
   POMASS =   12.011; ZVAL   =    4.000    mass and valenz                      
   RCORE  =    1.500    outmost cutoff radius                                   
   RWIGS  =    1.630; RWIGS  =    0.863    wigner-seitz radius (au A)           
   ENMAX  =  400.000; ENMIN  =  300.000 eV                                      
   ICORE  =        2    local potential                                         
   LCOR   =        T    correct aug charges                                     
   LPAW   =        T    paw PP                                                  
   EAUG   =  644.873                                                            
   DEXC   =    0.000                                                            
   RMAX   =    1.529    core radius for proj-oper                               
   RAUG   =    1.300    factor for augmentation sphere                          
   RDEP   =    1.501    radius for radial grids                                 
   RDEPT  =    1.300    core radius for aug-charge                              
                                                                                
   Atomic configuration                                                         
    4 entries                                                                   
     n  l   j            E        occ.                                          
     1  0  0.50      -273.3789   2.0000                                         
     2  0  0.50       -13.7508   2.0000                                         
     2  1  0.50        -5.2854   2.0000                                         
     3  2  1.50        -5.4423   0.0000                                         
   Description                                                                  
     l       E           TYP  RCUT    TYP  RCUT                                 
     0    -13.7508458     23  1.200                                             
     0     -8.2022199     23  1.200                                             
     1     -5.2854383     23  1.500                                             
     1     34.0145650     23  1.500                                             
     2     -5.4423304      7  1.500                                             
  local pseudopotential read in
  partial core-charges read in
  partial kinetic energy density read in
  atomic valenz-charges read in
  non local Contribution for L=           0  read in
    real space projection operators read in
  non local Contribution for L=           0  read in
    real space projection operators read in
  non local Contribution for L=           1  read in
    real space projection operators read in
  non local Contribution for L=           1  read in
    real space projection operators read in
    PAW grid and wavefunctions read in
 
   number of l-projection  operators is LMAX  =           4
   number of lm-projection operators is LMMAX =           8
 
 POTCAR:    PAW_PBE F 08Apr2002                   
   VRHFIN =F: s2p5                                                              
   LEXCH  = PE                                                                  
   EATOM  =   659.6475 eV,   48.4827 Ry                                         
                                                                                
   TITEL  = PAW_PBE F 08Apr2002                                                 
   LULTRA =        F    use ultrasoft PP ?                                      
   IUNSCR =        1    unscreen: 0-lin 1-nonlin 2-no                           
   RPACOR =    1.200    partial core radius                                     
   POMASS =   18.998; ZVAL   =    7.000    mass and valenz                      
   RCORE  =    1.520    outmost cutoff radius                                   
   RWIGS  =    1.500; RWIGS  =    0.794    wigner-seitz radius (au A)           
   ENMAX  =  400.000; ENMIN  =  300.000 eV                                      
   ICORE  =        2    local potential                                         
   LCOR   =        T    correct aug charges                                     
   LPAW   =        T    paw PP                                                  
   EAUG   =  613.614                                                            
   RMAX   =    1.555    core radius for proj-oper                               
   RAUG   =    1.300    factor for augmentation sphere                          
   RDEP   =    1.539    radius for radial grids                                 
   RDEPT  =    1.299    core radius for aug-charge                              
                                                                                
   Atomic configuration                                                         
    4 entries                                                                   
     n  l   j            E        occ.                                          
     1  0  0.50      -663.3661   2.0000                                         
     2  0  0.50       -29.8995   2.0000                                         
     2  1  0.50       -11.1114   5.0000                                         
     3  2  1.50       -10.8847   0.0000                                         
   Description                                                                  
     l       E           TYP  RCUT    TYP  RCUT                                 
     0    -29.8995018     23  1.200                                             
     0     -9.5240782     23  1.200                                             
     1    -11.1113914     23  1.520                                             
     1      1.3605826     23  1.520                                             
     2    -10.8846608      7  1.500                                             
  local pseudopotential read in
  partial core-charges read in
  partial kinetic energy density read in
  atomic valenz-charges read in
  non local Contribution for L=           0  read in
    real space projection operators read in
  non local Contribution for L=           0  read in
    real space projection operators read in
  non local Contribution for L=           1  read in
    real space projection operators read in
  non local Contribution for L=           1  read in
    real space projection operators read in
    PAW grid and wavefunctions read in
 
   number of l-projection  operators is LMAX  =           4
   number of lm-projection operators is LMMAX =           8
 
 POTCAR:    PAW_PBE O 08Apr2002                   
   VRHFIN =O: s2p4                                                              
   LEXCH  = PE                                                                  
   EATOM  =   432.3788 eV,   31.7789 Ry                                         
                                                                                
   TITEL  = PAW_PBE O 08Apr2002                                                 
   LULTRA =        F    use ultrasoft PP ?                                      
   IUNSCR =        1    unscreen: 0-lin 1-nonlin 2-no                           
   RPACOR =    1.200    partial core radius                                     
   POMASS =   16.000; ZVAL   =    6.000    mass and valenz                      
   RCORE  =    1.520    outmost cutoff radius                                   
   RWIGS  =    1.550; RWIGS  =    0.820    wigner-seitz radius (au A)           
   ENMAX  =  400.000; ENMIN  =  300.000 eV                                      
   ICORE  =        2    local potential                                         
   LCOR   =        T    correct aug charges                                     
   LPAW   =        T    paw PP                                                  
   EAUG   =  605.392                                                            
   DEXC   =    0.000                                                            
   RMAX   =    1.553    core radius for proj-oper                               
   RAUG   =    1.300    factor for augmentation sphere                          
   RDEP   =    1.550    radius for radial grids                                 
   RDEPT  =    1.329    core radius for aug-charge                              
                                                                                
   Atomic configuration                                                         
    4 entries                                                                   
     n  l   j            E        occ.                                          
     1  0  0.50      -514.6923   2.0000                                         
     2  0  0.50       -23.9615   2.0000                                         
     2  1  0.50        -9.0305   4.0000                                         
     3  2  1.50        -9.5241   0.0000                                         
   Description                                                                  
     l       E           TYP  RCUT    TYP  RCUT                                 
     0    -23.9615318     23  1.200                                             
     0     -9.5240782     23  1.200                                             
     1     -9.0304911     23  1.520                                             
     1      8.1634956     23  1.520                                             
     2     -9.5240782      7  1.500                                             
  local pseudopotential read in
  partial core-charges read in
  partial kinetic energy density read in
  kinetic energy density of atom read in
  atomic valenz-charges read in
  non local Contribution for L=           0  read in
    real space projection operators read in
  non local Contribution for L=           0  read in
    real space projection operators read in
  non local Contribution for L=           1  read in
    real space projection operators read in
  non local Contribution for L=           1  read in
    real space projection operators read in
    PAW grid and wavefunctions read in
 
   number of l-projection  operators is LMAX  =           4
   number of lm-projection operators is LMMAX =           8
 
 Optimization of the real space projectors (new method)

 maximal supplied QI-value         = 22.11
 optimisation between [QCUT,QGAM] = [ 11.94, 23.88] = [ 39.92,159.67] Ry 
 Optimized for a Real-space Cutoff    1.18 Angstroem

   l    n(q)    QCUT    max X(q) W(low)/X(q) W(high)/X(q)  e(spline) 
   0      8    11.939    53.033    0.11E-03    0.34E-03    0.60E-07
   0      8    11.939    34.740    0.11E-03    0.34E-03    0.59E-07
   1      8    11.939    30.949    0.22E-03    0.20E-03    0.17E-06
   1      8    11.939    19.518    0.20E-03    0.18E-03    0.16E-06
 Optimization of the real space projectors (new method)

 maximal supplied QI-value         = 25.13
 optimisation between [QCUT,QGAM] = [ 11.81, 23.88] = [ 39.08,159.64] Ry 
 Optimized for a Real-space Cutoff    1.41 Angstroem

   l    n(q)    QCUT    max X(q) W(low)/X(q) W(high)/X(q)  e(spline) 
   0     10    11.813    79.467    0.48E-04    0.30E-04    0.67E-06
   0     10    11.813    66.151    0.47E-04    0.30E-04    0.67E-06
   1     10    11.813    20.169    0.11E-03    0.17E-03    0.11E-05
   1     10    11.813    14.454    0.11E-03    0.17E-03    0.11E-05
 Optimization of the real space projectors (new method)

 maximal supplied QI-value         = 25.13
 optimisation between [QCUT,QGAM] = [ 11.81, 23.88] = [ 39.08,159.64] Ry 
 Optimized for a Real-space Cutoff    1.18 Angstroem

   l    n(q)    QCUT    max X(q) W(low)/X(q) W(high)/X(q)  e(spline) 
   0      8    11.813   115.676    0.10E-03    0.16E-03    0.35E-06
   0      8    11.813    87.132    0.10E-03    0.16E-03    0.35E-06
   1      8    11.813     4.429    0.16E-03    0.13E-04    0.22E-06
   1      8    11.813     2.733    0.13E-03    0.10E-04    0.18E-06
 Optimization of the real space projectors (new method)

 maximal supplied QI-value         = 24.76
 optimisation between [QCUT,QGAM] = [ 11.88, 24.01] = [ 39.54,161.47] Ry 
 Optimized for a Real-space Cutoff    1.18 Angstroem

   l    n(q)    QCUT    max X(q) W(low)/X(q) W(high)/X(q)  e(spline) 
   0      8    11.883    14.049    0.56E-04    0.86E-04    0.22E-06
   0      8    11.883     8.945    0.81E-04    0.11E-03    0.30E-06
   1      8    11.883     7.086    0.16E-03    0.15E-04    0.31E-06
   1      8    11.883     6.747    0.15E-03    0.14E-04    0.28E-06
 Optimization of the real space projectors (new method)

 maximal supplied QI-value         = 24.76
 optimisation between [QCUT,QGAM] = [ 11.88, 24.01] = [ 39.54,161.47] Ry 
 Optimized for a Real-space Cutoff    1.18 Angstroem

   l    n(q)    QCUT    max X(q) W(low)/X(q) W(high)/X(q)  e(spline) 
   0      8    11.883    20.381    0.86E-04    0.11E-03    0.31E-06
   0      8    11.883    15.268    0.94E-04    0.12E-03    0.33E-06
   1      8    11.883     5.964    0.19E-03    0.18E-04    0.33E-06
   1      8    11.883     5.382    0.17E-03    0.20E-04    0.29E-06
  PAW_PBE B 06Sep2000                   :
 energy of atom  1       EATOM=  -71.1703
 kinetic energy error for atom=    0.0009 (will be added to EATOM!!)
  PAW_PBE N 08Apr2002                   :
 energy of atom  2       EATOM= -264.5486
 kinetic energy error for atom=    0.0116 (will be added to EATOM!!)
  PAW_PBE C 08Apr2002                   :
 energy of atom  3       EATOM= -147.1560
 kinetic energy error for atom=    0.0066 (will be added to EATOM!!)
  PAW_PBE F 08Apr2002                   :
 energy of atom  4       EATOM= -659.6475
 kinetic energy error for atom=    0.0296 (will be added to EATOM!!)
  PAW_PBE O 08Apr2002                   :
 energy of atom  5       EATOM= -432.3788
 kinetic energy error for atom=    0.0194 (will be added to EATOM!!)
 
 
 POSCAR: B N C F O                               
  positions in direct lattice
  velocities in cartesian coordinates

 METAGGA = SCAN     LMAXTAU =  6    LMIXTAU =  F

 exchange correlation table for  LEXCH =        8
   RHO(1)=    0.500       N(1)  =     2000
   RHO(2)=  100.500       N(2)  =     4000
 


--------------------------------------------------------------------------------------------------------


 ion  position               nearest neighbor table
   1  0.110  0.053  0.379-  43 1.45  37 1.45  42 1.45
   2  0.110  0.219  0.379-  44 1.45  38 1.45  37 1.45
   3  0.110  0.386  0.379-  45 1.45  39 1.45  38 1.45
   4  0.110  0.553  0.379-  40 1.45  46 1.45  39 1.45
   5  0.110  0.719  0.379-  41 1.45  40 1.45  47 1.45
   6  0.110  0.886  0.379-  41 1.45  48 1.45  42 1.45
   7  0.276  0.053  0.379-  49 1.45  43 1.45  48 1.45
   8  0.276  0.219  0.379-  50 1.45  44 1.45  43 1.45
   9  0.276  0.386  0.379-  51 1.45  45 1.45  44 1.45
  10  0.276  0.553  0.379-  52 1.45  45 1.45  46 1.45
  11  0.276  0.719  0.379-  53 1.45  46 1.45  47 1.45
  12  0.276  0.886  0.379-  54 1.45  48 1.45  47 1.45
  13  0.443  0.053  0.379-  49 1.45  55 1.45  54 1.45
  14  0.443  0.219  0.379-  56 1.45  50 1.45  49 1.45
  15  0.443  0.386  0.379-  57 1.45  51 1.45  50 1.45
  16  0.443  0.553  0.379-  58 1.45  51 1.45  52 1.45
  17  0.443  0.719  0.379-  59 1.45  52 1.45  53 1.45
  18  0.443  0.886  0.379-  53 1.45  60 1.45  54 1.45
  19  0.610  0.053  0.379-  55 1.45  60 1.45  61 1.45
  20  0.610  0.219  0.379-  56 1.45  62 1.45  55 1.45
  21  0.610  0.386  0.379-  57 1.45  63 1.45  56 1.45
  22  0.610  0.553  0.379-  64 1.45  57 1.45  58 1.45
  23  0.610  0.719  0.379-  58 1.45  65 1.45  59 1.45
  24  0.610  0.886  0.379-  59 1.45  66 1.45  60 1.45
  25  0.776  0.053  0.379-  66 1.45  67 1.45  61 1.45
  26  0.776  0.219  0.379-  62 1.45  61 1.45  68 1.45
  27  0.776  0.386  0.379-  63 1.45  69 1.45  62 1.45
  28  0.776  0.553  0.379-  64 1.45  63 1.45  70 1.45
  29  0.776  0.719  0.379-  64 1.45  65 1.45  71 1.45
  30  0.776  0.886  0.379-  65 1.45  72 1.45  66 1.45
  31  0.943  0.053  0.379-  72 1.45  37 1.45  67 1.45
  32  0.943  0.219  0.379-  68 1.45  38 1.45  67 1.45
  33  0.943  0.386  0.379-  69 1.45  68 1.45  39 1.45
  34  0.943  0.553  0.379-  70 1.45  69 1.45  40 1.45
  35  0.943  0.719  0.379-  71 1.45  70 1.45  41 1.45
  36  0.943  0.886  0.379-  71 1.45  72 1.45  42 1.45
  37  0.054  0.108  0.379-   1 1.45  31 1.45   2 1.45
  38  0.054  0.275  0.379-  32 1.45   3 1.45   2 1.45
  39  0.054  0.441  0.379-   3 1.45   4 1.45  33 1.45
  40  0.054  0.608  0.379-   5 1.45   4 1.45  34 1.45
  41  0.054  0.775  0.379-   5 1.45   6 1.45  35 1.45
  42  0.054  0.941  0.379-   1 1.45   6 1.45  36 1.45
  43  0.221  0.108  0.379-   7 1.45   1 1.45   8 1.45
  44  0.221  0.275  0.379-   2 1.45   8 1.45   9 1.45
  45  0.221  0.441  0.379-   3 1.45  10 1.45   9 1.45
  46  0.221  0.608  0.379-   4 1.45  11 1.45  10 1.45
  47  0.221  0.775  0.379-  11 1.45  12 1.45   5 1.45
  48  0.221  0.941  0.379-  12 1.45   6 1.45   7 1.45
  49  0.387  0.108  0.379-  13 1.45   7 1.45  14 1.45
  50  0.387  0.275  0.379-   8 1.45  14 1.45  15 1.45
  51  0.387  0.441  0.379-   9 1.45  16 1.45  15 1.45
  52  0.387  0.608  0.379-  10 1.45  17 1.45  16 1.45
  53  0.387  0.775  0.379-  18 1.45  11 1.45  17 1.45
  54  0.387  0.941  0.379-  12 1.45  18 1.45  13 1.45
  55  0.554  0.108  0.379-  13 1.45  19 1.45  20 1.45
  56  0.554  0.275  0.379-  20 1.45  14 1.45  21 1.45
  57  0.554  0.441  0.379-  15 1.45  21 1.45  22 1.45
  58  0.554  0.608  0.379-  16 1.45  23 1.45  22 1.45
  59  0.554  0.775  0.379-  17 1.45  24 1.45  23 1.45
  60  0.554  0.941  0.379-  18 1.45  19 1.45  24 1.45
  61  0.721  0.108  0.379-  19 1.45  25 1.45  26 1.45
  62  0.721  0.275  0.379-  26 1.45  20 1.45  27 1.45
  63  0.721  0.441  0.379-  27 1.45  21 1.45  28 1.45
  64  0.721  0.608  0.379-  28 1.45  29 1.45  22 1.45
  65  0.721  0.775  0.379-  30 1.45  23 1.45  29 1.45
  66  0.721  0.941  0.379-  25 1.45  24 1.45  30 1.45
  67  0.887  0.108  0.379-  31 1.45  32 1.45  25 1.45
  68  0.887  0.275  0.379-  32 1.45  33 1.45  26 1.45
  69  0.887  0.441  0.379-  33 1.45  34 1.45  27 1.45
  70  0.887  0.608  0.379-  34 1.45  35 1.45  28 1.45
  71  0.887  0.775  0.379-  36 1.45  35 1.45  29 1.45
  72  0.887  0.941  0.379-  31 1.45  36 1.45  30 1.45
  73  0.436  0.474  0.608-  82 1.35  81 1.35  74 1.55  75 1.55
  74  0.497  0.547  0.582-  84 1.35  83 1.35  73 1.55  76 1.56
  75  0.440  0.532  0.637-  90 1.35  89 1.35  79 1.55  73 1.55
  76  0.468  0.494  0.551-  86 1.35  85 1.36  77 1.55  74 1.56
  77  0.550  0.551  0.526-  87 1.36  88 1.36  78 1.54  76 1.55
  78  0.514  0.520  0.494-  92 1.37  91 1.37  77 1.54  80 1.56
  79  0.413  0.465  0.665-  94 1.34  95 1.34  93 1.34  75 1.55
  80  0.606  0.551  0.472-  97 1.24  96 1.25  78 1.56
  81  0.337  0.415  0.600-  73 1.35
  82  0.476  0.413  0.613-  73 1.35
  83  0.478  0.626  0.582-  74 1.35
  84  0.598  0.584  0.586-  74 1.35
  85  0.453  0.398  0.554-  76 1.36
  86  0.378  0.487  0.542-  76 1.35
  87  0.585  0.653  0.530-  77 1.36
  88  0.629  0.534  0.532-  77 1.36
  89  0.536  0.613  0.640-  75 1.35
  90  0.373  0.566  0.635-  75 1.35
  91  0.447  0.416  0.494-  78 1.37
  92  0.457  0.564  0.486-  78 1.37
  93  0.326  0.376  0.661-  79 1.34
  94  0.488  0.446  0.672-  79 1.34
  95  0.400  0.514  0.688-  79 1.34
  96  0.657  0.645  0.468-  80 1.25
  97  0.617  0.480  0.463-  80 1.24
 
  LATTYP: Found a hexagonal cell.
 ALAT       =    15.0731108134
 C/A-ratio  =     2.9854487609
  
  Lattice vectors:
  
 A1 = (   7.5365500000, -13.0537000000,   0.0000000000)
 A2 = (   7.5365500000,  13.0537000000,   0.0000000000)
 A3 = (   0.0000000000,   0.0000000000,  45.0000000000)


Analysis of symmetry for initial positions (statically):
=====================================================================
 Subroutine PRICEL returns:
 Original cell was already a primitive cell.
 

 Routine SETGRP: Setting up the symmetry group for a 
 hexagonal supercell.


 Subroutine GETGRP returns: Found  1 space group operations
 (whereof  1 operations were pure point group operations)
 out of a pool of 24 trial point group operations.


The static configuration has the point symmetry C_1 .


Analysis of symmetry for dynamics (positions and initial velocities):
=====================================================================
 Subroutine PRICEL returns:
 Original cell was already a primitive cell.
 

 Routine SETGRP: Setting up the symmetry group for a 
 hexagonal supercell.


 Subroutine GETGRP returns: Found  1 space group operations
 (whereof  1 operations were pure point group operations)
 out of a pool of 24 trial point group operations.


The dynamic configuration has the point symmetry C_1 .


Analysis of constrained symmetry for selective dynamics:
=====================================================================
 Subroutine PRICEL returns:
 Original cell was already a primitive cell.
 

 Routine SETGRP: Setting up the symmetry group for a 
 hexagonal supercell.


 Subroutine GETGRP returns: Found  1 space group operations
 (whereof  1 operations were pure point group operations)
 out of a pool of 24 trial point group operations.


The constrained configuration has the point symmetry C_1 .


Analysis of structural, dynamic, and magnetic symmetry:
=====================================================================
 Subroutine PRICEL returns:
 Original cell was already a primitive cell.
 

 Routine SETGRP: Setting up the symmetry group for a 
 hexagonal supercell.


 Subroutine GETGRP returns: Found  1 space group operations
 (whereof  1 operations were pure point group operations)
 out of a pool of 24 trial point group operations.


The magnetic configuration has the point symmetry C_1 .


 Subroutine INISYM returns: Found  1 space group operations
 (whereof  1 operations are pure point group operations),
 and found     1 'primitive' translations

 
 
 KPOINTS: K-Point Grid                            

Automatic generation of k-mesh.
Space group operators:
 irot       det(A)        alpha          n_x          n_y          n_z        tau_x        tau_y        tau_z
    1     1.000000     0.000001     1.000000     0.000000     0.000000     0.000000     0.000000     0.000000
 
 Subroutine IBZKPT returns following result:
 ===========================================
 
 Found      5 irreducible k-points:
 
 Following reciprocal coordinates:
            Coordinates               Weight
  0.000000  0.000000  0.000000      1.000000
  0.333333 -0.000000  0.000000      2.000000
 -0.000000  0.333333  0.000000      2.000000
  0.333333  0.333333  0.000000      2.000000
 -0.333333  0.333333  0.000000      2.000000
 
 Following cartesian coordinates:
            Coordinates               Weight
  0.000000  0.000000  0.000000      1.000000
  0.022114 -0.012768  0.000000      2.000000
  0.022114  0.012768  0.000000      2.000000
  0.044229  0.000000  0.000000      2.000000
  0.000000  0.025536  0.000000      2.000000
 


--------------------------------------------------------------------------------------------------------




 Dimension of arrays:
   k-points           NKPTS =      5   k-points in BZ     NKDIM =      5   number of bands    NBANDS=    320
   number of dos      NEDOS =   1200   number of ions     NIONS =     97
   non local maximal  LDIM  =      4   non local SUM 2l+1 LMDIM =      8
   total plane-waves  NPLWV = ******
   max r-space proj   IRMAX =   6674   max aug-charges    IRDMAX=   9075
   dimension x,y,z NGX =   120 NGY =  120 NGZ =  350
   dimension x,y,z NGXF=   240 NGYF=  240 NGZF=  700
   support grid    NGXF=   240 NGYF=  240 NGZF=  700
   ions per type =              36  36   8  15   2
   NGX,Y,Z   is equivalent  to a cutoff of  13.24, 13.24, 12.93 a.u.
   NGXF,Y,Z  is equivalent  to a cutoff of  26.47, 26.47, 25.86 a.u.

 SYSTEM =  SiC                                     
 POSCAR =  B N C F O                               

 Startparameter for this run:
   NWRITE =      2    write-flag & timer
   PREC   = accura    normal or accurate (medium, high low for compatibility)
   ISTART =      1    job   : 0-new  1-cont  2-samecut
   ICHARG =      0    charge: 1-file 2-atom 10-const
   ISPIN  =      2    spin polarized calculation?
   LNONCOLLINEAR =      F non collinear calculations
   LSORBIT =      F    spin-orbit coupling
   INIWAV =      1    electr: 0-lowe 1-rand  2-diag
   LASPH  =      T    aspherical Exc in radial PAW
   METAGGA=      F    non-selfconsistent MetaGGA calc.

 Electronic Relaxation 1
   ENCUT  =  550.0 eV  40.42 Ry    6.36 a.u.  28.82 28.82 86.05*2*pi/ulx,y,z
   ENINI  =  550.0     initial cutoff
   ENAUG  =  644.9 eV  augmentation charge cutoff
   NELM   =    100;   NELMIN=  2; NELMDL=  0     # of ELM steps 
   EDIFF  = 0.1E-04   stopping-criterion for ELM
   LREAL  =      T    real-space projection
   NLSPLINE    = F    spline interpolate recip. space projectors
   LCOMPAT=      F    compatible to vasp.4.4
   GGA_COMPAT  = T    GGA compatible to vasp.4.4-vasp.4.6
   LMAXPAW     = -100 max onsite density
   LMAXMIX     =    2 max onsite mixed and CHGCAR
   VOSKOWN=      0    Vosko Wilk Nusair interpolation
   ROPT   =   -0.00025  -0.00025  -0.00025  -0.00025
   ROPT   =   -0.00025
 Ionic relaxation
   EDIFFG = -.2E-01   stopping-criterion for IOM
   NSW    =    500    number of steps for IOM
   NBLOCK =      1;   KBLOCK =    500    inner block; outer block 
   IBRION =      2    ionic relax: 0-MD 1-quasi-New 2-CG
   NFREE  =      1    steps in history (QN), initial steepest desc. (CG)
   ISIF   =      2    stress and relaxation
   IWAVPR =     11    prediction:  0-non 1-charg 2-wave 3-comb
   ISYM   =      2    0-nonsym 1-usesym 2-fastsym
   LCORR  =      T    Harris-Foulkes like correction to forces

   POTIM  = 0.5000    time-step for ionic-motion
   TEIN   =    0.0    initial temperature
   TEBEG  =    0.0;   TEEND  =   0.0 temperature during run
   SMASS  =  -3.00    Nose mass-parameter (am)
   estimated Nose-frequenzy (Omega)   =  0.10E-29 period in steps =****** mass=  -0.519E-26a.u.
   SCALEE = 1.0000    scale energy and forces
   NPACO  =    256;   APACO  = 16.0  distance and # of slots for P.C.
   PSTRESS=    0.0 pullay stress

  Mass of Ions in am
   POMASS =  10.81 14.00 12.01 19.00 16.00
  Ionic Valenz
   ZVAL   =   3.00  5.00  4.00  7.00  6.00
  Atomic Wigner-Seitz radii
   RWIGS  =  -1.00 -1.00 -1.00 -1.00 -1.00
  virtual crystal weights 
   VCA    =   1.00  1.00  1.00  1.00  1.00
   NELECT =     438.0000    total number of electrons
   NUPDOWN=      -1.0000    fix difference up-down

 DOS related values:
   EMIN   =  10.00;   EMAX   =-10.00  energy-range for DOS
   EFERMI =   0.00
   ISMEAR =     0;   SIGMA  =   0.05  broadening in eV -4-tet -1-fermi 0-gaus

 Electronic relaxation 2 (details)
   IALGO  =     68    algorithm
   LDIAG  =      T    sub-space diagonalisation (order eigenvalues)
   LSUBROT=      F    optimize rotation matrix (better conditioning)
   TURBO    =      0    0=normal 1=particle mesh
   IRESTART =      0    0=no restart 2=restart with 2 vectors
   NREBOOT  =      0    no. of reboots
   NMIN     =      0    reboot dimension
   EREF     =   0.00    reference energy to select bands
   IMIX   =      4    mixing-type and parameters
     AMIX     =   0.40;   BMIX     =  1.00
     AMIX_MAG =   1.60;   BMIX_MAG =  1.00
     AMIN     =   0.10
     WC   =   100.;   INIMIX=   1;  MIXPRE=   1;  MAXMIX= -45

 Intra band minimization:
   WEIMIN = 0.0010     energy-eigenvalue tresh-hold
   EBREAK =  0.78E-08  absolut break condition
   DEPER  =   0.30     relativ break condition  

   TIME   =   0.40     timestep for ELM

  volume/ion in A,a.u.               =      91.28       615.99
  Fermi-wavevector in a.u.,A,eV,Ry     =   0.600966  1.135661  4.913883  0.361160
  Thomas-Fermi vector in A             =   1.653023
 
 Write flags
   LWAVE        =      T    write WAVECAR
   LDOWNSAMPLE  =      F    k-point downsampling of WAVECAR
   LCHARG       =      F    write CHGCAR
   LVTOT        =      F    write LOCPOT, total local potential
   LVHAR        =      T    write LOCPOT, Hartree potential only
   LELF         =      F    write electronic localiz. function (ELF)
   LORBIT       =     11    0 simple, 1 ext, 2 COOP (PROOUT), +10 PAW based schemes


 Dipole corrections
   LMONO  =      F    monopole corrections only (constant potential shift)
   LDIPOL =      F    correct potential (dipole corrections)
   IDIPOL =      0    1-x, 2-y, 3-z, 4-all directions 
   EPSILON=  1.0000000 bulk dielectric constant

 Exchange correlation treatment:
   GGA     =    --    GGA type
   LEXCH   =     8    internal setting for exchange type
   VOSKOWN=      0    Vosko Wilk Nusair interpolation
   LHFCALC =     F    Hartree Fock is set to
   LHFONE  =     F    Hartree Fock one center treatment
   AEXX    =    0.0000 exact exchange contribution

 vdW DFT:
   LUSE_VDW   =     T    switch on vdW DFT
   Zab_VDW    =-.8491    correlation parameter
   PARAM1     =0.1234
   PARAM2     =1.0000
   PARAM3     =0.0000
   -- rVV10 --
   BPARAM     =15.7000
   CPARAM     = 0.0093

 Linear response parameters
   LEPSILON=     F    determine dielectric tensor
   LRPA    =     F    only Hartree local field effects (RPA)
   LNABLA  =     F    use nabla operator in PAW spheres
   LVEL    =     F    velocity operator in full k-point grid
   LINTERFAST=   F  fast interpolation
   KINTER  =     0    interpolate to denser k-point grid
   CSHIFT  =0.1000    complex shift for real part using Kramers Kronig
   OMEGAMAX=  -1.0    maximum frequency
   DEG_THRESHOLD= 0.2000000E-02 threshold for treating states as degnerate
   RTIME   =   -0.100 relaxation time in fs
  (WPLASMAI=    0.000 imaginary part of plasma frequency in eV, 0.658/RTIME)
   DFIELD  = 0.0000000 0.0000000 0.0000000 field for delta impulse in time
 
 Orbital magnetization related:
   ORBITALMAG=     F  switch on orbital magnetization
   LCHIMAG   =     F  perturbation theory with respect to B field
   DQ        =  0.001000  dq finite difference perturbation B field
   LLRAUG    =     F  two centre corrections for induced B field

 Solvation model:
   LSOL    =     T         switch on solvation model
   EB_K    = 78.400000     relative permittivity of the bulk solvent
   SIGMA_K =  0.600000     width of the dielectric cavity
   NC_K    =  0.002500     cutoff charge density
   TAU     =  0.000000     cavity surface tension
   LAMBDA_D_K    =  3.040000     Debye length in Angstroms
   LRHOB     =     F     write boundcharge  density
   LRHOION     =     F     write ioniccharge density



--------------------------------------------------------------------------------------------------------


 conjugate gradient relaxation of ions
   using selective dynamics as specified on POSCAR
 charge density and potential will be updated during run
 spin polarized calculation
 RMM-DIIS sequential band-by-band and
  variant of blocked Davidson during initial phase
 perform sub-space diagonalisation
    before iterative eigenvector-optimisation
 modified Broyden-mixing scheme, WC =      100.0
 initial mixing is a Kerker type mixing with AMIX =  0.4000 and BMIX =      1.0000
 Hartree-type preconditioning will be used
 using additional bands          101
 real space projection scheme for non local part
 use partial core corrections
 calculate Harris-corrections to forces 
   (improved forces if not selfconsistent)
 use gradient corrections 
 use of overlap-Matrix (Vanderbilt PP)
 Gauss-broadening in eV      SIGMA  =   0.05


--------------------------------------------------------------------------------------------------------


  energy-cutoff  :      550.00
  volume of cell :     8854.19
      direct lattice vectors                 reciprocal lattice vectors
     7.536550000-13.053700000  0.000000000     0.066343353 -0.038303316  0.000000000
     7.536550000 13.053700000  0.000000000     0.066343353  0.038303316  0.000000000
     0.000000000  0.000000000 45.000000000     0.000000000  0.000000000  0.022222222

  length of vectors
    15.073110813 15.073110813 45.000000000     0.076606688  0.076606688  0.022222222


 
 old parameters found on file WAVECAR:
  energy-cutoff  :      600.00
  volume of cell :     8854.19
      direct lattice vectors                 reciprocal lattice vectors
     7.536550000-13.053700000  0.000000000     0.066343353 -0.038303316  0.000000000
     7.536550000 13.053700000  0.000000000     0.066343353  0.038303316  0.000000000
     0.000000000  0.000000000 45.000000000     0.000000000  0.000000000  0.022222222

  length of vectors

 
 k-points in units of 2pi/SCALE and weight: K-Point Grid                            
   0.00000000  0.00000000  0.00000000       0.111
   0.02211445 -0.01276777  0.00000000       0.222
   0.02211445  0.01276777  0.00000000       0.222
   0.04422890  0.00000000  0.00000000       0.222
   0.00000000  0.02553554  0.00000000       0.222
 
 k-points in reciprocal lattice and weights: K-Point Grid                            
   0.00000000  0.00000000  0.00000000       0.111
   0.33333333 -0.00000000  0.00000000       0.222
  -0.00000000  0.33333333  0.00000000       0.222
   0.33333333  0.33333333  0.00000000       0.222
  -0.33333333  0.33333333  0.00000000       0.222
 
 position of ions in fractional coordinates (direct lattice) 
   0.10958326  0.05251773  0.37932207
   0.10959458  0.21918823  0.37940011
   0.10959362  0.38585058  0.37938923
   0.10959629  0.55252640  0.37934258
   0.10957532  0.71917500  0.37931460
   0.10958887  0.88585142  0.37928947
   0.27624957  0.05252602  0.37932791
   0.27628310  0.21921076  0.37936721
   0.27628608  0.38587156  0.37940693
   0.27626818  0.55251446  0.37938854
   0.27626451  0.71918529  0.37935945
   0.27624728  0.88584254  0.37933737
   0.44290741  0.05252243  0.37936624
   0.44293300  0.21919490  0.37932917
   0.44299089  0.38588665  0.37928771
   0.44298338  0.55253247  0.37934783
   0.44293401  0.71917778  0.37936566
   0.44291319  0.88584854  0.37938931
   0.60956456  0.05250776  0.37935171
   0.60957372  0.21920527  0.37931398
   0.60957500  0.38590652  0.37923205
   0.60963005  0.55250147  0.37925733
   0.60960704  0.71915136  0.37932537
   0.60958756  0.88583511  0.37936267
   0.77625579  0.05251236  0.37930779
   0.77622864  0.21918101  0.37929622
   0.77623155  0.38587642  0.37925552
   0.77620386  0.55251992  0.37920884
   0.77621606  0.71912308  0.37923643
   0.77623760  0.88581662  0.37929978
   0.94291437  0.05250877  0.37933062
   0.94292153  0.21919630  0.37933918
   0.94292130  0.38585584  0.37929541
   0.94289779  0.55251220  0.37927929
   0.94290318  0.71916923  0.37928497
   0.94289989  0.88583101  0.37929616
   0.05402688  0.10807278  0.37934658
   0.05403056  0.27473930  0.37939456
   0.05404123  0.44140876  0.37932247
   0.05402776  0.60806656  0.37930574
   0.05403718  0.77474115  0.37928024
   0.05402887  0.94140505  0.37927526
   0.22069352  0.10807908  0.37933748
   0.22070397  0.27474781  0.37939889
   0.22069967  0.44140245  0.37940737
   0.22070626  0.60807201  0.37935949
   0.22069368  0.77472774  0.37932305
   0.22070143  0.94140678  0.37929499
   0.38735472  0.10806683  0.37933396
   0.38737289  0.27473651  0.37931532
   0.38737488  0.44140742  0.37934625
   0.38736948  0.60806604  0.37935385
   0.38736971  0.77474344  0.37937290
   0.38735435  0.94140199  0.37937922
   0.55401409  0.10807022  0.37934394
   0.55402666  0.27474722  0.37928434
   0.55402215  0.44140502  0.37913408
   0.55404984  0.60806735  0.37927539
   0.55403804  0.77473091  0.37933911
   0.55401919  0.94139402  0.37937272
   0.72068340  0.10805904  0.37931608
   0.72068785  0.27473944  0.37926311
   0.72068898  0.44140094  0.37920397
   0.72071968  0.60807737  0.37910228
   0.72070718  0.77474106  0.37926967
   0.72070240  0.94140722  0.37930605
   0.88737302  0.10807997  0.37931331
   0.88735822  0.27473669  0.37928676
   0.88736614  0.44140159  0.37924361
   0.88736045  0.60806421  0.37928012
   0.88736498  0.77473367  0.37928665
   0.88736051  0.94140511  0.37928355
   0.43629697  0.47436722  0.60765863
   0.49661178  0.54701945  0.58153489
   0.44038804  0.53177241  0.63675154
   0.46750925  0.49386400  0.55058085
   0.54961932  0.55138528  0.52628891
   0.51354641  0.51971668  0.49391964
   0.41304161  0.46475234  0.66509670
   0.60567303  0.55119534  0.47221224
   0.33699345  0.41541686  0.59959149
   0.47580837  0.41280666  0.61324630
   0.47793766  0.62603562  0.58150606
   0.59775188  0.58424875  0.58636461
   0.45303400  0.39805021  0.55362107
   0.37806932  0.48664151  0.54192594
   0.58475602  0.65317193  0.52966550
   0.62859802  0.53399415  0.53150991
   0.53589591  0.61274570  0.64039494
   0.37348631  0.56632931  0.63453573
   0.44710446  0.41609471  0.49390519
   0.45732016  0.56443822  0.48581817
   0.32624987  0.37556710  0.66086153
   0.48819403  0.44593841  0.67219224
   0.39952992  0.51449185  0.68769455
   0.65670640  0.64544225  0.46792846
   0.61659334  0.47966853  0.46289461
 
 position of ions in cartesian coordinates  (Angst):
   1.22168219 -0.74491626 17.06949330
   2.47788810  1.43060253 17.07300491
   3.73393995  3.60617548 17.07251516
   4.99012081  5.78187676 17.07041604
   6.24591822  7.95753134 17.06915717
   7.50218551 10.13309842 17.06802598
   2.47783363 -2.92042013 17.06975588
   3.73431428 -0.74500522 17.07152432
   4.99038416  1.43049594 17.07331188
   6.24616182  3.60603597 17.07248410
   7.50225721  5.78175493 17.07117516
   8.75814809  7.95747362 17.07018163
   3.73383173 -5.09596840 17.07148079
   4.99015999 -2.92060997 17.06981262
   6.24687704 -0.74542166 17.06794692
   7.50275498  1.43002095 17.07065217
   8.75831354  3.60600330 17.07145489
  10.01427921  5.78194528 17.07251900
   4.98974117 -7.27165233 17.07082694
   6.24613431 -5.09575254 17.06912892
   7.50249624 -2.91970120 17.06544213
   8.75846234 -0.74573930 17.06657991
  10.01425411  1.42995872 17.06964147
  11.27032772  3.60605257 17.07132017
   6.24605262 -9.44752953 17.06885059
   7.50195462 -7.27153261 17.06832990
   8.75828477 -5.09557877 17.06649846
  10.01399320 -2.91990309 17.06439779
  11.26969821 -0.74527459 17.06563922
  12.52615471  1.43041163 17.06849000
   7.50205627-11.62308755 17.06987791
   8.75835914 -9.44729208 17.07026288
  10.01439539 -7.27176537 17.06829332
  11.27023214 -5.09597633 17.06756784
  12.52629180 -2.92055587 17.06782386
  13.78232188 -0.74496002 17.06832716
   1.22167220  0.70549886 17.07059599
   2.47779047  2.88106565 17.07275516
   3.73398364  5.05657952 17.06951107
   4.98990698  7.23225628 17.06875808
   6.24612935  9.40785334 17.06761093
   7.50213754 11.58354240 17.06738673
   2.47781109 -1.47003516 17.07018676
   3.73399709  0.70547210 17.07294988
   4.98996568  2.88098789 17.07333143
   6.24612888  5.05655637 17.07117722
   7.50204331  7.23219441 17.06953717
   8.75828658  9.40787143 17.06827434
   3.73376929 -3.64574041 17.07002811
   4.99002053 -1.47032150 17.06918918
   6.24615928  0.70532454 17.07058116
   7.50214955  2.88090661 17.07092324
   8.75832388  5.05666044 17.07178060
  10.01423863  7.23237170 17.07206485
   4.98983150 -5.82121751 17.07047719
   6.24609575 -3.64563008 17.06779552
   7.50208663 -1.47007020 17.06103372
   8.75835432  0.70512843 17.06739270
  10.01433362  2.88085848 17.07026005
  11.27025647  5.05667480 17.07177246
   6.24585886 -7.99701462 17.06922350
   7.50208756 -5.82127671 17.06683982
   8.75814879 -3.64574230 17.06417861
  10.01454542 -1.47039887 17.05960260
  11.27052044  0.70534199 17.06713493
  12.52657220  2.88101454 17.06877220
   7.50228118-10.17265769 17.06909909
   8.75818635 -7.99697767 17.06790429
  10.01432442 -5.82148736 17.06596249
  11.27034279 -3.64584931 17.06760548
  12.52648958 -1.47025523 17.06789922
  13.78258360  0.70548201 17.06775967
   6.86326623  0.49695763 27.34463833
   7.86537895  0.65800649 26.16907017
   7.32673588  1.19290409 28.65381910
   7.24543756  0.34402689 24.77613807
   8.29777619  0.02305235 23.68300074
   7.78723896  0.08054495 22.22638376
   6.61553803  0.67501636 29.92935141
   8.71879630 -0.71113540 21.24955090
   5.67057791  1.02371558 26.98161707
   6.69709161 -0.82240553 27.59608370
   8.32014980  1.93322643 26.16777259
   8.90820686 -0.17626572 26.38640758
   6.41423864 -0.71774190 24.91294809
   6.51693641  1.41726876 24.38666741
   9.32970593  0.89308074 23.83494732
   8.76193404 -1.23493056 23.91794599
   8.65679493  1.00317404 28.81777214
   7.08296744  2.51731465 28.55410786
   6.50554373 -0.40479205 22.22573366
   7.70053313  1.39828704 21.86181761
   5.28927868  0.64377235 29.73876887
   7.04013582 -0.55159211 30.24865075
   6.88857081  1.50067857 30.94625470
   9.81370842 -0.14703893 21.05678053
   8.26203236 -1.78737541 20.83025765
 


--------------------------------------------------------------------------------------------------------


 k-point  1 :   0.0000 0.0000 0.0000  plane waves:  259121
 k-point  2 :   0.3333-0.0000 0.0000  plane waves:  259350
 k-point  3 :  -0.0000 0.3333 0.0000  plane waves:  259350
 k-point  4 :   0.3333 0.3333 0.0000  plane waves:  259275
 k-point  5 :  -0.3333 0.3333 0.0000  plane waves:  259350

 maximum and minimum number of plane-waves per node :      5435     5363

 maximum number of plane-waves:    259350
 maximum index in each direction: 
   IXMAX=   29   IYMAX=   28   IZMAX=   86
   IXMIN=  -29   IYMIN=  -29   IZMIN=  -86


 real space projection operators:
  total allocation   :      28840.88 KBytes
  max/ min on nodes  :        792.44        412.69


 parallel 3D FFT for wavefunctions:
    minimum data exchange during FFTs selected (reduces bandwidth)
 parallel 3D FFT for charge:
    minimum data exchange during FFTs selected (reduces bandwidth)


 total amount of memory used by VASP MPI-rank0   183933. kBytes
=======================================================================

   base      :      30000. kBytes
   nonlr-proj:      11884. kBytes
   fftplans  :      13978. kBytes
   grid      :      58575. kBytes
   one-center:         18. kBytes
   wavefun   :      69478. kBytes
 
     INWAV:  cpu time   38.7315: real time   40.2123
 Broyden mixing: mesh for mixing (old mesh)
   NGX = 57   NGY = 57   NGZ =173
  (NGX  =240   NGY  =240   NGZ  =700)
  gives a total of 562077 points

 charge density for first step will be calculated from the start-wavefunctions


--------------------------------------------------------------------------------------------------------


 Maximum index for non-local projection operator          371
 Maximum index for augmentation-charges          386 (set IRDMAX)


--------------------------------------------------------------------------------------------------------


 initial charge from wavefunction
 First call to EWALD:  gamma=   0.086
 Maximum number of real-space cells 4x 4x 2
 Maximum number of reciprocal cells 2x 2x 5

    FEWALD:  cpu time    0.0098: real time    0.0049


--------------------------------------- Iteration      1(   1)  ---------------------------------------


    POTLOK:  cpu time   25.9897: real time   25.9275
    SETDIJ:  cpu time    0.7121: real time    0.5161
     EDDAV:  cpu time  196.6118: real time   99.3395
       DOS:  cpu time    0.1274: real time    0.1224
    CHARGE:  cpu time   16.5565: real time   16.0244
    MIXING:  cpu time    0.1935: real time    0.3279
    --------------------------------------------
      LOOP:  cpu time  240.1912: real time  142.2630

 eigenvalue-minimisations  :  6528
 total energy-change (2. order) :-0.8822052E+03  (-0.7810514E-03)
 number of electron     437.9999974 magnetization       0.0000000
 augmentation part       29.2615536 magnetization      -0.0000002

 Broyden mixing:
  rms(total) = 0.84157E-02    rms(broyden)= 0.84054E-02
  rms(prec ) = 0.85119E-02
  weight for this iteration     100.00

 Free energy of the ion-electron system (eV)
  ---------------------------------------------------
  alpha Z        PSCENC =       108.00279085
  Ewald energy   TEWEN  =    172109.51150612
  -Hartree energ DENC   =   -193596.24919031
  -exchange      EXHF   =         0.00000000
  -V(xc)+E(xc)   XCENC  =      2124.91323352
  PAW double counting   =     48825.09829345   -49057.35134091
  entropy T*S    EENTRO =        -0.00000000
  eigenvalues    EBANDS =     -6580.17521786
  atomic energy  EATOM  =     24021.61036476
  Solvation  Ediel_sol  =      1162.43439712
  ---------------------------------------------------
  free energy    TOTEN  =      -882.20516325 eV

  energy without entropy =     -882.20516325  energy(sigma->0) =     -882.20516325


--------------------------------------------------------------------------------------------------------




--------------------------------------- Iteration      1(   2)  ---------------------------------------


    POTLOK:  cpu time   20.4808: real time   20.7091
    SETDIJ:  cpu time    0.8039: real time    0.6337
    EDDIAG:  cpu time   44.6095: real time   23.0995
  RMM-DIIS:  cpu time  239.8202: real time  120.9505
    ORTHCH:  cpu time    1.2916: real time    0.7566
       DOS:  cpu time    0.1198: real time    0.1168
    CHARGE:  cpu time   16.7220: real time   16.2248
    MIXING:  cpu time    0.0986: real time    0.2683
    --------------------------------------------
      LOOP:  cpu time  323.9464: real time  182.7592

 eigenvalue-minimisations  :  6400
 total energy-change (2. order) : 0.1043348E-03  (-0.4488740E-04)
 number of electron     437.9999974 magnetization       0.0000000
 augmentation part       29.2607517 magnetization      -0.0000003

 Broyden mixing:
  rms(total) = 0.27410E-02    rms(broyden)= 0.27390E-02
  rms(prec ) = 0.27591E-02
  weight for this iteration     100.00

 eigenvalues of (default mixing * dielectric matrix)
  average eigenvalue GAMMA=   1.3652
  1.3652

 Free energy of the ion-electron system (eV)
  ---------------------------------------------------
  alpha Z        PSCENC =       108.00279085
  Ewald energy   TEWEN  =    172109.51150612
  -Hartree energ DENC   =   -193596.61517342
  -exchange      EXHF   =         0.00000000
  -V(xc)+E(xc)   XCENC  =      2124.95564320
  PAW double counting   =     48823.09859687   -49055.35840434
  entropy T*S    EENTRO =        -0.00000000
  eigenvalues    EBANDS =     -6579.79433878
  atomic energy  EATOM  =     24021.61036476
  Solvation  Ediel_sol  =      1162.38395583
  ---------------------------------------------------
  free energy    TOTEN  =      -882.20505891 eV

  energy without entropy =     -882.20505891  energy(sigma->0) =     -882.20505891


--------------------------------------------------------------------------------------------------------




--------------------------------------- Iteration      1(   3)  ---------------------------------------


    POTLOK:  cpu time   19.8861: real time   20.1730
    SETDIJ:  cpu time    0.8401: real time    0.7508
    EDDIAG:  cpu time   43.6589: real time   22.4823
  RMM-DIIS:  cpu time  234.9650: real time  118.8198
    ORTHCH:  cpu time    1.2243: real time    0.9555
       DOS:  cpu time    0.2284: real time    0.2249
    CHARGE:  cpu time   16.6227: real time   16.0996
    MIXING:  cpu time    0.1093: real time    0.1105
    --------------------------------------------
      LOOP:  cpu time  317.5349: real time  179.6208

 eigenvalue-minimisations  :  6190
 total energy-change (2. order) :-0.5965339E-04  (-0.1163673E-04)
 number of electron     437.9999974 magnetization       0.0000000
 augmentation part       29.2604145 magnetization       0.0000001

 Broyden mixing:
  rms(total) = 0.11341E-02    rms(broyden)= 0.11330E-02
  rms(prec ) = 0.11389E-02
  weight for this iteration     100.00

 eigenvalues of (default mixing * dielectric matrix)
  average eigenvalue GAMMA=   1.8511
  1.6476  2.0547

 Free energy of the ion-electron system (eV)
  ---------------------------------------------------
  alpha Z        PSCENC =       108.00279085
  Ewald energy   TEWEN  =    172109.51150612
  -Hartree energ DENC   =   -193596.71373477
  -exchange      EXHF   =         0.00000000
  -V(xc)+E(xc)   XCENC  =      2124.94824642
  PAW double counting   =     48821.31496436   -49053.58536425
  entropy T*S    EENTRO =        -0.00000000
  eigenvalues    EBANDS =     -6579.68095758
  atomic energy  EATOM  =     24021.61036476
  Solvation  Ediel_sol  =      1162.38706553
  ---------------------------------------------------
  free energy    TOTEN  =      -882.20511857 eV

  energy without entropy =     -882.20511857  energy(sigma->0) =     -882.20511857


--------------------------------------------------------------------------------------------------------




--------------------------------------- Iteration      1(   4)  ---------------------------------------


    POTLOK:  cpu time   20.3467: real time   20.6697
    SETDIJ:  cpu time    0.8187: real time    0.6363
    EDDIAG:  cpu time   43.6872: real time   22.4217
  RMM-DIIS:  cpu time  195.1062: real time   98.3213
    ORTHCH:  cpu time    1.2208: real time    0.9427
       DOS:  cpu time    0.1357: real time    0.1328
    --------------------------------------------
      LOOP:  cpu time  261.3393: real time  143.1389

 eigenvalue-minimisations  :  4663
 total energy-change (2. order) : 0.3152476E-05  (-0.2170268E-05)
 number of electron     437.9999974 magnetization       0.0000000
 augmentation part       29.2604145 magnetization       0.0000001

 Free energy of the ion-electron system (eV)
  ---------------------------------------------------
  alpha Z        PSCENC =       108.00279085
  Ewald energy   TEWEN  =    172109.51150612
  -Hartree energ DENC   =   -193596.62199227
  -exchange      EXHF   =         0.00000000
  -V(xc)+E(xc)   XCENC  =      2124.93938186
  PAW double counting   =     48820.43964956   -49052.72257190
  entropy T*S    EENTRO =        -0.00000000
  eigenvalues    EBANDS =     -6579.79700121
  atomic energy  EATOM  =     24021.61036476
  Solvation  Ediel_sol  =      1162.43275682
  ---------------------------------------------------
  free energy    TOTEN  =      -882.20511541 eV

  energy without entropy =     -882.20511541  energy(sigma->0) =     -882.20511541


--------------------------------------------------------------------------------------------------------




 average (electrostatic) potential at core
  the test charge radii are     0.7672  0.7089  0.6991  0.7167  0.7215
  (the norm of the test charge is              1.0000)
       1 -38.5053       2 -38.5065       3 -38.5063       4 -38.5059       5 -38.5046
       6 -38.5047       7 -38.5052       8 -38.5022       9 -38.5013      10 -38.5036
      11 -38.5059      12 -38.5066      13 -38.5046      14 -38.4976      15 -38.4859
      16 -38.4913      17 -38.5008      18 -38.5052      19 -38.5052      20 -38.4996
      21 -38.4803      22 -38.4700      23 -38.4875      24 -38.5018      25 -38.5049
      26 -38.5046      27 -38.4949      28 -38.4797      29 -38.4819      30 -38.4968
      31 -38.5048      32 -38.5066      33 -38.5048      34 -38.4993      35 -38.4968
      36 -38.5001      37 -76.0794      38 -76.0800      39 -76.0797      40 -76.0776
      41 -76.0764      42 -76.0775      43 -76.0782      44 -76.0765      45 -76.0772
      46 -76.0790      47 -76.0799      48 -76.0799      49 -76.0770      50 -76.0701
      51 -76.0683      52 -76.0727      53 -76.0779      54 -76.0793      55 -76.0772
      56 -76.0671      57 -76.0377      58 -76.0528      59 -76.0706      60 -76.0777
      61 -76.0787      62 -76.0737      63 -76.0543      64 -76.0357      65 -76.0596
      66 -76.0751      67 -76.0793      68 -76.0793      69 -76.0739      70 -76.0666
      71 -76.0671      72 -76.0747      73 -66.7690      74 -66.7067      75 -66.7434
      76 -66.5502      77 -66.1805      78 -65.2518      79 -67.8945      80 -63.3293
      81 -92.2327      82 -92.2302      83 -92.1830      84 -92.1750      85 -92.0628
      86 -92.0545      87 -91.8214      88 -91.7967      89 -92.2142      90 -92.1800
      91 -91.1805      92 -91.1789      93 -92.2570      94 -92.2299      95 -92.2167
      96 -83.2759      97 -83.3110
 
 
 
 E-fermi :  -5.8194     XC(G=0):  -1.2780     alpha+bet : -1.0219


 spin component 1

 k-point     1 :       0.0000    0.0000    0.0000
  band No.  band energies     occupation 
      1     -36.0855      1.00000
      2     -35.5134      1.00000
      3     -35.1119      1.00000
      4     -34.8788      1.00000
      5     -34.8130      1.00000
      6     -34.5531      1.00000
      7     -33.8539      1.00000
      8     -33.8186      1.00000
      9     -33.6573      1.00000
     10     -33.6336      1.00000
     11     -33.4775      1.00000
     12     -33.3775      1.00000
     13     -33.3112      1.00000
     14     -33.0487      1.00000
     15     -32.3340      1.00000
     16     -27.7362      1.00000
     17     -25.5655      1.00000
     18     -24.7346      1.00000
     19     -24.1956      1.00000
     20     -24.1935      1.00000
     21     -24.1929      1.00000
     22     -24.1875      1.00000
     23     -24.1863      1.00000
     24     -24.1784      1.00000
     25     -23.1768      1.00000
     26     -23.1764      1.00000
     27     -23.1761      1.00000
     28     -23.1748      1.00000
     29     -23.1743      1.00000
     30     -23.1729      1.00000
     31     -22.7366      1.00000
     32     -22.7361      1.00000
     33     -22.7359      1.00000
     34     -22.7349      1.00000
     35     -22.7340      1.00000
     36     -22.7336      1.00000
     37     -22.4823      1.00000
     38     -21.8973      1.00000
     39     -21.6816      1.00000
     40     -21.6815      1.00000
     41     -21.6797      1.00000
     42     -21.6795      1.00000
     43     -21.6792      1.00000
     44     -21.6788      1.00000
     45     -21.6742      1.00000
     46     -21.6740      1.00000
     47     -21.6727      1.00000
     48     -21.6725      1.00000
     49     -21.6676      1.00000
     50     -21.6666      1.00000
     51     -21.5878      1.00000
     52     -21.5874      1.00000
     53     -21.5869      1.00000
     54     -21.0908      1.00000
     55     -21.0097      1.00000
     56     -21.0095      1.00000
     57     -20.0386      1.00000
     58     -18.8239      1.00000
     59     -17.9385      1.00000
     60     -17.5085      1.00000
     61     -16.8791      1.00000
     62     -16.7627      1.00000
     63     -16.5281      1.00000
     64     -16.3254      1.00000
     65     -16.2127      1.00000
     66     -16.1994      1.00000
     67     -15.8431      1.00000
     68     -15.7431      1.00000
     69     -15.6293      1.00000
     70     -15.4295      1.00000
     71     -15.2899      1.00000
     72     -15.2895      1.00000
     73     -15.2894      1.00000
     74     -15.1386      1.00000
     75     -15.0833      1.00000
     76     -14.9648      1.00000
     77     -14.7803      1.00000
     78     -14.4394      1.00000
     79     -14.4391      1.00000
     80     -14.4390      1.00000
     81     -14.4389      1.00000
     82     -14.4361      1.00000
     83     -14.4360      1.00000
     84     -14.4353      1.00000
     85     -14.4346      1.00000
     86     -14.4313      1.00000
     87     -14.4302      1.00000
     88     -14.4294      1.00000
     89     -14.4281      1.00000
     90     -14.3330      1.00000
     91     -14.1739      1.00000
     92     -14.1737      1.00000
     93     -13.5659      1.00000
     94     -13.5657      1.00000
     95     -13.2269      1.00000
     96     -13.2265      1.00000
     97     -13.2265      1.00000
     98     -13.2260      1.00000
     99     -13.2257      1.00000
    100     -13.2253      1.00000
    101     -13.0963      1.00000
    102     -13.0219      1.00000
    103     -12.8644      1.00000
    104     -12.7723      1.00000
    105     -12.6286      1.00000
    106     -12.5834      1.00000
    107     -12.4987      1.00000
    108     -12.3193      1.00000
    109     -12.2368      1.00000
    110     -12.1883      1.00000
    111     -12.1235      1.00000
    112     -12.0053      1.00000
    113     -11.8707      1.00000
    114     -11.8593      1.00000
    115     -11.8198      1.00000
    116     -11.8198      1.00000
    117     -11.8197      1.00000
    118     -11.8196      1.00000
    119     -11.8194      1.00000
    120     -11.8193      1.00000
    121     -11.6725      1.00000
    122     -11.6459      1.00000
    123     -11.5671      1.00000
    124     -11.5668      1.00000
    125     -11.5664      1.00000
    126     -11.5661      1.00000
    127     -11.5642      1.00000
    128     -11.5639      1.00000
    129     -11.5618      1.00000
    130     -11.5610      1.00000
    131     -11.5581      1.00000
    132     -11.5571      1.00000
    133     -11.5566      1.00000
    134     -11.5561      1.00000
    135     -11.4312      1.00000
    136     -11.4047      1.00000
    137     -11.3783      1.00000
    138     -11.3431      1.00000
    139     -11.2665      1.00000
    140     -11.2096      1.00000
    141     -11.1572      1.00000
    142     -11.0665      1.00000
    143     -11.0445      1.00000
    144     -10.9960      1.00000
    145     -10.9314      1.00000
    146     -10.7482      1.00000
    147     -10.7031      1.00000
    148     -10.7011      1.00000
    149     -10.7005      1.00000
    150     -10.6955      1.00000
    151     -10.6925      1.00000
    152     -10.6864      1.00000
    153     -10.5678      1.00000
    154     -10.4348      1.00000
    155     -10.3312      1.00000
    156     -10.3311      1.00000
    157     -10.3307      1.00000
    158     -10.3118      1.00000
    159     -10.1813      1.00000
    160     -10.1085      1.00000
    161     -10.1084      1.00000
    162     -10.1082      1.00000
    163     -10.1080      1.00000
    164     -10.1079      1.00000
    165     -10.1078      1.00000
    166      -9.7579      1.00000
    167      -9.7576      1.00000
    168      -9.7570      1.00000
    169      -9.7569      1.00000
    170      -9.7562      1.00000
    171      -9.7561      1.00000
    172      -9.5738      1.00000
    173      -9.5108      1.00000
    174      -9.5089      1.00000
    175      -9.5086      1.00000
    176      -9.5055      1.00000
    177      -9.5046      1.00000
    178      -9.5043      1.00000
    179      -9.3115      1.00000
    180      -9.3109      1.00000
    181      -9.3105      1.00000
    182      -9.3081      1.00000
    183      -9.3066      1.00000
    184      -9.3027      1.00000
    185      -8.7907      1.00000
    186      -8.6925      1.00000
    187      -8.6917      1.00000
    188      -8.6913      1.00000
    189      -8.6894      1.00000
    190      -8.6879      1.00000
    191      -8.6858      1.00000
    192      -8.3560      1.00000
    193      -8.3543      1.00000
    194      -8.3541      1.00000
    195      -8.3497      1.00000
    196      -8.3495      1.00000
    197      -8.3494      1.00000
    198      -7.4352      1.00000
    199      -7.4349      1.00000
    200      -7.1456      1.00000
    201      -7.1454      1.00000
    202      -7.1445      1.00000
    203      -7.1439      1.00000
    204      -7.1428      1.00000
    205      -7.1422      1.00000
    206      -7.1395      1.00000
    207      -7.1385      1.00000
    208      -7.1369      1.00000
    209      -7.1335      1.00000
    210      -7.1316      1.00000
    211      -7.1271      1.00000
    212      -6.9815      1.00000
    213      -6.9799      1.00000
    214      -6.9788      1.00000
    215      -6.7883      1.00000
    216      -6.3186      1.00000
    217      -6.2263      1.00000
    218      -6.0697      1.00000
    219      -6.0690      1.00000
    220      -1.5717      0.00000
    221      -1.2640      0.00000
    222      -0.9569      0.00000
    223      -0.7809      0.00000
    224      -0.7804      0.00000
    225      -0.7475      0.00000
    226      -0.7162      0.00000
    227      -0.7152      0.00000
    228      -0.7057      0.00000
    229      -0.2988      0.00000
    230      -0.1859      0.00000
    231      -0.1483      0.00000
    232      -0.0908      0.00000
    233      -0.0674      0.00000
    234      -0.0651      0.00000
    235      -0.0571      0.00000
    236      -0.0535      0.00000
    237      -0.0200      0.00000
    238      -0.0051      0.00000
    239      -0.0048      0.00000
    240      -0.0043      0.00000
    241      -0.0035      0.00000
    242      -0.0022      0.00000
    243      -0.0016      0.00000
    244       0.0023      0.00000
    245       0.0036      0.00000
    246       0.0053      0.00000
    247       0.0072      0.00000
    248       0.0115      0.00000
    249       0.0158      0.00000
    250       0.0361      0.00000
    251       0.0443      0.00000
    252       0.1252      0.00000
    253       0.3190      0.00000
    254       0.3877      0.00000
    255       0.5203      0.00000
    256       0.5756      0.00000
    257       0.5914      0.00000
    258       0.6004      0.00000
    259       0.6277      0.00000
    260       0.6726      0.00000
    261       0.6892      0.00000
    262       0.7102      0.00000
    263       0.7168      0.00000
    264       0.7199      0.00000
    265       0.7319      0.00000
    266       0.7345      0.00000
    267       0.8061      0.00000
    268       0.8197      0.00000
    269       0.8351      0.00000
    270       0.8391      0.00000
    271       0.8419      0.00000
    272       0.8610      0.00000
    273       0.8681      0.00000
    274       0.8848      0.00000
    275       0.9076      0.00000
    276       0.9133      0.00000
    277       0.9175      0.00000
    278       0.9348      0.00000
    279       0.9587      0.00000
    280       0.9760      0.00000
    281       1.1048      0.00000
    282       1.1885      0.00000
    283       1.1922      0.00000
    284       1.2023      0.00000
    285       1.2154      0.00000
    286       1.2216      0.00000
    287       1.2439      0.00000
    288       1.2781      0.00000
    289       1.2912      0.00000
    290       1.2991      0.00000
    291       1.3150      0.00000
    292       1.3256      0.00000
    293       1.3436      0.00000
    294       1.4045      0.00000
    295       1.5279      0.00000
    296       1.5909      0.00000
    297       1.5942      0.00000
    298       1.5961      0.00000
    299       1.5970      0.00000
    300       1.6031      0.00000
    301       1.6055      0.00000
    302       1.6475      0.00000
    303       1.6530      0.00000
    304       1.6593      0.00000
    305       1.6720      0.00000
    306       1.6857      0.00000
    307       1.6998      0.00000
    308       1.7074      0.00000
    309       1.7180      0.00000
    310       1.7258      0.00000
    311       1.7409      0.00000
    312       1.7465      0.00000
    313       1.7579      0.00000
    314       1.7831      0.00000
    315       1.8201      0.00000
    316       1.8468      0.00000
    317       1.8614      0.00000
    318       1.8651      0.00000
    319       1.8848      0.00000
    320       1.8990      0.00000

 k-point     2 :       0.3333   -0.0000    0.0000
  band No.  band energies     occupation 
      1     -36.0855      1.00000
      2     -35.5134      1.00000
      3     -35.1119      1.00000
      4     -34.8788      1.00000
      5     -34.8130      1.00000
      6     -34.5531      1.00000
      7     -33.8539      1.00000
      8     -33.8186      1.00000
      9     -33.6573      1.00000
     10     -33.6336      1.00000
     11     -33.4775      1.00000
     12     -33.3775      1.00000
     13     -33.3112      1.00000
     14     -33.0487      1.00000
     15     -32.3340      1.00000
     16     -27.7362      1.00000
     17     -25.5656      1.00000
     18     -24.6730      1.00000
     19     -24.4894      1.00000
     20     -24.3091      1.00000
     21     -24.3072      1.00000
     22     -23.9550      1.00000
     23     -23.9534      1.00000
     24     -23.7818      1.00000
     25     -23.6123      1.00000
     26     -23.6106      1.00000
     27     -23.2863      1.00000
     28     -23.1248      1.00000
     29     -23.1245      1.00000
     30     -22.9752      1.00000
     31     -22.9749      1.00000
     32     -22.6719      1.00000
     33     -22.6703      1.00000
     34     -22.4823      1.00000
     35     -22.4200      1.00000
     36     -22.4197      1.00000
     37     -22.1899      1.00000
     38     -22.1455      1.00000
     39     -22.1440      1.00000
     40     -22.0542      1.00000
     41     -22.0539      1.00000
     42     -21.8973      1.00000
     43     -21.7586      1.00000
     44     -21.7004      1.00000
     45     -21.7003      1.00000
     46     -21.6372      1.00000
     47     -21.6371      1.00000
     48     -21.6016      1.00000
     49     -21.6014      1.00000
     50     -21.3853      1.00000
     51     -21.3838      1.00000
     52     -21.3359      1.00000
     53     -21.3356      1.00000
     54     -21.0966      1.00000
     55     -21.0964      1.00000
     56     -21.0908      1.00000
     57     -20.0386      1.00000
     58     -18.8239      1.00000
     59     -17.9386      1.00000
     60     -17.5085      1.00000
     61     -16.8791      1.00000
     62     -16.7627      1.00000
     63     -16.5281      1.00000
     64     -16.3254      1.00000
     65     -16.2127      1.00000
     66     -16.1994      1.00000
     67     -15.8431      1.00000
     68     -15.7431      1.00000
     69     -15.6293      1.00000
     70     -15.4295      1.00000
     71     -15.1815      1.00000
     72     -15.1812      1.00000
     73     -15.1386      1.00000
     74     -15.0833      1.00000
     75     -15.0139      1.00000
     76     -14.9648      1.00000
     77     -14.8856      1.00000
     78     -14.8840      1.00000
     79     -14.8753      1.00000
     80     -14.8750      1.00000
     81     -14.7803      1.00000
     82     -14.5029      1.00000
     83     -14.5027      1.00000
     84     -14.3660      1.00000
     85     -14.3658      1.00000
     86     -14.3330      1.00000
     87     -14.2720      1.00000
     88     -14.1756      1.00000
     89     -14.1754      1.00000
     90     -14.0277      1.00000
     91     -14.0275      1.00000
     92     -13.7591      1.00000
     93     -13.7589      1.00000
     94     -13.6694      1.00000
     95     -13.6683      1.00000
     96     -13.1576      1.00000
     97     -13.1574      1.00000
     98     -13.0963      1.00000
     99     -13.0219      1.00000
    100     -12.8644      1.00000
    101     -12.7723      1.00000
    102     -12.7522      1.00000
    103     -12.7515      1.00000
    104     -12.6327      1.00000
    105     -12.6325      1.00000
    106     -12.6286      1.00000
    107     -12.5834      1.00000
    108     -12.4987      1.00000
    109     -12.4071      1.00000
    110     -12.4068      1.00000
    111     -12.3193      1.00000
    112     -12.2368      1.00000
    113     -12.1884      1.00000
    114     -12.1235      1.00000
    115     -12.0825      1.00000
    116     -12.0823      1.00000
    117     -12.0689      1.00000
    118     -12.0687      1.00000
    119     -12.0123      1.00000
    120     -12.0052      1.00000
    121     -11.8707      1.00000
    122     -11.8593      1.00000
    123     -11.7234      1.00000
    124     -11.7221      1.00000
    125     -11.6725      1.00000
    126     -11.6459      1.00000
    127     -11.4048      1.00000
    128     -11.3783      1.00000
    129     -11.3493      1.00000
    130     -11.3424      1.00000
    131     -11.2665      1.00000
    132     -11.2391      1.00000
    133     -11.2381      1.00000
    134     -11.2096      1.00000
    135     -11.1575      1.00000
    136     -11.1024      1.00000
    137     -11.0659      1.00000
    138     -11.0439      1.00000
    139     -10.9958      1.00000
    140     -10.9603      1.00000
    141     -10.9600      1.00000
    142     -10.9525      1.00000
    143     -10.9521      1.00000
    144     -10.9314      1.00000
    145     -10.8599      1.00000
    146     -10.8560      1.00000
    147     -10.7518      1.00000
    148     -10.7516      1.00000
    149     -10.7500      1.00000
    150     -10.7489      1.00000
    151     -10.7430      1.00000
    152     -10.7370      1.00000
    153     -10.5729      1.00000
    154     -10.5022      1.00000
    155     -10.5018      1.00000
    156     -10.4366      1.00000
    157     -10.3806      1.00000
    158     -10.3762      1.00000
[...]
   -.475E+03 -.804E+02 -.173E+03   0.522E+03 0.103E+03 0.164E+03   -.440E+02 -.226E+02 0.816E+01   -.478E-02 -.757E-03 -.280E-03
   0.468E+02 0.449E+03 -.137E+03   -.648E+02 -.495E+03 0.119E+03   0.186E+02 0.438E+02 0.174E+02   0.420E-03 0.246E-02 -.950E-03
 -----------------------------------------------------------------------------------------------
   0.162E+01 0.230E+01 0.547E+01   -.227E-12 0.455E-12 0.566E-11   -.127E+01 -.209E+01 -.549E+01   -.477E-01 -.343E-01 0.216E-01
 
 
 POSITION                                       TOTAL-FORCE (eV/Angst)
 -----------------------------------------------------------------------------------
      1.22180     -0.74488     17.06953        -0.001909     -0.002537      0.003139
      2.47803      1.43065     17.07281        -0.003325     -0.001107     -0.000371
      3.73414      3.60627     17.07240        -0.004886     -0.001584      0.001403
      4.99016      5.78196     17.07020        -0.003408     -0.003101      0.000040
      6.24612      7.95760     17.06897        -0.003303     -0.002276     -0.000664
      7.50221     10.13322     17.06792        -0.003344     -0.002774      0.000616
      2.47797     -2.92042     17.06971        -0.004180     -0.001813      0.001655
      3.73429     -0.74499     17.07141        -0.002093     -0.000899      0.001355
      4.99045      1.43048     17.07319        -0.002893     -0.001252      0.002342
      6.24639      3.60609     17.07235        -0.003476     -0.001213      0.001953
      7.50234      5.78184     17.07113        -0.004358     -0.000806      0.002258
      8.75830      7.95758     17.07015        -0.002928     -0.000261      0.001766
      3.73394     -5.09601     17.07131        -0.001588     -0.000513      0.000077
      4.99036     -2.92045     17.06961        -0.005431     -0.000595      0.000044
      6.24701     -0.74538     17.06785        -0.003086     -0.000326     -0.001063
      7.50282      1.43017     17.07057        -0.004275     -0.002495      0.002850
      8.75848      3.60604     17.07147        -0.004076     -0.001526      0.004421
     10.01443      5.78195     17.07238        -0.005249     -0.003274      0.000248
      4.98995     -7.27163     17.07078        -0.001376     -0.001486      0.001475
      6.24624     -5.09572     17.06894        -0.004118     -0.002915     -0.000196
      7.50262     -2.91970     17.06561        -0.002346     -0.001713     -0.001201
      8.75863     -0.74563     17.06662        -0.007085     -0.001344     -0.004028
     10.01433      1.43003     17.06961        -0.004620     -0.000992      0.000980
     11.27042      3.60613     17.07099        -0.003789     -0.000591     -0.001356
      6.24610     -9.44739     17.06901        -0.005297      0.000471      0.004247
      7.50218     -7.27150     17.06820        -0.003194     -0.000848      0.000171
      8.75830     -5.09550     17.06624        -0.002510     -0.002589     -0.003634
     10.01407     -2.91988     17.06459        -0.001047      0.000073     -0.002971
     11.26980     -0.74514     17.06589        -0.003583     -0.002841     -0.000802
     12.52626      1.43046     17.06842        -0.002102     -0.001052     -0.000113
      7.50216    -11.62301     17.06961        -0.001949     -0.001539     -0.001122
      8.75834     -9.44731     17.07019        -0.000368      0.000657      0.000990
     10.01448     -7.27158     17.06810        -0.004870     -0.001935      0.000498
     11.27044     -5.09588     17.06765        -0.004565     -0.001978      0.001268
     12.52641     -2.92044     17.06794        -0.003881     -0.001913     -0.000240
     13.78244     -0.74499     17.06820        -0.001554     -0.000708     -0.000956
      1.22167      0.70543     17.07082         0.003861      0.003631      0.001821
      2.47777      2.88102     17.07290         0.003629      0.003525     -0.000088
      3.73386      5.05658     17.06982         0.005055      0.004672      0.003293
      4.98988      7.23220     17.06888         0.007458      0.004318      0.000311
      6.24603      9.40782     17.06773         0.005034      0.004008      0.001365
      7.50212     11.58350     17.06758         0.004174      0.003234      0.002593
      2.47778     -1.47011     17.07029         0.002586      0.000991      0.000499
      3.73391      0.70543     17.07322         0.004607      0.000652      0.002566
      4.98994      2.88098     17.07360         0.008308      0.001378      0.002338
      6.24608      5.05655     17.07142         0.003549      0.003273      0.001968
      7.50205      7.23221     17.06975         0.006348      0.003241      0.002339
      8.75818      9.40790     17.06846         0.004587      0.002748      0.002310
      3.73371     -3.64572     17.07026         0.008365     -0.000316      0.002104
      4.98997     -1.47025     17.06944         0.003950      0.003255      0.003268
      6.24613      0.70529     17.07091         0.004207      0.003420      0.005197
      7.50217      2.88088     17.07126         0.006093      0.003525      0.005125
      8.75815      5.05658     17.07197         0.008549      0.003590      0.001880
     10.01419      7.23231     17.07218         0.005448      0.001346     -0.000165
      4.98981     -5.82132     17.07069         0.004795      0.002809      0.001593
      6.24602     -3.64567     17.06795         0.006796      0.002093      0.002205
      7.50199     -1.47012     17.06051         0.007796      0.001510     -0.010631
      8.75823      0.70513     17.06755         0.005599      0.004567      0.003485
     10.01428      2.88087     17.07061         0.006107      0.001918      0.004917
     11.27028      5.05667     17.07201         0.005247      0.002066      0.001609
      6.24589     -7.99698     17.06926         0.006298      0.001948     -0.000367
      7.50201     -5.82135     17.06707         0.004992      0.003927      0.001677
      8.75818     -3.64579     17.06382         0.002304      0.002663     -0.006288
     10.01444     -1.47036     17.05911         0.007147      0.001815     -0.006430
     11.27046      0.70530     17.06694         0.004645      0.004772     -0.003978
     12.52645      2.88104     17.06898         0.005572      0.001761      0.002635
      7.50215    -10.17259     17.06923         0.002166      0.000188      0.001306
      8.75811     -7.99696     17.06810         0.007392      0.000080      0.001483
     10.01423     -5.82148     17.06616         0.006193      0.006729      0.002234
     11.27033     -3.64586     17.06729         0.005229      0.004385     -0.004011
     12.52646     -1.47027     17.06769         0.003603      0.003902     -0.002529
     13.78259      0.70542     17.06797         0.003890      0.002079      0.002235
      6.86324      0.49672     27.34492        -0.002653     -0.009029     -0.009703
      7.86547      0.65810     26.16902         0.001622     -0.008267      0.003191
      7.32650      1.19321     28.65356         0.003100     -0.007621      0.000021
      7.24495      0.34386     24.77599        -0.004869     -0.008585     -0.000188
      8.29770      0.02294     23.68301         0.001361     -0.007610     -0.007691
      7.78732      0.08059     22.22596        -0.017313      0.007554      0.004780
      6.61545      0.67482     29.92885        -0.010572      0.001467      0.008483
      8.71879     -0.71134     21.24992        -0.009004      0.000589     -0.000572
      5.67054      1.02382     26.98156         0.005266     -0.002645      0.001354
      6.69681     -0.82297     27.59602        -0.005613      0.001085     -0.001247
      8.32009      1.93348     26.16768        -0.003185     -0.004324     -0.002664
      8.90842     -0.17672     26.38645        -0.006616      0.001103     -0.004129
      6.41385     -0.71829     24.91305        -0.005396     -0.001561      0.000710
      6.51700      1.41749     24.38633         0.002094     -0.003399     -0.007359
      9.32982      0.89300     23.83513        -0.005431     -0.008478      0.006310
      8.76219     -1.23534     23.91752         0.001340      0.000676     -0.013012
      8.65682      1.00316     28.81788        -0.009721      0.002182      0.000630
      7.08295      2.51736     28.55385        -0.001732      0.003605     -0.008574
      6.50498     -0.40512     22.22592         0.005767      0.002583      0.002536
      7.70049      1.39881     21.86157        -0.001656     -0.005578     -0.004327
      5.28882      0.64380     29.73885         0.000157     -0.002517      0.000352
      7.04022     -0.55158     30.24903        -0.001994      0.006506      0.002228
      6.88857      1.50069     30.94606        -0.002448     -0.004060     -0.016607
      9.81334     -0.14705     21.05680         0.002065      0.004416      0.002523
      8.26201     -1.78724     20.83017        -0.004083     -0.006199     -0.001995
 -----------------------------------------------------------------------------------
    total drift:                                0.305056      0.174082     -0.002912


--------------------------------------------------------------------------------------------------------



  FREE ENERGIE OF THE ION-ELECTRON SYSTEM (eV)
  ---------------------------------------------------
  free  energy   TOTEN  =      -882.20523266 eV

  energy  without entropy=     -882.20523266  energy(sigma->0) =     -882.20523266
 
 d Force = 0.2953643E-04[ 0.373E-06, 0.587E-04]  d Energy = 0.2054137E-04 0.900E-05
 d Force =-0.9993467E+00[-0.999E+00,-0.999E+00]  d Ewald  =-0.9993466E+00-0.391E-07


--------------------------------------------------------------------------------------------------------


    POTLOK:  cpu time   20.9124: real time   21.1807


--------------------------------------------------------------------------------------------------------




--------------------------------------------------------------------------------------------------------


  
 reached required accuracy - stopping structural energy minimisation
 writing wavefunctions
     LOOP+:  cpu time 1345.8293: real time  942.9862
    4ORBIT:  cpu time    0.0000: real time    0.0000
 


 total charge     
 
# of ion       s       p       d       tot
------------------------------------------
    1        0.744   1.394   0.000   2.137
    2        0.744   1.394   0.000   2.137
    3        0.744   1.394   0.000   2.137
    4        0.744   1.394   0.000   2.137
    5        0.744   1.394   0.000   2.137
    6        0.744   1.394   0.000   2.137
    7        0.744   1.394   0.000   2.137
    8        0.744   1.394   0.000   2.137
    9        0.744   1.394   0.000   2.137
   10        0.744   1.394   0.000   2.137
   11        0.744   1.394   0.000   2.137
   12        0.744   1.394   0.000   2.137
   13        0.744   1.394   0.000   2.137
   14        0.744   1.394   0.000   2.137
   15        0.744   1.394   0.000   2.138
   16        0.744   1.394   0.000   2.137
   17        0.744   1.394   0.000   2.137
   18        0.744   1.394   0.000   2.137
   19        0.744   1.394   0.000   2.137
   20        0.744   1.393   0.000   2.137
   21        0.744   1.393   0.000   2.137
   22        0.744   1.392   0.000   2.136
   23        0.744   1.393   0.000   2.137
   24        0.744   1.393   0.000   2.137
   25        0.744   1.393   0.000   2.137
   26        0.744   1.394   0.000   2.137
   27        0.744   1.394   0.000   2.137
   28        0.744   1.393   0.000   2.137
   29        0.744   1.393   0.000   2.137
   30        0.744   1.394   0.000   2.137
   31        0.744   1.393   0.000   2.137
   32        0.744   1.393   0.000   2.137
   33        0.744   1.394   0.000   2.137
   34        0.744   1.394   0.000   2.137
   35        0.744   1.394   0.000   2.137
   36        0.744   1.393   0.000   2.137
   37        1.238   2.821   0.000   4.059
   38        1.238   2.821   0.000   4.059
   39        1.238   2.821   0.000   4.059
   40        1.238   2.821   0.000   4.059
   41        1.238   2.821   0.000   4.059
   42        1.238   2.821   0.000   4.059
   43        1.238   2.821   0.000   4.059
   44        1.238   2.821   0.000   4.059
   45        1.238   2.821   0.000   4.059
   46        1.238   2.821   0.000   4.059
   47        1.238   2.821   0.000   4.059
   48        1.238   2.821   0.000   4.059
   49        1.238   2.821   0.000   4.059
   50        1.238   2.821   0.000   4.059
   51        1.238   2.821   0.000   4.059
   52        1.238   2.821   0.000   4.059
   53        1.238   2.821   0.000   4.059
   54        1.238   2.821   0.000   4.059
   55        1.238   2.821   0.000   4.059
   56        1.238   2.821   0.000   4.059
   57        1.238   2.822   0.000   4.061
   58        1.238   2.822   0.000   4.060
   59        1.238   2.821   0.000   4.059
   60        1.238   2.821   0.000   4.059
   61        1.238   2.821   0.000   4.059
   62        1.238   2.821   0.000   4.059
   63        1.238   2.822   0.000   4.060
   64        1.238   2.822   0.000   4.061
   65        1.238   2.822   0.000   4.060
   66        1.238   2.821   0.000   4.059
   67        1.238   2.821   0.000   4.059
   68        1.238   2.821   0.000   4.059
   69        1.238   2.821   0.000   4.059
   70        1.238   2.821   0.000   4.059
   71        1.238   2.821   0.000   4.059
   72        1.238   2.821   0.000   4.059
   73        0.832   1.599   0.000   2.431
   74        0.832   1.596   0.000   2.429
   75        0.833   1.605   0.000   2.437
   76        0.833   1.595   0.000   2.428
   77        0.835   1.593   0.000   2.428
   78        0.839   1.574   0.000   2.413
   79        0.815   1.565   0.000   2.381
   80        0.875   1.719   0.000   2.594
   81        1.758   4.402   0.000   6.160
   82        1.758   4.402   0.000   6.161
   83        1.758   4.402   0.000   6.160
   84        1.758   4.403   0.000   6.161
   85        1.758   4.403   0.000   6.161
   86        1.758   4.403   0.000   6.160
   87        1.757   4.403   0.000   6.160
   88        1.757   4.402   0.000   6.159
   89        1.758   4.402   0.000   6.160
   90        1.758   4.403   0.000   6.161
   91        1.755   4.404   0.000   6.160
   92        1.755   4.403   0.000   6.158
   93        1.759   4.412   0.000   6.170
   94        1.759   4.413   0.000   6.172
   95        1.758   4.412   0.000   6.170
   96        1.585   3.594   0.000   5.179
   97        1.586   3.594   0.000   5.180
--------------------------------------------------
tot        107.573 237.841   0.000 345.414
 


 magnetization (x)
 
# of ion       s       p       d       tot
------------------------------------------
    1       -0.000  -0.000   0.000  -0.000
    2       -0.000  -0.000   0.000  -0.000
    3        0.000  -0.000   0.000   0.000
    4        0.000   0.000   0.000   0.000
    5       -0.000  -0.000   0.000  -0.000
    6        0.000  -0.000   0.000  -0.000
    7        0.000   0.000   0.000   0.000
    8        0.000   0.000   0.000   0.000
    9        0.000  -0.000   0.000   0.000
   10        0.000  -0.000   0.000   0.000
   11        0.000   0.000   0.000   0.000
   12       -0.000  -0.000   0.000  -0.000
   13       -0.000  -0.000   0.000  -0.000
   14        0.000   0.000   0.000   0.000
   15        0.000  -0.000   0.000  -0.000
   16        0.000   0.000   0.000   0.000
   17       -0.000  -0.000   0.000  -0.000
   18       -0.000  -0.000   0.000  -0.000
   19       -0.000   0.000   0.000   0.000
   20        0.000   0.000   0.000   0.000
   21       -0.000  -0.000   0.000  -0.000
   22       -0.000   0.000   0.000   0.000
   23        0.000  -0.000   0.000  -0.000
   24       -0.000   0.000   0.000   0.000
   25        0.000   0.000   0.000   0.000
   26       -0.000   0.000   0.000   0.000
   27        0.000   0.000   0.000   0.000
   28        0.000  -0.000   0.000  -0.000
   29        0.000   0.000   0.000   0.000
   30        0.000  -0.000   0.000  -0.000
   31       -0.000  -0.000   0.000  -0.000
   32       -0.000  -0.000   0.000  -0.000
   33       -0.000  -0.000   0.000  -0.000
   34       -0.000  -0.000   0.000  -0.000
   35        0.000  -0.000   0.000  -0.000
   36       -0.000  -0.000   0.000  -0.000
   37       -0.000   0.000   0.000   0.000
   38       -0.000  -0.000   0.000  -0.000
   39       -0.000   0.000   0.000   0.000
   40       -0.000   0.000   0.000   0.000
   41        0.000   0.000   0.000   0.000
   42        0.000   0.000   0.000   0.000
   43       -0.000  -0.000   0.000  -0.000
   44       -0.000   0.000   0.000   0.000
   45       -0.000  -0.000   0.000  -0.000
   46       -0.000  -0.000   0.000  -0.000
   47        0.000   0.000   0.000   0.000
   48        0.000   0.000   0.000   0.000
   49       -0.000  -0.000   0.000  -0.000
   50       -0.000  -0.000   0.000  -0.000
   51       -0.000   0.000   0.000   0.000
   52        0.000   0.000   0.000   0.000
   53        0.000   0.000   0.000   0.000
   54        0.000   0.000   0.000   0.000
   55       -0.000  -0.000   0.000  -0.000
   56        0.000  -0.000   0.000  -0.000
   57       -0.000   0.000   0.000   0.000
   58        0.000  -0.000   0.000  -0.000
   59        0.000   0.000   0.000   0.000
   60        0.000  -0.000   0.000  -0.000
   61        0.000  -0.000   0.000  -0.000
   62        0.000  -0.000   0.000  -0.000
   63       -0.000  -0.000   0.000  -0.000
   64        0.000  -0.000   0.000  -0.000
   65       -0.000   0.000   0.000  -0.000
   66        0.000  -0.000   0.000  -0.000
   67        0.000  -0.000   0.000  -0.000
   68        0.000   0.000   0.000   0.000
   69        0.000   0.000   0.000   0.000
   70       -0.000   0.000   0.000   0.000
   71       -0.000   0.000   0.000   0.000
   72       -0.000   0.000   0.000   0.000
   73        0.000  -0.000   0.000  -0.000
   74        0.000  -0.000   0.000  -0.000
   75       -0.000  -0.000   0.000  -0.000
   76       -0.000  -0.000   0.000  -0.000
   77       -0.000  -0.000   0.000  -0.000
   78       -0.000   0.000   0.000   0.000
   79        0.000  -0.000   0.000  -0.000
   80       -0.000  -0.000   0.000  -0.000
   81       -0.000  -0.000   0.000  -0.000
   82       -0.000   0.000   0.000   0.000
   83       -0.000  -0.000   0.000  -0.000
   84        0.000   0.000   0.000   0.000
   85       -0.000   0.000   0.000   0.000
   86        0.000   0.000   0.000   0.000
   87        0.000   0.000   0.000   0.000
   88       -0.000   0.000   0.000   0.000
   89       -0.000   0.000   0.000  -0.000
   90       -0.000   0.000   0.000   0.000
   91       -0.000   0.000   0.000   0.000
   92       -0.000  -0.000   0.000  -0.000
   93       -0.000  -0.000   0.000  -0.000
   94       -0.000  -0.000   0.000  -0.000
   95        0.000  -0.000   0.000  -0.000
   96        0.000   0.000   0.000   0.000
   97        0.000   0.000   0.000   0.000
--------------------------------------------------
tot         -0.000  -0.000   0.000  -0.000
 

 total amount of memory used by VASP MPI-rank0   183933. kBytes
=======================================================================

   base      :      30000. kBytes
   nonlr-proj:      11884. kBytes
   fftplans  :      13978. kBytes
   grid      :      58575. kBytes
   one-center:         18. kBytes
   wavefun   :      69478. kBytes
 
  
  
 General timing and accounting informations for this job:
 ========================================================
  
                  Total CPU time used (sec):     5158.141
                            User time (sec):     4836.520
                          System time (sec):      321.621
                         Elapsed time (sec):     3415.941
  
                   Maximum memory used (kb):      710620.
                   Average memory used (kb):           0.
  
                          Minor page faults:       910365
                          Major page faults:          574
                 Voluntary context switches:        45044
