 vasp.5.4.4.18Apr17-6-g9f103f2a35 (build May 01 2020 14:57:12) complex          
  
 executed on             LinuxIFC date 2021.04.22  04:41:07
 running on  192 total cores
 distrk:  each k-point on  192 cores,    1 groups
 distr:  one band on NCORES_PER_BAND=  48 cores,    4 groups


--------------------------------------------------------------------------------------------------------


 INCAR:
 POTCAR:    PAW_PBE B 06Sep2000                   
 POTCAR:    PAW_PBE N 08Apr2002                   
 POTCAR:    PAW_PBE C 08Apr2002                   
 POTCAR:    PAW_PBE F 08Apr2002                   
 POTCAR:    PAW_PBE O 08Apr2002                   
 POTCAR:    PAW_PBE H 15Jun2001                   

 ----------------------------------------------------------------------------- 
|                                                                             |
|           W    W    AA    RRRRR   N    N  II  N    N   GGGG   !!!           |
|           W    W   A  A   R    R  NN   N  II  NN   N  G    G  !!!           |
|           W    W  A    A  R    R  N N  N  II  N N  N  G       !!!           |
|           W WW W  AAAAAA  RRRRR   N  N N  II  N  N N  G  GGG   !            |
|           WW  WW  A    A  R   R   N   NN  II  N   NN  G    G                |
|           W    W  A    A  R    R  N    N  II  N    N   GGGG   !!!           |
|                                                                             |
|      For optimal performance we recommend to set                            |
|        NCORE= 4 - approx SQRT( number of cores)                             |
|      NCORE specifies how many cores store one orbital (NPAR=cpu/NCORE).     |
|      This setting can  greatly improve the performance of VASP for DFT.     |
|      The default,   NCORE=1            might be grossly inefficient         |
|      on modern multi-core architectures or massively parallel machines.     |
|      Do your own testing !!!!                                               |
|      Unfortunately you need to use the default for GW and RPA calculations. |
|      (for HF NCORE is supported but not extensively tested yet)             |
|                                                                             |
 ----------------------------------------------------------------------------- 


 ----------------------------------------------------------------------------- 
|                                                                             |
|  ADVICE TO THIS USER RUNNING 'VASP/VAMP'   (HEAR YOUR MASTER'S VOICE ...):  |
|                                                                             |
|      You have switched on vdW-DFT.                                          |
|      This routine was written and supplied by Jiri Klimes.                  |
|      We recommed that you carefully read and cite the following             |
|      publication                                                            |
|      J. Klimes, D.R. Bowler, A. Michelides                                  |
|        J. Phys.: Cond Matt. 22 022201 (2010)                                |
|      J. Klimes, D.R. Bowler, A. Michelides                                  |
|        Phys. Rev. B. 83, 195131 (2011)                                      |
|      and references therein.                                                |
|                                                                             |
 ----------------------------------------------------------------------------- 

 POTCAR:    PAW_PBE B 06Sep2000                   
   VRHFIN =B: s2p1                                                              
   LEXCH  = PE                                                                  
   EATOM  =    71.1703 eV,    5.2309 Ry                                         
                                                                                
   TITEL  = PAW_PBE B 06Sep2000                                                 
   LULTRA =        F    use ultrasoft PP ?                                      
   IUNSCR =        1    unscreen: 0-lin 1-nonlin 2-no                           
   RPACOR =    1.200    partial core radius                                     
   POMASS =   10.811; ZVAL   =    3.000    mass and valenz                      
   RCORE  =    1.700    outmost cutoff radius                                   
   RWIGS  =    1.710; RWIGS  =    0.905    wigner-seitz radius (au A)           
   ENMAX  =  318.614; ENMIN  =  238.960 eV                                      
   ICORE  =        2    local potential                                         
   LCOR   =        T    correct aug charges                                     
   LPAW   =        T    paw PP                                                  
   EAUG   =  535.514                                                            
   DEXC   =    0.000                                                            
   RMAX   =    1.732    core radius for proj-oper                               
   RAUG   =    1.300    factor for augmentation sphere                          
   RDEP   =    1.757    radius for radial grids                                 
   RDEPT  =    1.436    core radius for aug-charge                              
                                                                                
   Atomic configuration                                                         
    4 entries                                                                   
     n  l   j            E        occ.                                          
     1  0  0.50      -180.5896   2.0000                                         
     2  0  0.50        -9.4431   2.0000                                         
     2  1  0.50        -3.6068   1.0000                                         
     3  2  1.50        -4.0817   0.0000                                         
   Description                                                                  
     l       E           TYP  RCUT    TYP  RCUT                                 
     0     -9.4430752     23  1.500                                             
     0      0.8675899     23  1.500                                             
     1     -3.6067955     23  1.700                                             
     1      6.1086146     23  1.700                                             
     2     -4.0817478      7  1.700                                             
  local pseudopotential read in
  partial core-charges read in
  partial kinetic energy density read in
  atomic valenz-charges read in
  non local Contribution for L=           0  read in
    real space projection operators read in
  non local Contribution for L=           0  read in
    real space projection operators read in
  non local Contribution for L=           1  read in
    real space projection operators read in
  non local Contribution for L=           1  read in
    real space projection operators read in
    PAW grid and wavefunctions read in
 
   number of l-projection  operators is LMAX  =           4
   number of lm-projection operators is LMMAX =           8
 
 POTCAR:    PAW_PBE N 08Apr2002                   
   VRHFIN =N: s2p3                                                              
   LEXCH  = PE                                                                  
   EATOM  =   264.5486 eV,   19.4438 Ry                                         
                                                                                
   TITEL  = PAW_PBE N 08Apr2002                                                 
   LULTRA =        F    use ultrasoft PP ?                                      
   IUNSCR =        1    unscreen: 0-lin 1-nonlin 2-no                           
   RPACOR =    1.200    partial core radius                                     
   POMASS =   14.001; ZVAL   =    5.000    mass and valenz                      
   RCORE  =    1.500    outmost cutoff radius                                   
   RWIGS  =    1.400; RWIGS  =    0.741    wigner-seitz radius (au A)           
   ENMAX  =  400.000; ENMIN  =  300.000 eV                                      
   ICORE  =        2    local potential                                         
   LCOR   =        T    correct aug charges                                     
   LPAW   =        T    paw PP                                                  
   EAUG   =  627.112                                                            
   DEXC   =    0.000                                                            
   RMAX   =    1.529    core radius for proj-oper                               
   RAUG   =    1.300    factor for augmentation sphere                          
   RDEP   =    1.514    radius for radial grids                                 
   RDEPT  =    1.338    core radius for aug-charge                              
                                                                                
   Atomic configuration                                                         
    4 entries                                                                   
     n  l   j            E        occ.                                          
     1  0  0.50      -384.7179   2.0000                                         
     2  0  0.50       -18.5828   2.0000                                         
     2  1  0.50        -7.0898   3.0000                                         
     3  2  1.50        -6.8029   0.0000                                         
   Description                                                                  
     l       E           TYP  RCUT    TYP  RCUT                                 
     0    -18.5828119     23  1.200                                             
     0    -13.5018863     23  1.200                                             
     1     -7.0897853     23  1.500                                             
     1      9.5240782     23  1.500                                             
     2     -6.8029130      7  1.500                                             
  local pseudopotential read in
  partial core-charges read in
  partial kinetic energy density read in
  atomic valenz-charges read in
  non local Contribution for L=           0  read in
    real space projection operators read in
  non local Contribution for L=           0  read in
    real space projection operators read in
  non local Contribution for L=           1  read in
    real space projection operators read in
  non local Contribution for L=           1  read in
    real space projection operators read in
    PAW grid and wavefunctions read in
 
   number of l-projection  operators is LMAX  =           4
   number of lm-projection operators is LMMAX =           8
 
 POTCAR:    PAW_PBE C 08Apr2002                   
   VRHFIN =C: s2p2                                                              
   LEXCH  = PE                                                                  
   EATOM  =   147.1560 eV,   10.8157 Ry                                         
                                                                                
   TITEL  = PAW_PBE C 08Apr2002                                                 
   LULTRA =        F    use ultrasoft PP ?                                      
   IUNSCR =        1    unscreen: 0-lin 1-nonlin 2-no                           
   RPACOR =    1.200    partial core radius                                     
   POMASS =   12.011; ZVAL   =    4.000    mass and valenz                      
   RCORE  =    1.500    outmost cutoff radius                                   
   RWIGS  =    1.630; RWIGS  =    0.863    wigner-seitz radius (au A)           
   ENMAX  =  400.000; ENMIN  =  300.000 eV                                      
   ICORE  =        2    local potential                                         
   LCOR   =        T    correct aug charges                                     
   LPAW   =        T    paw PP                                                  
   EAUG   =  644.873                                                            
   DEXC   =    0.000                                                            
   RMAX   =    1.529    core radius for proj-oper                               
   RAUG   =    1.300    factor for augmentation sphere                          
   RDEP   =    1.501    radius for radial grids                                 
   RDEPT  =    1.300    core radius for aug-charge                              
                                                                                
   Atomic configuration                                                         
    4 entries                                                                   
     n  l   j            E        occ.                                          
     1  0  0.50      -273.3789   2.0000                                         
     2  0  0.50       -13.7508   2.0000                                         
     2  1  0.50        -5.2854   2.0000                                         
     3  2  1.50        -5.4423   0.0000                                         
   Description                                                                  
     l       E           TYP  RCUT    TYP  RCUT                                 
     0    -13.7508458     23  1.200                                             
     0     -8.2022199     23  1.200                                             
     1     -5.2854383     23  1.500                                             
     1     34.0145650     23  1.500                                             
     2     -5.4423304      7  1.500                                             
  local pseudopotential read in
  partial core-charges read in
  partial kinetic energy density read in
  atomic valenz-charges read in
  non local Contribution for L=           0  read in
    real space projection operators read in
  non local Contribution for L=           0  read in
    real space projection operators read in
  non local Contribution for L=           1  read in
    real space projection operators read in
  non local Contribution for L=           1  read in
    real space projection operators read in
    PAW grid and wavefunctions read in
 
   number of l-projection  operators is LMAX  =           4
   number of lm-projection operators is LMMAX =           8
 
 POTCAR:    PAW_PBE F 08Apr2002                   
   VRHFIN =F: s2p5                                                              
   LEXCH  = PE                                                                  
   EATOM  =   659.6475 eV,   48.4827 Ry                                         
                                                                                
   TITEL  = PAW_PBE F 08Apr2002                                                 
   LULTRA =        F    use ultrasoft PP ?                                      
   IUNSCR =        1    unscreen: 0-lin 1-nonlin 2-no                           
   RPACOR =    1.200    partial core radius                                     
   POMASS =   18.998; ZVAL   =    7.000    mass and valenz                      
   RCORE  =    1.520    outmost cutoff radius                                   
   RWIGS  =    1.500; RWIGS  =    0.794    wigner-seitz radius (au A)           
   ENMAX  =  400.000; ENMIN  =  300.000 eV                                      
   ICORE  =        2    local potential                                         
   LCOR   =        T    correct aug charges                                     
   LPAW   =        T    paw PP                                                  
   EAUG   =  613.614                                                            
   RMAX   =    1.555    core radius for proj-oper                               
   RAUG   =    1.300    factor for augmentation sphere                          
   RDEP   =    1.539    radius for radial grids                                 
   RDEPT  =    1.299    core radius for aug-charge                              
                                                                                
   Atomic configuration                                                         
    4 entries                                                                   
     n  l   j            E        occ.                                          
     1  0  0.50      -663.3661   2.0000                                         
     2  0  0.50       -29.8995   2.0000                                         
     2  1  0.50       -11.1114   5.0000                                         
     3  2  1.50       -10.8847   0.0000                                         
   Description                                                                  
     l       E           TYP  RCUT    TYP  RCUT                                 
     0    -29.8995018     23  1.200                                             
     0     -9.5240782     23  1.200                                             
     1    -11.1113914     23  1.520                                             
     1      1.3605826     23  1.520                                             
     2    -10.8846608      7  1.500                                             
  local pseudopotential read in
  partial core-charges read in
  partial kinetic energy density read in
  atomic valenz-charges read in
  non local Contribution for L=           0  read in
    real space projection operators read in
  non local Contribution for L=           0  read in
    real space projection operators read in
  non local Contribution for L=           1  read in
    real space projection operators read in
  non local Contribution for L=           1  read in
    real space projection operators read in
    PAW grid and wavefunctions read in
 
   number of l-projection  operators is LMAX  =           4
   number of lm-projection operators is LMMAX =           8
 
 POTCAR:    PAW_PBE O 08Apr2002                   
   VRHFIN =O: s2p4                                                              
   LEXCH  = PE                                                                  
   EATOM  =   432.3788 eV,   31.7789 Ry                                         
                                                                                
   TITEL  = PAW_PBE O 08Apr2002                                                 
   LULTRA =        F    use ultrasoft PP ?                                      
   IUNSCR =        1    unscreen: 0-lin 1-nonlin 2-no                           
   RPACOR =    1.200    partial core radius                                     
   POMASS =   16.000; ZVAL   =    6.000    mass and valenz                      
   RCORE  =    1.520    outmost cutoff radius                                   
   RWIGS  =    1.550; RWIGS  =    0.820    wigner-seitz radius (au A)           
   ENMAX  =  400.000; ENMIN  =  300.000 eV                                      
   ICORE  =        2    local potential                                         
   LCOR   =        T    correct aug charges                                     
   LPAW   =        T    paw PP                                                  
   EAUG   =  605.392                                                            
   DEXC   =    0.000                                                            
   RMAX   =    1.553    core radius for proj-oper                               
   RAUG   =    1.300    factor for augmentation sphere                          
   RDEP   =    1.550    radius for radial grids                                 
   RDEPT  =    1.329    core radius for aug-charge                              
                                                                                
   Atomic configuration                                                         
    4 entries                                                                   
     n  l   j            E        occ.                                          
     1  0  0.50      -514.6923   2.0000                                         
     2  0  0.50       -23.9615   2.0000                                         
     2  1  0.50        -9.0305   4.0000                                         
     3  2  1.50        -9.5241   0.0000                                         
   Description                                                                  
     l       E           TYP  RCUT    TYP  RCUT                                 
     0    -23.9615318     23  1.200                                             
     0     -9.5240782     23  1.200                                             
     1     -9.0304911     23  1.520                                             
     1      8.1634956     23  1.520                                             
     2     -9.5240782      7  1.500                                             
  local pseudopotential read in
  partial core-charges read in
  partial kinetic energy density read in
  kinetic energy density of atom read in
  atomic valenz-charges read in
  non local Contribution for L=           0  read in
    real space projection operators read in
  non local Contribution for L=           0  read in
    real space projection operators read in
  non local Contribution for L=           1  read in
    real space projection operators read in
  non local Contribution for L=           1  read in
    real space projection operators read in
    PAW grid and wavefunctions read in
 
   number of l-projection  operators is LMAX  =           4
   number of lm-projection operators is LMMAX =           8
 
 POTCAR:    PAW_PBE H 15Jun2001                   
   VRHFIN =H: ultrasoft test                                                    
   LEXCH  = PE                                                                  
   EATOM  =    12.4884 eV,    0.9179 Ry                                         
                                                                                
   TITEL  = PAW_PBE H 15Jun2001                                                 
   LULTRA =        F    use ultrasoft PP ?                                      
   IUNSCR =        0    unscreen: 0-lin 1-nonlin 2-no                           
   RPACOR =    0.000    partial core radius                                     
   POMASS =    1.000; ZVAL   =    1.000    mass and valenz                      
   RCORE  =    1.100    outmost cutoff radius                                   
   RWIGS  =    0.700; RWIGS  =    0.370    wigner-seitz radius (au A)           
   ENMAX  =  250.000; ENMIN  =  200.000 eV                                      
   RCLOC  =    0.701    cutoff for local pot                                    
   LCOR   =        T    correct aug charges                                     
   LPAW   =        T    paw PP                                                  
   EAUG   =  400.000                                                            
   RMAX   =    1.123    core radius for proj-oper                               
   RAUG   =    1.200    factor for augmentation sphere                          
   RDEP   =    1.112    radius for radial grids                                 
   RDEPT  =    0.926    core radius for aug-charge                              
                                                                                
   Atomic configuration                                                         
    2 entries                                                                   
     n  l   j            E        occ.                                          
     1  0  0.50        -6.4927   1.0000                                         
     2  1  0.50        -3.4015   0.0000                                         
   Description                                                                  
     l       E           TYP  RCUT    TYP  RCUT                                 
     0     -6.4927494     23  1.100                                             
     0      6.8029130     23  1.100                                             
     1     -4.0817478     23  1.100                                             
  local pseudopotential read in
  atomic valenz-charges read in
  non local Contribution for L=           0  read in
    real space projection operators read in
  non local Contribution for L=           0  read in
    real space projection operators read in
  non local Contribution for L=           1  read in
    real space projection operators read in
    PAW grid and wavefunctions read in
 
   number of l-projection  operators is LMAX  =           3
   number of lm-projection operators is LMMAX =           5
 
 Optimization of the real space projectors (new method)

 maximal supplied QI-value         = 22.11
 optimisation between [QCUT,QGAM] = [ 11.94, 23.88] = [ 39.92,159.67] Ry 
 Optimized for a Real-space Cutoff    1.18 Angstroem

   l    n(q)    QCUT    max X(q) W(low)/X(q) W(high)/X(q)  e(spline) 
   0      8    11.939    53.033    0.11E-03    0.34E-03    0.60E-07
   0      8    11.939    34.740    0.11E-03    0.34E-03    0.59E-07
   1      8    11.939    30.949    0.22E-03    0.20E-03    0.17E-06
   1      8    11.939    19.518    0.20E-03    0.18E-03    0.16E-06
 Optimization of the real space projectors (new method)

 maximal supplied QI-value         = 25.13
 optimisation between [QCUT,QGAM] = [ 11.81, 23.88] = [ 39.08,159.64] Ry 
 Optimized for a Real-space Cutoff    1.41 Angstroem

   l    n(q)    QCUT    max X(q) W(low)/X(q) W(high)/X(q)  e(spline) 
   0     10    11.813    79.467    0.48E-04    0.30E-04    0.67E-06
   0     10    11.813    66.151    0.47E-04    0.30E-04    0.67E-06
   1     10    11.813    20.169    0.11E-03    0.17E-03    0.11E-05
   1     10    11.813    14.454    0.11E-03    0.17E-03    0.11E-05
 Optimization of the real space projectors (new method)

 maximal supplied QI-value         = 25.13
 optimisation between [QCUT,QGAM] = [ 11.81, 23.88] = [ 39.08,159.64] Ry 
 Optimized for a Real-space Cutoff    1.18 Angstroem

   l    n(q)    QCUT    max X(q) W(low)/X(q) W(high)/X(q)  e(spline) 
   0      8    11.813   115.676    0.10E-03    0.16E-03    0.35E-06
   0      8    11.813    87.132    0.10E-03    0.16E-03    0.35E-06
   1      8    11.813     4.429    0.16E-03    0.13E-04    0.22E-06
   1      8    11.813     2.733    0.13E-03    0.10E-04    0.18E-06
 Optimization of the real space projectors (new method)

 maximal supplied QI-value         = 24.76
 optimisation between [QCUT,QGAM] = [ 11.88, 24.01] = [ 39.54,161.47] Ry 
 Optimized for a Real-space Cutoff    1.18 Angstroem

   l    n(q)    QCUT    max X(q) W(low)/X(q) W(high)/X(q)  e(spline) 
   0      8    11.883    14.049    0.56E-04    0.86E-04    0.22E-06
   0      8    11.883     8.945    0.81E-04    0.11E-03    0.30E-06
   1      8    11.883     7.086    0.16E-03    0.15E-04    0.31E-06
   1      8    11.883     6.747    0.15E-03    0.14E-04    0.28E-06
 Optimization of the real space projectors (new method)

 maximal supplied QI-value         = 24.76
 optimisation between [QCUT,QGAM] = [ 11.88, 24.01] = [ 39.54,161.47] Ry 
 Optimized for a Real-space Cutoff    1.18 Angstroem

   l    n(q)    QCUT    max X(q) W(low)/X(q) W(high)/X(q)  e(spline) 
   0      8    11.883    20.381    0.86E-04    0.11E-03    0.31E-06
   0      8    11.883    15.268    0.94E-04    0.12E-03    0.33E-06
   1      8    11.883     5.964    0.19E-03    0.18E-04    0.33E-06
   1      8    11.883     5.382    0.17E-03    0.20E-04    0.29E-06
 Optimization of the real space projectors (new method)

 maximal supplied QI-value         = 34.20
 optimisation between [QCUT,QGAM] = [ 11.97, 23.94] = [ 40.13,160.53] Ry 
 Optimized for a Real-space Cutoff    1.18 Angstroem

   l    n(q)    QCUT    max X(q) W(low)/X(q) W(high)/X(q)  e(spline) 
   0      8    11.971    19.460    0.15E-03    0.31E-03    0.25E-06
   0      8    11.971    12.209    0.13E-03    0.29E-03    0.25E-06
   1      8    11.971     4.655    0.22E-03    0.24E-03    0.21E-06
  PAW_PBE B 06Sep2000                   :
 energy of atom  1       EATOM=  -71.1703
 kinetic energy error for atom=    0.0009 (will be added to EATOM!!)
  PAW_PBE N 08Apr2002                   :
 energy of atom  2       EATOM= -264.5486
 kinetic energy error for atom=    0.0116 (will be added to EATOM!!)
  PAW_PBE C 08Apr2002                   :
 energy of atom  3       EATOM= -147.1560
 kinetic energy error for atom=    0.0066 (will be added to EATOM!!)
  PAW_PBE F 08Apr2002                   :
 energy of atom  4       EATOM= -659.6475
 kinetic energy error for atom=    0.0296 (will be added to EATOM!!)
  PAW_PBE O 08Apr2002                   :
 energy of atom  5       EATOM= -432.3788
 kinetic energy error for atom=    0.0194 (will be added to EATOM!!)
  PAW_PBE H 15Jun2001                   :
 energy of atom  6       EATOM=  -12.4884
 kinetic energy error for atom=    0.0008 (will be added to EATOM!!)
 
 
 POSCAR: B N C F O H                             
  positions in direct lattice
  velocities in cartesian coordinates

 METAGGA = SCAN     LMAXTAU =  6    LMIXTAU =  F

 exchange correlation table for  LEXCH =        8
   RHO(1)=    0.500       N(1)  =     2000
   RHO(2)=  100.500       N(2)  =     4000
 


--------------------------------------------------------------------------------------------------------


 ion  position               nearest neighbor table
   1  0.109  0.053  0.383-  43 1.45  37 1.45  42 1.45
   2  0.109  0.219  0.383-  44 1.45  38 1.45  37 1.45
   3  0.109  0.386  0.383-  39 1.45  45 1.45  38 1.45
   4  0.109  0.553  0.383-  39 1.45  40 1.45  46 1.45
   5  0.109  0.719  0.383-  47 1.45  40 1.45  41 1.45
   6  0.109  0.886  0.383-  48 1.45  42 1.45  41 1.45
   7  0.276  0.053  0.383-  49 1.45  43 1.45  48 1.45
   8  0.276  0.219  0.383-  50 1.45  44 1.45  43 1.45
   9  0.276  0.386  0.383-  44 1.45  45 1.45  51 1.45
  10  0.276  0.553  0.383-  46 1.45  45 1.45  52 1.45
  11  0.276  0.719  0.383-  47 1.45  53 1.45  46 1.45
  12  0.276  0.886  0.383-  54 1.45  47 1.45  48 1.45
  13  0.443  0.053  0.383-  55 1.45  49 1.45  54 1.45
  14  0.443  0.219  0.383-  56 1.45  50 1.45  49 1.45
  15  0.443  0.386  0.382-  57 1.45  50 1.45  51 1.45
  16  0.443  0.552  0.383-  51 1.45  52 1.45  58 1.45
  17  0.443  0.719  0.383-  53 1.45  59 1.45  52 1.45
  18  0.443  0.886  0.383-  54 1.45  60 1.45  53 1.45
  19  0.609  0.053  0.383-  55 1.45  61 1.45  60 1.45
  20  0.609  0.219  0.383-  56 1.45  62 1.45  55 1.45
  21  0.609  0.386  0.382-  57 1.45  63 1.45  56 1.45
  22  0.609  0.552  0.382-  57 1.45  64 1.45  58 1.45
  23  0.609  0.719  0.383-  59 1.45  65 1.45  58 1.45
  24  0.609  0.886  0.383-  60 1.45  66 1.45  59 1.45
  25  0.776  0.053  0.383-  67 1.45  61 1.45  66 1.45
  26  0.776  0.219  0.383-  68 1.45  62 1.45  61 1.45
  27  0.776  0.386  0.383-  63 1.45  62 1.45  69 1.45
  28  0.776  0.552  0.382-  63 1.45  70 1.45  64 1.45
  29  0.776  0.719  0.382-  71 1.45  65 1.45  64 1.45
  30  0.776  0.886  0.383-  66 1.45  72 1.45  65 1.45
  31  0.943  0.053  0.383-  37 1.45  67 1.45  72 1.45
  32  0.943  0.219  0.383-  68 1.45  38 1.45  67 1.45
  33  0.943  0.386  0.383-  39 1.45  69 1.45  68 1.45
  34  0.943  0.553  0.383-  69 1.45  40 1.45  70 1.45
  35  0.943  0.719  0.383-  41 1.45  70 1.45  71 1.45
  36  0.943  0.886  0.383-  42 1.45  72 1.45  71 1.45
  37  0.054  0.108  0.383-  31 1.45   1 1.45   2 1.45
  38  0.054  0.275  0.383-  32 1.45   2 1.45   3 1.45
  39  0.054  0.441  0.383-   3 1.45   4 1.45  33 1.45
  40  0.054  0.608  0.383-   4 1.45   5 1.45  34 1.45
  41  0.054  0.775  0.383-  35 1.45   6 1.45   5 1.45
  42  0.054  0.941  0.383-  36 1.45   6 1.45   1 1.45
  43  0.221  0.108  0.383-   1 1.45   7 1.45   8 1.45
  44  0.221  0.275  0.383-   9 1.45   2 1.45   8 1.45
  45  0.221  0.441  0.383-   9 1.45  10 1.45   3 1.45
  46  0.221  0.608  0.383-  10 1.45   4 1.45  11 1.45
  47  0.221  0.775  0.383-  11 1.45   5 1.45  12 1.45
  48  0.221  0.941  0.383-   6 1.45  12 1.45   7 1.45
  49  0.387  0.108  0.383-   7 1.45  13 1.45  14 1.45
  50  0.387  0.275  0.383-   8 1.45  14 1.45  15 1.45
  51  0.387  0.441  0.383-  16 1.45   9 1.45  15 1.45
  52  0.387  0.608  0.383-  16 1.45  17 1.45  10 1.45
  53  0.387  0.775  0.383-  17 1.45  11 1.45  18 1.45
  54  0.387  0.941  0.383-  18 1.45  12 1.45  13 1.45
  55  0.554  0.108  0.383-  19 1.45  13 1.45  20 1.45
  56  0.554  0.275  0.383-  20 1.45  14 1.45  21 1.45
  57  0.554  0.441  0.381-  15 1.45  22 1.45  21 1.45
  58  0.554  0.608  0.383-  16 1.45  23 1.45  22 1.45
  59  0.554  0.775  0.383-  23 1.45  17 1.45  24 1.45
  60  0.554  0.941  0.383-  24 1.45  18 1.45  19 1.45
  61  0.721  0.108  0.383-  25 1.45  19 1.45  26 1.45
  62  0.721  0.275  0.383-  26 1.45  20 1.45  27 1.45
  63  0.721  0.441  0.382-  28 1.45  27 1.45  21 1.45
  64  0.721  0.608  0.382-  29 1.45  22 1.45  28 1.45
  65  0.721  0.775  0.383-  23 1.45  29 1.45  30 1.45
  66  0.721  0.941  0.383-  30 1.45  24 1.45  25 1.45
  67  0.887  0.108  0.383-  25 1.45  31 1.45  32 1.45
  68  0.887  0.275  0.383-  32 1.45  26 1.45  33 1.45
  69  0.887  0.441  0.383-  33 1.45  34 1.45  27 1.45
  70  0.887  0.608  0.383-  35 1.45  28 1.45  34 1.45
  71  0.887  0.775  0.383-  29 1.45  35 1.45  36 1.45
  72  0.887  0.941  0.383-  30 1.45  36 1.45  31 1.45
  73  0.446  0.476  0.598-  82 1.35  81 1.35  74 1.55  75 1.55
  74  0.499  0.546  0.571-  83 1.35  84 1.35  73 1.55  76 1.56
  75  0.463  0.538  0.628-  90 1.35  89 1.35  79 1.55  73 1.55
  76  0.458  0.491  0.541-  86 1.35  85 1.35  77 1.55  74 1.56
  77  0.535  0.546  0.515-  87 1.35  88 1.36  76 1.55  78 1.55
  78  0.489  0.514  0.483-  91 1.35  92 1.36  80 1.54  77 1.55
  79  0.443  0.473  0.656-  94 1.34  95 1.34  93 1.34  75 1.55
  80  0.576  0.541  0.461-  97 1.20  96 1.32  78 1.54
  81  0.344  0.420  0.593-  73 1.35
  82  0.483  0.412  0.602-  73 1.35
  83  0.485  0.627  0.572-  74 1.35
  84  0.601  0.579  0.573-  74 1.35
  85  0.440  0.394  0.543-  76 1.35
  86  0.369  0.488  0.534-  76 1.35
  87  0.574  0.648  0.518-  77 1.35
  88  0.612  0.524  0.517-  77 1.36
  89  0.561  0.616  0.629-  75 1.35
  90  0.399  0.576  0.628-  75 1.35
  91  0.423  0.412  0.483-  78 1.35
  92  0.437  0.563  0.476-  78 1.36
  93  0.352  0.386  0.654-  79 1.34
  94  0.517  0.451  0.661-  79 1.34
  95  0.440  0.528  0.679-  79 1.34
  96  0.632  0.641  0.458-  98 0.98  80 1.32
  97  0.589  0.476  0.449-  80 1.20
  98  0.696  0.662  0.447-  96 0.98
 
  LATTYP: Found a hexagonal cell.
 ALAT       =    15.0731108134
 C/A-ratio  =     2.9854487609
  
  Lattice vectors:
  
 A1 = (   7.5365500000, -13.0537000000,   0.0000000000)
 A2 = (   7.5365500000,  13.0537000000,   0.0000000000)
 A3 = (   0.0000000000,   0.0000000000,  45.0000000000)


Analysis of symmetry for initial positions (statically):
=====================================================================
 Subroutine PRICEL returns:
 Original cell was already a primitive cell.
 

 Routine SETGRP: Setting up the symmetry group for a 
 hexagonal supercell.


 Subroutine GETGRP returns: Found  1 space group operations
 (whereof  1 operations were pure point group operations)
 out of a pool of 24 trial point group operations.


The static configuration has the point symmetry C_1 .


Analysis of symmetry for dynamics (positions and initial velocities):
=====================================================================
 Subroutine PRICEL returns:
 Original cell was already a primitive cell.
 

 Routine SETGRP: Setting up the symmetry group for a 
 hexagonal supercell.


 Subroutine GETGRP returns: Found  1 space group operations
 (whereof  1 operations were pure point group operations)
 out of a pool of 24 trial point group operations.


The dynamic configuration has the point symmetry C_1 .


Analysis of constrained symmetry for selective dynamics:
=====================================================================
 Subroutine PRICEL returns:
 Original cell was already a primitive cell.
 

 Routine SETGRP: Setting up the symmetry group for a 
 hexagonal supercell.


 Subroutine GETGRP returns: Found  1 space group operations
 (whereof  1 operations were pure point group operations)
 out of a pool of 24 trial point group operations.


The constrained configuration has the point symmetry C_1 .


Analysis of structural, dynamic, and magnetic symmetry:
=====================================================================
 Subroutine PRICEL returns:
 Original cell was already a primitive cell.
 

 Routine SETGRP: Setting up the symmetry group for a 
 hexagonal supercell.


 Subroutine GETGRP returns: Found  1 space group operations
 (whereof  1 operations were pure point group operations)
 out of a pool of 24 trial point group operations.


The magnetic configuration has the point symmetry C_1 .


 Subroutine INISYM returns: Found  1 space group operations
 (whereof  1 operations are pure point group operations),
 and found     1 'primitive' translations

 
 
 KPOINTS: K-Point Grid                            

Automatic generation of k-mesh.
Space group operators:
 irot       det(A)        alpha          n_x          n_y          n_z        tau_x        tau_y        tau_z
    1     1.000000     0.000001     1.000000     0.000000     0.000000     0.000000     0.000000     0.000000
 
 Subroutine IBZKPT returns following result:
 ===========================================
 
 Found      5 irreducible k-points:
 
 Following reciprocal coordinates:
            Coordinates               Weight
  0.000000  0.000000  0.000000      1.000000
  0.333333 -0.000000  0.000000      2.000000
 -0.000000  0.333333  0.000000      2.000000
  0.333333  0.333333  0.000000      2.000000
 -0.333333  0.333333  0.000000      2.000000
 
 Following cartesian coordinates:
            Coordinates               Weight
  0.000000  0.000000  0.000000      1.000000
  0.022114 -0.012768  0.000000      2.000000
  0.022114  0.012768  0.000000      2.000000
  0.044229  0.000000  0.000000      2.000000
  0.000000  0.025536  0.000000      2.000000
 


--------------------------------------------------------------------------------------------------------




 Dimension of arrays:
   k-points           NKPTS =      5   k-points in BZ     NKDIM =      5   number of bands    NBANDS=    320
   number of dos      NEDOS =   1200   number of ions     NIONS =     98
   non local maximal  LDIM  =      4   non local SUM 2l+1 LMDIM =      8
   total plane-waves  NPLWV = ******
   max r-space proj   IRMAX =   6674   max aug-charges    IRDMAX=   9075
   dimension x,y,z NGX =   120 NGY =  120 NGZ =  350
   dimension x,y,z NGXF=   240 NGYF=  240 NGZF=  700
   support grid    NGXF=   240 NGYF=  240 NGZF=  700
   ions per type =              36  36   8  15   2   1
   NGX,Y,Z   is equivalent  to a cutoff of  13.24, 13.24, 12.93 a.u.
   NGXF,Y,Z  is equivalent  to a cutoff of  26.47, 26.47, 25.86 a.u.

 SYSTEM =  SiC                                     
 POSCAR =  B N C F O H                             

 Startparameter for this run:
   NWRITE =      2    write-flag & timer
   PREC   = accura    normal or accurate (medium, high low for compatibility)
   ISTART =      1    job   : 0-new  1-cont  2-samecut
   ICHARG =      0    charge: 1-file 2-atom 10-const
   ISPIN  =      2    spin polarized calculation?
   LNONCOLLINEAR =      F non collinear calculations
   LSORBIT =      F    spin-orbit coupling
   INIWAV =      1    electr: 0-lowe 1-rand  2-diag
   LASPH  =      T    aspherical Exc in radial PAW
   METAGGA=      F    non-selfconsistent MetaGGA calc.

 Electronic Relaxation 1
   ENCUT  =  550.0 eV  40.42 Ry    6.36 a.u.  28.82 28.82 86.05*2*pi/ulx,y,z
   ENINI  =  550.0     initial cutoff
   ENAUG  =  644.9 eV  augmentation charge cutoff
   NELM   =    100;   NELMIN=  2; NELMDL=  0     # of ELM steps 
   EDIFF  = 0.1E-04   stopping-criterion for ELM
   LREAL  =      T    real-space projection
   NLSPLINE    = F    spline interpolate recip. space projectors
   LCOMPAT=      F    compatible to vasp.4.4
   GGA_COMPAT  = T    GGA compatible to vasp.4.4-vasp.4.6
   LMAXPAW     = -100 max onsite density
   LMAXMIX     =    2 max onsite mixed and CHGCAR
   VOSKOWN=      0    Vosko Wilk Nusair interpolation
   ROPT   =   -0.00025  -0.00025  -0.00025  -0.00025
   ROPT   =   -0.00025  -0.00025
 Ionic relaxation
   EDIFFG = -.2E-01   stopping-criterion for IOM
   NSW    =    500    number of steps for IOM
   NBLOCK =      1;   KBLOCK =    500    inner block; outer block 
   IBRION =      2    ionic relax: 0-MD 1-quasi-New 2-CG
   NFREE  =      1    steps in history (QN), initial steepest desc. (CG)
   ISIF   =      2    stress and relaxation
   IWAVPR =     11    prediction:  0-non 1-charg 2-wave 3-comb
   ISYM   =      2    0-nonsym 1-usesym 2-fastsym
   LCORR  =      T    Harris-Foulkes like correction to forces

   POTIM  = 0.5000    time-step for ionic-motion
   TEIN   =    0.0    initial temperature
   TEBEG  =    0.0;   TEEND  =   0.0 temperature during run
   SMASS  =  -3.00    Nose mass-parameter (am)
   estimated Nose-frequenzy (Omega)   =  0.10E-29 period in steps =****** mass=  -0.519E-26a.u.
   SCALEE = 1.0000    scale energy and forces
   NPACO  =    256;   APACO  = 16.0  distance and # of slots for P.C.
   PSTRESS=    0.0 pullay stress

  Mass of Ions in am
   POMASS =  10.81 14.00 12.01 19.00 16.00  1.00
  Ionic Valenz
   ZVAL   =   3.00  5.00  4.00  7.00  6.00  1.00
  Atomic Wigner-Seitz radii
   RWIGS  =  -1.00 -1.00 -1.00 -1.00 -1.00 -1.00
  virtual crystal weights 
   VCA    =   1.00  1.00  1.00  1.00  1.00  1.00
   NELECT =     438.0000    total number of electrons
   NUPDOWN=      -1.0000    fix difference up-down

 DOS related values:
   EMIN   =  10.00;   EMAX   =-10.00  energy-range for DOS
   EFERMI =   0.00
   ISMEAR =     0;   SIGMA  =   0.05  broadening in eV -4-tet -1-fermi 0-gaus

 Electronic relaxation 2 (details)
   IALGO  =     68    algorithm
   LDIAG  =      T    sub-space diagonalisation (order eigenvalues)
   LSUBROT=      F    optimize rotation matrix (better conditioning)
   TURBO    =      0    0=normal 1=particle mesh
   IRESTART =      0    0=no restart 2=restart with 2 vectors
   NREBOOT  =      0    no. of reboots
   NMIN     =      0    reboot dimension
   EREF     =   0.00    reference energy to select bands
   IMIX   =      4    mixing-type and parameters
     AMIX     =   0.40;   BMIX     =  1.00
     AMIX_MAG =   1.60;   BMIX_MAG =  1.00
     AMIN     =   0.10
     WC   =   100.;   INIMIX=   1;  MIXPRE=   1;  MAXMIX= -45

 Intra band minimization:
   WEIMIN = 0.0010     energy-eigenvalue tresh-hold
   EBREAK =  0.78E-08  absolut break condition
   DEPER  =   0.30     relativ break condition  

   TIME   =   0.40     timestep for ELM

  volume/ion in A,a.u.               =      90.35       609.70
  Fermi-wavevector in a.u.,A,eV,Ry     =   0.600966  1.135661  4.913883  0.361160
  Thomas-Fermi vector in A             =   1.653023
 
 Write flags
   LWAVE        =      T    write WAVECAR
   LDOWNSAMPLE  =      F    k-point downsampling of WAVECAR
   LCHARG       =      F    write CHGCAR
   LVTOT        =      F    write LOCPOT, total local potential
   LVHAR        =      T    write LOCPOT, Hartree potential only
   LELF         =      F    write electronic localiz. function (ELF)
   LORBIT       =     11    0 simple, 1 ext, 2 COOP (PROOUT), +10 PAW based schemes


 Dipole corrections
   LMONO  =      F    monopole corrections only (constant potential shift)
   LDIPOL =      F    correct potential (dipole corrections)
   IDIPOL =      0    1-x, 2-y, 3-z, 4-all directions 
   EPSILON=  1.0000000 bulk dielectric constant

 Exchange correlation treatment:
   GGA     =    --    GGA type
   LEXCH   =     8    internal setting for exchange type
   VOSKOWN=      0    Vosko Wilk Nusair interpolation
   LHFCALC =     F    Hartree Fock is set to
   LHFONE  =     F    Hartree Fock one center treatment
   AEXX    =    0.0000 exact exchange contribution

 vdW DFT:
   LUSE_VDW   =     T    switch on vdW DFT
   Zab_VDW    =-.8491    correlation parameter
   PARAM1     =0.1234
   PARAM2     =1.0000
   PARAM3     =0.0000
   -- rVV10 --
   BPARAM     =15.7000
   CPARAM     = 0.0093

 Linear response parameters
   LEPSILON=     F    determine dielectric tensor
   LRPA    =     F    only Hartree local field effects (RPA)
   LNABLA  =     F    use nabla operator in PAW spheres
   LVEL    =     F    velocity operator in full k-point grid
   LINTERFAST=   F  fast interpolation
   KINTER  =     0    interpolate to denser k-point grid
   CSHIFT  =0.1000    complex shift for real part using Kramers Kronig
   OMEGAMAX=  -1.0    maximum frequency
   DEG_THRESHOLD= 0.2000000E-02 threshold for treating states as degnerate
   RTIME   =   -0.100 relaxation time in fs
  (WPLASMAI=    0.000 imaginary part of plasma frequency in eV, 0.658/RTIME)
   DFIELD  = 0.0000000 0.0000000 0.0000000 field for delta impulse in time
 
 Orbital magnetization related:
   ORBITALMAG=     F  switch on orbital magnetization
   LCHIMAG   =     F  perturbation theory with respect to B field
   DQ        =  0.001000  dq finite difference perturbation B field
   LLRAUG    =     F  two centre corrections for induced B field

 Solvation model:
   LSOL    =     T         switch on solvation model
   EB_K    = 78.400000     relative permittivity of the bulk solvent
   SIGMA_K =  0.600000     width of the dielectric cavity
   NC_K    =  0.002500     cutoff charge density
   TAU     =  0.000000     cavity surface tension
   LAMBDA_D_K    =  3.040000     Debye length in Angstroms
   LRHOB     =     F     write boundcharge  density
   LRHOION     =     F     write ioniccharge density



--------------------------------------------------------------------------------------------------------


 conjugate gradient relaxation of ions
   using selective dynamics as specified on POSCAR
 charge density and potential will be updated during run
 spin polarized calculation
 RMM-DIIS sequential band-by-band and
  variant of blocked Davidson during initial phase
 perform sub-space diagonalisation
    before iterative eigenvector-optimisation
 modified Broyden-mixing scheme, WC =      100.0
 initial mixing is a Kerker type mixing with AMIX =  0.4000 and BMIX =      1.0000
 Hartree-type preconditioning will be used
 using additional bands          101
 real space projection scheme for non local part
 use partial core corrections
 calculate Harris-corrections to forces 
   (improved forces if not selfconsistent)
 use gradient corrections 
 use of overlap-Matrix (Vanderbilt PP)
 Gauss-broadening in eV      SIGMA  =   0.05


--------------------------------------------------------------------------------------------------------


  energy-cutoff  :      550.00
  volume of cell :     8854.19
      direct lattice vectors                 reciprocal lattice vectors
     7.536550000-13.053700000  0.000000000     0.066343353 -0.038303316  0.000000000
     7.536550000 13.053700000  0.000000000     0.066343353  0.038303316  0.000000000
     0.000000000  0.000000000 45.000000000     0.000000000  0.000000000  0.022222222

  length of vectors
    15.073110813 15.073110813 45.000000000     0.076606688  0.076606688  0.022222222


 
 old parameters found on file WAVECAR:
  energy-cutoff  :      550.00
  volume of cell :     8854.19
      direct lattice vectors                 reciprocal lattice vectors
     7.536550000-13.053700000  0.000000000     0.066343353 -0.038303316  0.000000000
     7.536550000 13.053700000  0.000000000     0.066343353  0.038303316  0.000000000
     0.000000000  0.000000000 45.000000000     0.000000000  0.000000000  0.022222222

  length of vectors

 
 k-points in units of 2pi/SCALE and weight: K-Point Grid                            
   0.00000000  0.00000000  0.00000000       0.111
   0.02211445 -0.01276777  0.00000000       0.222
   0.02211445  0.01276777  0.00000000       0.222
   0.04422890  0.00000000  0.00000000       0.222
   0.00000000  0.02553554  0.00000000       0.222
 
 k-points in reciprocal lattice and weights: K-Point Grid                            
   0.00000000  0.00000000  0.00000000       0.111
   0.33333333 -0.00000000  0.00000000       0.222
  -0.00000000  0.33333333  0.00000000       0.222
   0.33333333  0.33333333  0.00000000       0.222
  -0.33333333  0.33333333  0.00000000       0.222
 
 position of ions in fractional coordinates (direct lattice) 
   0.10947526  0.05251780  0.38301456
   0.10945351  0.21918587  0.38306577
   0.10945558  0.38586067  0.38311055
   0.10945709  0.55252122  0.38308220
   0.10947516  0.71919373  0.38302140
   0.10947045  0.88585821  0.38297697
   0.27613900  0.05251471  0.38301413
   0.27613456  0.21918673  0.38293228
   0.27612138  0.38584296  0.38297124
   0.27611574  0.55251897  0.38309340
   0.27613782  0.71919152  0.38311232
   0.27612976  0.88583718  0.38306617
   0.44279783  0.05251625  0.38302099
   0.44280295  0.21920027  0.38274618
   0.44286927  0.38586660  0.38224935
   0.44276927  0.55249763  0.38273850
   0.44280857  0.71919988  0.38303850
   0.44280160  0.88585436  0.38309737
   0.60946196  0.05252213  0.38305320
   0.60944930  0.21919494  0.38287855
   0.60942041  0.38590292  0.38214969
   0.60939132  0.55233178  0.38189663
   0.60945560  0.71918829  0.38267939
   0.60948023  0.88587184  0.38301619
   0.77615300  0.05254520  0.38304507
   0.77613405  0.21919367  0.38301957
   0.77611232  0.38586381  0.38276254
   0.77609419  0.55248638  0.38234546
   0.77616200  0.71920590  0.38225683
   0.77615599  0.88590177  0.38281574
   0.94280993  0.05254240  0.38300639
   0.94279063  0.21918964  0.38307425
   0.94279931  0.38586123  0.38304699
   0.94279574  0.55252791  0.38289014
   0.94280683  0.71918882  0.38271263
   0.94282268  0.88587743  0.38281268
   0.05390131  0.10805751  0.38303971
   0.05389134  0.27473877  0.38309085
   0.05390717  0.44141401  0.38309398
   0.05391079  0.60808322  0.38302018
   0.05391099  0.77474562  0.38293081
   0.05391179  0.94140205  0.38295840
   0.22056916  0.10805993  0.38302017
   0.22056683  0.27473558  0.38300257
   0.22057206  0.44140430  0.38309764
   0.22057079  0.60807768  0.38311543
   0.22057728  0.77472844  0.38307922
   0.22056586  0.94138353  0.38303747
   0.38724407  0.10806945  0.38295674
   0.38722610  0.27473126  0.38268264
   0.38724492  0.44140473  0.38272944
   0.38724887  0.60807468  0.38301353
   0.38724935  0.77473889  0.38310601
   0.38723606  0.94138495  0.38307440
   0.55390375  0.10806475  0.38301214
   0.55390548  0.27475106  0.38264066
   0.55382893  0.44133429  0.38137267
   0.55391612  0.60802789  0.38252764
   0.55392833  0.77473719  0.38296485
   0.55390760  0.94139381  0.38307498
   0.72057825  0.10806410  0.38305328
   0.72056725  0.27473729  0.38290316
   0.72055974  0.44141286  0.38241140
   0.72054291  0.60808473  0.38200164
   0.72056986  0.77473288  0.38257226
   0.72059005  0.94142296  0.38298423
   0.88724528  0.10807385  0.38304721
   0.88724466  0.27473937  0.38305338
   0.88724058  0.44141404  0.38292975
   0.88721573  0.60807432  0.38269242
   0.88724008  0.77474841  0.38257031
   0.88725391  0.94142149  0.38288543
   0.44591411  0.47617528  0.59838745
   0.49900455  0.54568817  0.57109191
   0.46278969  0.53760759  0.62758718
   0.45823018  0.49080831  0.54070082
   0.53450239  0.54555316  0.51494901
   0.48908067  0.51430118  0.48322244
   0.44258735  0.47335107  0.65622699
   0.57614558  0.54085607  0.46077579
   0.34409259  0.42014943  0.59302269
   0.48308981  0.41169875  0.60205927
   0.48474483  0.62739370  0.57232046
   0.60054119  0.57909624  0.57277579
   0.44048718  0.39374796  0.54286561
   0.36906097  0.48789233  0.53439273
   0.57422632  0.64783517  0.51814977
   0.61171603  0.52403585  0.51707027
   0.56073979  0.61597070  0.62861528
   0.39912131  0.57633748  0.62769346
   0.42261611  0.41216523  0.48274556
   0.43681526  0.56326134  0.47641504
   0.35241315  0.38615386  0.65430707
   0.51676870  0.45078628  0.66067956
   0.44007053  0.52753661  0.67943012
   0.63206837  0.64089268  0.45794784
   0.58891896  0.47577718  0.44939810
   0.69557055  0.66155994  0.44704151
 
 position of ions in cartesian coordinates  (Angst):
   1.22086877 -0.74350562 17.23565526
   2.47680712  1.43241341 17.23795962
   3.73297574  3.60810913 17.23997476
   4.98903266  5.78362623 17.23869884
   6.24530457  7.95908334 17.23596317
   7.50134418 10.13473284 17.23396374
   2.47691515 -2.91912438 17.23563602
   3.73301364 -0.74337996 17.23195253
   4.98892735  1.43227264 17.23370600
   6.24504688  3.60808485 17.23920298
   7.50134930  5.78349014 17.24005430
   8.75722189  7.95893776 17.23797748
   3.73295934 -5.09461872 17.23594467
   4.98922037 -2.91884226 17.22357797
   6.24580929 -0.74409571 17.20122094
   7.50087870  1.43236113 17.22323230
   8.75753481  3.60792921 17.23673269
  10.01348207  5.78347779 17.23938179
   4.98907621 -7.27012555 17.23739384
   6.24511874 -5.09426326 17.22953469
   7.50130404 -2.91773013 17.19673609
   8.75538421 -0.74483810 17.18534856
  10.01339111  1.43241763 17.22057243
  11.26979562  3.60793317 17.23572852
   6.24552535 -9.44575915 17.23702811
   7.50133716 -7.27013266 17.23588045
   8.75729120 -5.09418710 17.22431416
  10.01291389 -2.91890916 17.20554569
  11.26991493 -0.74348794 17.20155752
  12.52618141  1.43258847 17.22670840
   7.50152261-11.62128527 17.23528742
   8.75732239 -9.44567025 17.23834130
  10.01351653 -7.27010262 17.23711439
  11.26958145 -5.09443917 17.23005646
  12.52571333 -2.91904249 17.22206845
  13.78208979 -0.74334614 17.22657064
   1.22061074  0.70693877 17.23678715
   2.47673723  2.88287607 17.23908821
   3.73301285  5.05839810 17.23922902
   4.98915100  7.23400064 17.23590788
   6.24521201  9.40955905 17.23188649
   7.50123253 11.58503159 17.23312778
   2.47672959 -1.46866169 17.23590746
   3.73287138  0.70710256 17.23511555
   4.98901795  2.88267789 17.23939392
   6.24515063  5.05839873 17.24019414
   7.50117131  7.23372293 17.23856495
   8.75708968  9.40933755 17.23668608
   3.73295510 -3.64426184 17.23305346
   4.98887472 -1.46847382 17.22071866
   6.24515949  0.70698596 17.22282459
   7.50130569  2.88259379 17.23560887
   8.75738245  5.05817224 17.23977062
  10.01321865  7.23369333 17.23834795
   4.98895865 -5.81984856 17.23554608
   6.24521141 -3.64399806 17.21882964
   7.50009741 -1.46847128 17.16177028
   8.75704914  0.70635879 17.21374389
  10.01355414  2.88237269 17.23341803
  11.26941379  5.05812877 17.23837413
   6.24510454 -7.99557593 17.23739768
   7.50116243 -5.81973066 17.23064234
   8.75726461 -3.64389972 17.20851286
  10.01326863 -1.46799530 17.19007385
  11.26942391  0.70702784 17.21575176
  12.52584419  2.88268661 17.23429039
   7.50127241-10.17107008 17.23712425
   8.75735069 -7.99546030 17.23740192
  10.01347200 -5.81968584 17.23183863
  11.26932818 -3.64382821 17.22115903
  12.52565929 -1.46843251 17.21566412
  13.78190360  0.70708730 17.22984423
   6.94937278  0.39502034 26.92743542
   7.87337892  0.60939396 25.69913584
   7.53954408  0.97665037 28.24142298
   7.15247605  0.42526517 24.33153692
   8.13989261  0.14425345 23.17270555
   7.56203750  0.32922090 21.74500977
   6.90301571  0.40158029 29.53021476
   8.41833876 -0.46065869 20.73491059
   5.75974823  0.99282316 26.68602093
   6.74361876 -0.93191745 27.09266724
   8.38168764  1.86209562 25.75442048
   8.89039647 -0.27993594 25.77491069
   6.28725487 -0.61011969 24.42895260
   6.45847134  1.55118896 24.04767295
   9.21012748  0.96086785 23.31673980
   8.55965083 -1.14455065 23.26816220
   8.86833749  0.72096773 28.28768747
   7.35159392  2.31332677 28.24620568
   6.29137131 -0.13642260 21.72355015
   7.53712730  1.65058924 21.43867684
   5.56624724  0.44044117 29.44381811
   7.29202650 -0.86131475 29.73058022
   7.29241959  1.14175586 30.57435558
   9.59373467  0.11518988 20.60765274
   8.02413571 -1.47691890 20.22291451
  10.22808174 -0.44396428 20.11686810
 


--------------------------------------------------------------------------------------------------------


 k-point  1 :   0.0000 0.0000 0.0000  plane waves:  259121
 k-point  2 :   0.3333-0.0000 0.0000  plane waves:  259350
 k-point  3 :  -0.0000 0.3333 0.0000  plane waves:  259350
 k-point  4 :   0.3333 0.3333 0.0000  plane waves:  259275
 k-point  5 :  -0.3333 0.3333 0.0000  plane waves:  259350

 maximum and minimum number of plane-waves per node :      5435     5363

 maximum number of plane-waves:    259350
 maximum index in each direction: 
   IXMAX=   29   IYMAX=   28   IZMAX=   86
   IXMIN=  -29   IYMIN=  -29   IZMIN=  -86


 real space projection operators:
  total allocation   :      29000.44 KBytes
  max/ min on nodes  :        802.75        399.18


 parallel 3D FFT for wavefunctions:
    minimum data exchange during FFTs selected (reduces bandwidth)
 parallel 3D FFT for charge:
    minimum data exchange during FFTs selected (reduces bandwidth)


 total amount of memory used by VASP MPI-rank0   186778. kBytes
=======================================================================

   base      :      30000. kBytes
   nonlr-proj:      12034. kBytes
   fftplans  :      13978. kBytes
   grid      :      61270. kBytes
   one-center:         18. kBytes
   wavefun   :      69478. kBytes
 
     INWAV:  cpu time   35.7578: real time   39.5366
 Broyden mixing: mesh for mixing (old mesh)
   NGX = 57   NGY = 57   NGZ =173
  (NGX  =240   NGY  =240   NGZ  =700)
  gives a total of 562077 points

 charge density for first step will be calculated from the start-wavefunctions


--------------------------------------------------------------------------------------------------------


 Maximum index for non-local projection operator          371
 Maximum index for augmentation-charges          386 (set IRDMAX)


--------------------------------------------------------------------------------------------------------


 initial charge from wavefunction
 First call to EWALD:  gamma=   0.086
 Maximum number of real-space cells 4x 4x 2
 Maximum number of reciprocal cells 2x 2x 5

    FEWALD:  cpu time    0.0066: real time    0.0033


--------------------------------------- Iteration      1(   1)  ---------------------------------------


    POTLOK:  cpu time   25.8482: real time   25.7462
    SETDIJ:  cpu time    0.6468: real time    0.4453
     EDDAV:  cpu time  185.7262: real time   93.6975
       DOS:  cpu time    0.0147: real time    0.0074
    CHARGE:  cpu time   16.5304: real time   15.9014
    MIXING:  cpu time    0.0492: real time    0.0247
    --------------------------------------------
      LOOP:  cpu time  228.8157: real time  135.8226

 eigenvalue-minimisations  :  6448
 total energy-change (2. order) :-0.8878266E+03  (-0.3458655E+02)
 number of electron     438.0000036 magnetization      -0.0000000
 augmentation part       29.4707696 magnetization      -0.0000002

 Broyden mixing:
  rms(total) = 0.16419E+01    rms(broyden)= 0.16406E+01
  rms(prec ) = 0.16624E+01
  weight for this iteration     100.00

 Free energy of the ion-electron system (eV)
  ---------------------------------------------------
  alpha Z        PSCENC =       108.37044944
  Ewald energy   TEWEN  =    180755.75640246
  -Hartree energ DENC   =   -201562.66090521
  -exchange      EXHF   =         0.00000000
  -V(xc)+E(xc)   XCENC  =      2125.20805794
  PAW double counting   =     50704.44445903   -50934.39289207
  entropy T*S    EENTRO =        -0.00000000
  eigenvalues    EBANDS =     -6669.25964495
  atomic energy  EATOM  =     24034.09792863
  Solvation  Ediel_sol  =       550.60950037
  ---------------------------------------------------
  free energy    TOTEN  =      -887.82664434 eV

  energy without entropy =     -887.82664434  energy(sigma->0) =     -887.82664434


--------------------------------------------------------------------------------------------------------




--------------------------------------- Iteration      1(   2)  ---------------------------------------


    POTLOK:  cpu time   24.6766: real time   24.5864
    SETDIJ:  cpu time    0.5993: real time    0.3977
    EDDIAG:  cpu time   43.1186: real time   21.8758
  RMM-DIIS:  cpu time  238.3383: real time  119.4777
    ORTHCH:  cpu time    1.2275: real time    0.6152
       DOS:  cpu time    0.0047: real time    0.0023
    CHARGE:  cpu time   16.4773: real time   15.8446
    MIXING:  cpu time    0.0395: real time    0.0198
    --------------------------------------------
      LOOP:  cpu time  324.4817: real time  182.8196

 eigenvalue-minimisations  :  6400
 total energy-change (2. order) : 0.4059863E+01  (-0.1766487E+01)
 number of electron     438.0000036 magnetization      -0.0000000
 augmentation part       29.3816720 magnetization       0.0000007

 Broyden mixing:
  rms(total) = 0.10301E+01    rms(broyden)= 0.10301E+01
  rms(prec ) = 0.10446E+01
  weight for this iteration     100.00

 eigenvalues of (default mixing * dielectric matrix)
  average eigenvalue GAMMA=   1.9985
  1.9985

 Free energy of the ion-electron system (eV)
  ---------------------------------------------------
  alpha Z        PSCENC =       108.37044944
  Ewald energy   TEWEN  =    180755.75640246
  -Hartree energ DENC   =   -201539.95464854
  -exchange      EXHF   =         0.00000000
  -V(xc)+E(xc)   XCENC  =      2124.19101207
  PAW double counting   =     50041.29271993   -50272.94496124
  entropy T*S    EENTRO =        -0.00000000
  eigenvalues    EBANDS =     -6649.28473657
  atomic energy  EATOM  =     24034.09792863
  Solvation  Ediel_sol  =       514.70905253
  ---------------------------------------------------
  free energy    TOTEN  =      -883.76678127 eV

  energy without entropy =     -883.76678127  energy(sigma->0) =     -883.76678127


--------------------------------------------------------------------------------------------------------




--------------------------------------- Iteration      1(   3)  ---------------------------------------


    POTLOK:  cpu time   25.1870: real time   25.0895
    SETDIJ:  cpu time    0.6051: real time    0.4037
    EDDIAG:  cpu time   43.1229: real time   21.8834
  RMM-DIIS:  cpu time  237.9365: real time  119.2719
    ORTHCH:  cpu time    1.2124: real time    0.6077
       DOS:  cpu time    0.0046: real time    0.0023
    CHARGE:  cpu time   16.5239: real time   15.8892
    MIXING:  cpu time    0.0176: real time    0.0088
    --------------------------------------------
      LOOP:  cpu time  324.6101: real time  183.1565

 eigenvalue-minimisations  :  6400
 total energy-change (2. order) : 0.2451143E+01  (-0.7369834E+00)
 number of electron     438.0000036 magnetization      -0.0000000
 augmentation part       29.2515457 magnetization       0.0000001

 Broyden mixing:
  rms(total) = 0.25192E+00    rms(broyden)= 0.25177E+00
  rms(prec ) = 0.25861E+00
  weight for this iteration     100.00

 eigenvalues of (default mixing * dielectric matrix)
  average eigenvalue GAMMA=   1.5191
  0.7987  2.2396

 Free energy of the ion-electron system (eV)
  ---------------------------------------------------
  alpha Z        PSCENC =       108.37044944
  Ewald energy   TEWEN  =    180755.75640246
  -Hartree energ DENC   =   -201515.32565894
  -exchange      EXHF   =         0.00000000
  -V(xc)+E(xc)   XCENC  =      2126.94088528
  PAW double counting   =     49125.80267752   -49358.60245857
  entropy T*S    EENTRO =        -0.00000000
  eigenvalues    EBANDS =     -6633.16909708
  atomic energy  EATOM  =     24034.09792863
  Solvation  Ediel_sol  =       474.81323325
  ---------------------------------------------------
  free energy    TOTEN  =      -881.31563800 eV

  energy without entropy =     -881.31563800  energy(sigma->0) =     -881.31563800


--------------------------------------------------------------------------------------------------------




--------------------------------------- Iteration      1(   4)  ---------------------------------------


    POTLOK:  cpu time   23.9534: real time   23.8778
    SETDIJ:  cpu time    0.5994: real time    0.3977
    EDDIAG:  cpu time   43.1304: real time   21.8870
  RMM-DIIS:  cpu time  239.9075: real time  120.3031
    ORTHCH:  cpu time    1.2215: real time    0.6122
       DOS:  cpu time    0.0047: real time    0.0024
    CHARGE:  cpu time   16.5176: real time   15.8870
    MIXING:  cpu time    0.0228: real time    0.0114
    --------------------------------------------
      LOOP:  cpu time  325.3573: real time  182.9786

 eigenvalue-minimisations  :  6400
 total energy-change (2. order) :-0.1516626E-01  (-0.3291514E-01)
 number of electron     438.0000036 magnetization      -0.0000000
 augmentation part       29.2668997 magnetization       0.0000008

 Broyden mixing:
  rms(total) = 0.14752E+00    rms(broyden)= 0.14752E+00
  rms(prec ) = 0.15461E+00
  weight for this iteration     100.00

 eigenvalues of (default mixing * dielectric matrix)
  average eigenvalue GAMMA=   1.5145
  2.2390  1.1523  1.1523

 Free energy of the ion-electron system (eV)
  ---------------------------------------------------
  alpha Z        PSCENC =       108.37044944
  Ewald energy   TEWEN  =    180755.75640246
  -Hartree energ DENC   =   -201496.67678967
  -exchange      EXHF   =         0.00000000
  -V(xc)+E(xc)   XCENC  =      2126.39012713
  PAW double counting   =     48985.49247139   -49218.07338074
  entropy T*S    EENTRO =        -0.00000000
  eigenvalues    EBANDS =     -6640.82910200
  atomic energy  EATOM  =     24034.09792863
  Solvation  Ediel_sol  =       464.14108909
  ---------------------------------------------------
  free energy    TOTEN  =      -881.33080426 eV

  energy without entropy =     -881.33080426  energy(sigma->0) =     -881.33080426


--------------------------------------------------------------------------------------------------------




--------------------------------------- Iteration      1(   5)  ---------------------------------------


    POTLOK:  cpu time   23.4320: real time   23.3610
    SETDIJ:  cpu time    0.6004: real time    0.3988
    EDDIAG:  cpu time   43.1817: real time   21.9068
  RMM-DIIS:  cpu time  238.7123: real time  119.8380
    ORTHCH:  cpu time    1.2165: real time    0.6105
       DOS:  cpu time    0.0047: real time    0.0023
    CHARGE:  cpu time   16.5257: real time   15.8934
    MIXING:  cpu time    0.0190: real time    0.0095
    --------------------------------------------
      LOOP:  cpu time  323.6921: real time  182.0204

 eigenvalue-minimisations  :  6412
 total energy-change (2. order) :-0.6301006E-01  (-0.1534509E-01)
 number of electron     438.0000036 magnetization      -0.0000000
 augmentation part       29.2969740 magnetization       0.0000019

 Broyden mixing:
  rms(total) = 0.59273E-01    rms(broyden)= 0.59251E-01
  rms(prec ) = 0.70117E-01
  weight for this iteration     100.00

 eigenvalues of (default mixing * dielectric matrix)
  average eigenvalue GAMMA=   1.6617
  2.4672  0.9850  1.5973  1.5973

 Free energy of the ion-electron system (eV)
  ---------------------------------------------------
  alpha Z        PSCENC =       108.37044944
  Ewald energy   TEWEN  =    180755.75640246
  -Hartree energ DENC   =   -201474.85708985
  -exchange      EXHF   =         0.00000000
  -V(xc)+E(xc)   XCENC  =      2126.07861586
  PAW double counting   =     48931.96873116   -49164.29295053
  entropy T*S    EENTRO =        -0.00000000
  eigenvalues    EBANDS =     -6649.51953871
  atomic energy  EATOM  =     24034.09792863
  Solvation  Ediel_sol  =       451.00363722
  ---------------------------------------------------
  free energy    TOTEN  =      -881.39381432 eV

  energy without entropy =     -881.39381432  energy(sigma->0) =     -881.39381432


--------------------------------------------------------------------------------------------------------




--------------------------------------- Iteration      1(   6)  ---------------------------------------


    POTLOK:  cpu time   23.7815: real time   23.7026
    SETDIJ:  cpu time    0.5998: real time    0.3982
    EDDIAG:  cpu time   43.1153: real time   21.8514
  RMM-DIIS:  cpu time  239.8636: real time  120.3152
    ORTHCH:  cpu time    1.2131: real time    0.6080
       DOS:  cpu time    0.0046: real time    0.0023
    CHARGE:  cpu time   16.5493: real time   15.9143
    MIXING:  cpu time    0.0271: real time    0.0136
    --------------------------------------------
      LOOP:  cpu time  325.1545: real time  182.8056

 eigenvalue-minimisations  :  6402
 total energy-change (2. order) :-0.6948555E-01  (-0.5246230E-02)
 number of electron     438.0000036 magnetization      -0.0000000
 augmentation part       29.2878963 magnetization      -0.0000049

 Broyden mixing:
  rms(total) = 0.38766E-01    rms(broyden)= 0.38765E-01
  rms(prec ) = 0.47919E-01
  weight for this iteration     100.00

 eigenvalues of (default mixing * dielectric matrix)
  average eigenvalue GAMMA=   1.6615
  2.7211  2.2674  1.0019  1.1585  1.1585

 Free energy of the ion-electron system (eV)
  ---------------------------------------------------
  alpha Z        PSCENC =       108.37044944
  Ewald energy   TEWEN  =    180755.75640246
  -Hartree energ DENC   =   -201453.19081505
  -exchange      EXHF   =         0.00000000
  -V(xc)+E(xc)   XCENC  =      2126.18858820
  PAW double counting   =     48891.14698461   -49123.49665548
  entropy T*S    EENTRO =        -0.00000000
  eigenvalues    EBANDS =     -6652.52595754
  atomic energy  EATOM  =     24034.09792863
  Solvation  Ediel_sol  =       432.18977485
  ---------------------------------------------------
  free energy    TOTEN  =      -881.46329987 eV

  energy without entropy =     -881.46329987  energy(sigma->0) =     -881.46329987


--------------------------------------------------------------------------------------------------------




--------------------------------------- Iteration      1(   7)  ---------------------------------------


    POTLOK:  cpu time   23.3958: real time   23.2913
    SETDIJ:  cpu time    0.5995: real time    0.3978
    EDDIAG:  cpu time   43.1590: real time   21.9251
  RMM-DIIS:  cpu time  237.9046: real time  119.2599
    ORTHCH:  cpu time    1.2195: real time    0.6112
       DOS:  cpu time    0.0045: real time    0.0023
    CHARGE:  cpu time   16.5203: real time   15.8889
    MIXING:  cpu time    0.0204: real time    0.0102
    --------------------------------------------
      LOOP:  cpu time  322.8237: real time  181.3868

 eigenvalue-minimisations  :  6400
 total energy-change (2. order) :-0.5475038E-01  (-0.3256438E-02)
 number of electron     438.0000036 magnetization      -0.0000000
 augmentation part       29.2950956 magnetization      -0.0000053

 Broyden mixing:
  rms(total) = 0.23436E-01    rms(broyden)= 0.23432E-01
  rms(prec ) = 0.32129E-01
  weight for this iteration     100.00

 eigenvalues of (default mixing * dielectric matrix)
  average eigenvalue GAMMA=   1.8585
  3.2047  2.3400  2.3400  1.0054  1.1303  1.1303

 Free energy of the ion-electron system (eV)
  ---------------------------------------------------
  alpha Z        PSCENC =       108.37044944
  Ewald energy   TEWEN  =    180755.75640246
  -Hartree energ DENC   =   -201432.71787489
  -exchange      EXHF   =         0.00000000
  -V(xc)+E(xc)   XCENC  =      2126.03459734
  PAW double counting   =     48882.74062187   -49115.00036205
  entropy T*S    EENTRO =        -0.00000000
  eigenvalues    EBANDS =     -6656.45320659
  atomic energy  EATOM  =     24034.09792863
  Solvation  Ediel_sol  =       415.65339354
  ---------------------------------------------------
  free energy    TOTEN  =      -881.51805025 eV

  energy without entropy =     -881.51805025  energy(sigma->0) =     -881.51805025


--------------------------------------------------------------------------------------------------------




--------------------------------------- Iteration      1(   8)  ---------------------------------------


    POTLOK:  cpu time   23.7964: real time   23.7166
    SETDIJ:  cpu time    0.6005: real time    0.3999
    EDDIAG:  cpu time   43.0185: real time   21.7708
  RMM-DIIS:  cpu time  237.8192: real time  119.2103
    ORTHCH:  cpu time    1.2126: real time    0.6078
       DOS:  cpu time    0.0045: real time    0.0023
    CHARGE:  cpu time   16.5154: real time   15.8808
    MIXING:  cpu time    0.0360: real time    0.0181
    --------------------------------------------
      LOOP:  cpu time  323.0031: real time  181.6065

 eigenvalue-minimisations  :  6400
 total energy-change (2. order) :-0.7817646E-01  (-0.4982197E-02)
 number of electron     438.0000036 magnetization      -0.0000000
 augmentation part       29.2941786 magnetization       0.0000085

 Broyden mixing:
  rms(total) = 0.13280E-01    rms(broyden)= 0.13279E-01
  rms(prec ) = 0.16715E-01
  weight for this iteration     100.00

 eigenvalues of (default mixing * dielectric matrix)
  average eigenvalue GAMMA=   2.0125
  5.3369  2.5183  1.9816  1.1196  1.1196  0.9229  1.0883

 Free energy of the ion-electron system (eV)
  ---------------------------------------------------
  alpha Z        PSCENC =       108.37044944
  Ewald energy   TEWEN  =    180755.75640246
  -Hartree energ DENC   =   -201397.38065823
  -exchange      EXHF   =         0.00000000
  -V(xc)+E(xc)   XCENC  =      2125.96316818
  PAW double counting   =     48884.58654603   -49116.86663540
  entropy T*S    EENTRO =        -0.00000000
  eigenvalues    EBANDS =     -6659.07421998
  atomic energy  EATOM  =     24034.09792863
  Solvation  Ediel_sol  =       382.95079216
  ---------------------------------------------------
  free energy    TOTEN  =      -881.59622671 eV

  energy without entropy =     -881.59622671  energy(sigma->0) =     -881.59622671


--------------------------------------------------------------------------------------------------------




--------------------------------------- Iteration      1(   9)  ---------------------------------------


    POTLOK:  cpu time   23.4691: real time   23.3695
    SETDIJ:  cpu time    0.6009: real time    0.3994
    EDDIAG:  cpu time   42.9854: real time   21.7600
  RMM-DIIS:  cpu time  238.0525: real time  119.9819
    ORTHCH:  cpu time    1.2193: real time    0.6111
       DOS:  cpu time    0.0046: real time    0.0023
    CHARGE:  cpu time   16.5219: real time   15.8874
    MIXING:  cpu time    0.0222: real time    0.0111
    --------------------------------------------
      LOOP:  cpu time  322.8759: real time  182.0227

 eigenvalue-minimisations  :  6400
 total energy-change (2. order) :-0.2326206E-01  (-0.1414102E-02)
 number of electron     438.0000036 magnetization      -0.0000000
 augmentation part       29.2914619 magnetization       0.0000027

 Broyden mixing:
  rms(total) = 0.74443E-02    rms(broyden)= 0.74418E-02
  rms(prec ) = 0.96727E-02
  weight for this iteration     100.00

 eigenvalues of (default mixing * dielectric matrix)
  average eigenvalue GAMMA=   2.1072
  6.4984  2.5174  1.8448  1.8448  1.0838  1.0838  0.9803  1.0044

 Free energy of the ion-electron system (eV)
  ---------------------------------------------------
  alpha Z        PSCENC =       108.37044944
  Ewald energy   TEWEN  =    180755.75640246
  -Hartree energ DENC   =   -201383.03497589
  -exchange      EXHF   =         0.00000000
  -V(xc)+E(xc)   XCENC  =      2125.94181671
  PAW double counting   =     48886.24333117   -49118.53026258
  entropy T*S    EENTRO =        -0.00000000
  eigenvalues    EBANDS =     -6659.79320418
  atomic energy  EATOM  =     24034.09792863
  Solvation  Ediel_sol  =       369.32902546
  ---------------------------------------------------
  free energy    TOTEN  =      -881.61948877 eV

  energy without entropy =     -881.61948877  energy(sigma->0) =     -881.61948877


--------------------------------------------------------------------------------------------------------




--------------------------------------- Iteration      1(  10)  ---------------------------------------


    POTLOK:  cpu time   22.4960: real time   22.4023
    SETDIJ:  cpu time    0.5993: real time    0.3977
    EDDIAG:  cpu time   43.0070: real time   21.7689
  RMM-DIIS:  cpu time  237.6541: real time  119.1311
    ORTHCH:  cpu time    1.2124: real time    0.6076
       DOS:  cpu time    0.0047: real time    0.0023
    CHARGE:  cpu time   16.5477: real time   15.9124
    MIXING:  cpu time    0.0268: real time    0.0134
    --------------------------------------------
      LOOP:  cpu time  321.5479: real time  180.2358

 eigenvalue-minimisations  :  6400
 total energy-change (2. order) :-0.1963752E-01  (-0.5180247E-03)
 number of electron     438.0000036 magnetization      -0.0000000
 augmentation part       29.2914538 magnetization       0.0000043

 Broyden mixing:
  rms(total) = 0.42235E-02    rms(broyden)= 0.42227E-02
  rms(prec ) = 0.53218E-02
  weight for this iteration     100.00

 eigenvalues of (default mixing * dielectric matrix)
  average eigenvalue GAMMA=   2.1626
  7.5849  2.6658  2.4291  1.8348  1.0864  1.0864  1.1436  0.9662  0.6661

 Free energy of the ion-electron system (eV)
  ---------------------------------------------------
  alpha Z        PSCENC =       108.37044944
  Ewald energy   TEWEN  =    180755.75640246
  -Hartree energ DENC   =   -201371.79442531
  -exchange      EXHF   =         0.00000000
  -V(xc)+E(xc)   XCENC  =      2125.89624200
  PAW double counting   =     48887.42026551   -49119.70500921
  entropy T*S    EENTRO =        -0.00000000
  eigenvalues    EBANDS =     -6660.40841698
  atomic energy  EATOM  =     24034.09792863
  Solvation  Ediel_sol  =       358.72743716
  ---------------------------------------------------
  free energy    TOTEN  =      -881.63912629 eV

  energy without entropy =     -881.63912629  energy(sigma->0) =     -881.63912629


--------------------------------------------------------------------------------------------------------




--------------------------------------- Iteration      1(  11)  ---------------------------------------


    POTLOK:  cpu time   22.0732: real time   21.9658
    SETDIJ:  cpu time    0.6016: real time    0.4000
    EDDIAG:  cpu time   43.0277: real time   21.7782
  RMM-DIIS:  cpu time  238.8855: real time  119.8127
    ORTHCH:  cpu time    1.2184: real time    0.6107
       DOS:  cpu time    0.0047: real time    0.0023
    CHARGE:  cpu time   16.4988: real time   15.8664
    MIXING:  cpu time    0.0305: real time    0.0153
    --------------------------------------------
      LOOP:  cpu time  322.3404: real time  180.4513

 eigenvalue-minimisations  :  6400
 total energy-change (2. order) :-0.6145627E-02  (-0.1322651E-03)
 number of electron     438.0000036 magnetization      -0.0000000
 augmentation part       29.2916364 magnetization      -0.0000004

 Broyden mixing:
  rms(total) = 0.31694E-02    rms(broyden)= 0.31692E-02
  rms(prec ) = 0.39091E-02
  weight for this iteration     100.00

 eigenvalues of (default mixing * dielectric matrix)
  average eigenvalue GAMMA=   2.1722
  7.9336  3.0524  2.4090  1.7635  1.7635  1.0843  1.0843  1.0011  1.0011  0.6288

 Free energy of the ion-electron system (eV)
  ---------------------------------------------------
  alpha Z        PSCENC =       108.37044944
  Ewald energy   TEWEN  =    180755.75640246
  -Hartree energ DENC   =   -201368.64245236
  -exchange      EXHF   =         0.00000000
  -V(xc)+E(xc)   XCENC  =      2125.88563240
  PAW double counting   =     48888.16356453   -49120.44696217
  entropy T*S    EENTRO =        -0.00000000
  eigenvalues    EBANDS =     -6660.51117514
  atomic energy  EATOM  =     24034.09792863
  Solvation  Ediel_sol  =       355.68134028
  ---------------------------------------------------
  free energy    TOTEN  =      -881.64527191 eV

  energy without entropy =     -881.64527191  energy(sigma->0) =     -881.64527191


[...]
 -----------------------------------------------------------------------------------
      1.22115     -0.74325     17.23578        -0.001068      0.000518     -0.004427
      2.47726      1.43240     17.23729        -0.001406     -0.000877     -0.000913
      3.73320      3.60809     17.23944        -0.001370     -0.001689     -0.001858
      4.98911      5.78364     17.23863         0.003216      0.001380     -0.004523
      6.24525      7.95916     17.23535         0.001452      0.000769     -0.001221
      7.50147     10.13485     17.23371        -0.000699     -0.001383     -0.002575
      2.47724     -2.91884     17.23514        -0.001190     -0.002102     -0.001376
      3.73351     -0.74336     17.23164        -0.000671     -0.002106     -0.001275
      4.98934      1.43218     17.23380         0.000218      0.000210     -0.003494
      6.24521      3.60794     17.23860         0.002160      0.000580     -0.001555
      7.50139      5.78361     17.23937         0.000006     -0.001642     -0.001046
      8.75758      7.95918     17.23771        -0.000477     -0.000145     -0.002881
      3.73332     -5.09444     17.23563        -0.002788      0.000060     -0.001891
      4.98943     -2.91880     17.22371         0.002797      0.001477     -0.001746
      6.24606     -0.74414     17.20093         0.004187     -0.003147      0.001991
      7.50101      1.43222     17.22322        -0.000916      0.000422     -0.001227
      8.75741      3.60796     17.23676        -0.001415     -0.000097     -0.003796
     10.01367      5.78353     17.23868        -0.001620     -0.000267     -0.001023
      4.98935     -7.26986     17.23731        -0.001019     -0.003354     -0.003412
      6.24551     -5.09381     17.22907        -0.001124      0.000803      0.000243
      7.50131     -2.91717     17.19678        -0.000234      0.004168      0.001345
      8.75540     -0.74490     17.18561        -0.007028     -0.002778      0.001028
     10.01316      1.43232     17.22021        -0.000972      0.001457      0.001025
     11.26967      3.60792     17.23551         0.001597      0.000436     -0.002922
      6.24547     -9.44559     17.23636        -0.002379      0.000545     -0.000752
      7.50151     -7.26972     17.23552        -0.002590      0.000881     -0.001838
      8.75729     -5.09353     17.22470        -0.000804     -0.000504     -0.003326
     10.01287     -2.91869     17.20541        -0.002507     -0.000434      0.001640
     11.26984     -0.74356     17.20152         0.000144     -0.000190      0.001143
     12.52585      1.43251     17.22685         0.000863      0.000897     -0.003157
      7.50157    -11.62120     17.23487        -0.001061     -0.000842     -0.002041
      8.75762     -9.44552     17.23806        -0.001819     -0.001238     -0.002939
     10.01354     -7.26975     17.23635        -0.001189      0.000042      0.000252
     11.26945     -5.09426     17.22989         0.000251     -0.000120     -0.001914
     12.52565     -2.91902     17.22217         0.000336      0.000445     -0.001882
     13.78200     -0.74323     17.22593        -0.000469      0.001877      0.000807
      1.22090      0.70716     17.23635         0.005392      0.002023     -0.001784
      2.47706      2.88284     17.23868         0.002347     -0.000439     -0.003291
      3.73303      5.05848     17.23877         0.000476      0.001291     -0.002911
      4.98904      7.23407     17.23546        -0.000065      0.002749     -0.001452
      6.24521      9.40964     17.23156        -0.001401      0.001066     -0.001357
      7.50134     11.58526     17.23279         0.001830      0.001618     -0.001218
      2.47710     -1.46843     17.23552         0.001170     -0.000020     -0.000985
      3.73332      0.70707     17.23480        -0.004254      0.004430     -0.001653
      4.98926      2.88259     17.23895        -0.000714      0.004031     -0.001893
      6.24524      5.05832     17.23975        -0.000934      0.000828     -0.002889
      7.50133      7.23394     17.23818         0.000426      0.002179     -0.003631
      8.75740      9.40961     17.23626         0.005051      0.001057     -0.001886
      3.73319     -3.64411     17.23277        -0.002801     -0.000191     -0.001209
      4.98926     -1.46852     17.22068        -0.002805      0.002205     -0.000972
      6.24544      0.70682     17.22268         0.000235      0.004314     -0.000059
      7.50136      2.88244     17.23525         0.001171      0.003892     -0.000825
      8.75742      5.05823     17.23936         0.001469     -0.000673     -0.003064
     10.01357      7.23382     17.23798         0.003313      0.005414     -0.002884
      4.98937     -5.81953     17.23525        -0.001128     -0.000767     -0.001768
      6.24547     -3.64361     17.21882        -0.000736     -0.001483     -0.000500
      7.50021     -1.46824     17.16223         0.002442      0.001766      0.000103
      8.75699      0.70616     17.21385         0.004161      0.003753      0.000195
     10.01334      2.88234     17.23310         0.003048      0.001677     -0.000635
     11.26963      5.05820     17.23795         0.002973      0.002746     -0.001818
      6.24530     -7.99530     17.23702         0.003089      0.004522     -0.002287
      7.50141     -5.81930     17.23039         0.001931     -0.003996     -0.000471
      8.75714     -3.64333     17.20850         0.003984     -0.003036      0.001080
     10.01321     -1.46793     17.19041         0.005905      0.003443      0.000209
     11.26914      0.70690     17.21572         0.005380      0.002056     -0.000470
     12.52568      2.88265     17.23386         0.000539      0.000045     -0.001100
      7.50136    -10.17090     17.23673         0.004325      0.001592     -0.002910
      8.75747     -7.99518     17.23708         0.002282      0.003106     -0.003118
     10.01334     -5.81927     17.23152         0.003930     -0.001481     -0.000568
     11.26923     -3.64370     17.22105         0.005527     -0.000668      0.000022
     12.52559     -1.46845     17.21566         0.001852      0.001876     -0.001305
     13.78173      0.70719     17.22959        -0.000051     -0.000399     -0.001765
      6.94839      0.39534     26.92709        -0.005154     -0.005478      0.004009
      7.87311      0.60806     25.69912        -0.003030      0.006548      0.012488
      7.53787      0.97733     28.24146        -0.000782     -0.001148      0.000256
      7.15251      0.42438     24.33112        -0.004140      0.003633      0.011338
      8.14060      0.14443     23.17214         0.000621     -0.003075      0.006880
      7.56335      0.32955     21.74385         0.001490     -0.010613      0.003220
      6.90171      0.40133     29.53064        -0.004713     -0.001069      0.002943
      8.41813     -0.46130     20.73435         0.006682     -0.005409      0.017484
      5.75863      0.99359     26.68727        -0.001273     -0.002522     -0.001783
      6.74376     -0.93165     27.09264        -0.007457      0.000808      0.004711
      8.37970      1.86121     25.75585        -0.001518      0.003257     -0.000141
      8.89106     -0.28024     25.77617        -0.006652      0.003153      0.004642
      6.28627     -0.61008     24.43077         0.002124     -0.002090     -0.003656
      6.45859      1.55027     24.04763        -0.000784      0.000344     -0.000422
      9.21071      0.96117     23.31771        -0.001279     -0.003388      0.005822
      8.55896     -1.14444     23.27089         0.004570     -0.002708      0.000258
      8.86639      0.72093     28.28874        -0.005281      0.003359      0.004957
      7.35005      2.31418     28.24709        -0.008493     -0.004128      0.005364
      6.29376     -0.13857     21.72434        -0.001240      0.000057      0.002536
      7.53804      1.65158     21.43953         0.000231     -0.011565      0.002104
      5.56496      0.43986     29.44369        -0.009925     -0.003480      0.003077
      7.29144     -0.86124     29.73216        -0.004845     -0.005093     -0.000847
      7.29139      1.14053     30.57553        -0.008824      0.005682      0.005828
      9.59368      0.11377     20.61028         0.004184     -0.005133      0.000409
      8.02545     -1.47924     20.22393         0.006237      0.000930      0.005747
     10.22773     -0.44435     20.11839         0.009474     -0.005449      0.005383
 -----------------------------------------------------------------------------------
    total drift:                                0.229229      0.156950     -0.102205


--------------------------------------------------------------------------------------------------------



  FREE ENERGIE OF THE ION-ELECTRON SYSTEM (eV)
  ---------------------------------------------------
  free  energy   TOTEN  =      -881.65780876 eV

  energy  without entropy=     -881.65780876  energy(sigma->0) =     -881.65780876
 
 d Force = 0.5500761E-04[ 0.394E-04, 0.706E-04]  d Energy = 0.7072103E-04-0.157E-04
 d Force = 0.2358353E+01[ 0.236E+01, 0.236E+01]  d Ewald  = 0.2358353E+01-0.233E-06


--------------------------------------------------------------------------------------------------------


    POTLOK:  cpu time   21.3837: real time   21.2262


--------------------------------------------------------------------------------------------------------


 Conjugate gradient step on ions:
 trial-energy change:   -0.000071  1 .order   -0.000055   -0.000071   -0.000039
  (g-gl).g = 0.298E-03      g.g   = 0.257E-03  gl.gl    = 0.406E-03
 g(Force)  = 0.257E-03   g(Stress)= 0.000E+00 ortho     =-0.142E-04
 gamma     =   0.73442
 trial     =   0.28636
 opt step  =   0.64875  (harmonic =   0.64875) maximal distance =0.00093888
 next E    =  -881.657818   (d E  =  -0.00008)


--------------------------------------------------------------------------------------------------------


  
 reached required accuracy - stopping structural energy minimisation
 writing wavefunctions
     LOOP+:  cpu time 1336.2323: real time  902.7814
    4ORBIT:  cpu time    0.0000: real time    0.0000
 


 total charge     
 
# of ion       s       p       d       tot
------------------------------------------
    1        0.744   1.393   0.000   2.137
    2        0.744   1.393   0.000   2.137
    3        0.744   1.393   0.000   2.137
    4        0.744   1.393   0.000   2.137
    5        0.744   1.393   0.000   2.137
    6        0.744   1.393   0.000   2.137
    7        0.744   1.393   0.000   2.137
    8        0.744   1.394   0.000   2.137
    9        0.744   1.393   0.000   2.137
   10        0.744   1.393   0.000   2.137
   11        0.744   1.393   0.000   2.137
   12        0.744   1.393   0.000   2.137
   13        0.744   1.393   0.000   2.137
   14        0.744   1.394   0.000   2.137
   15        0.744   1.394   0.000   2.138
   16        0.744   1.394   0.000   2.138
   17        0.744   1.393   0.000   2.137
   18        0.744   1.393   0.000   2.137
   19        0.744   1.393   0.000   2.137
   20        0.744   1.393   0.000   2.137
   21        0.744   1.393   0.000   2.136
   22        0.744   1.394   0.000   2.138
   23        0.744   1.394   0.000   2.137
   24        0.744   1.393   0.000   2.137
   25        0.744   1.393   0.000   2.137
   26        0.744   1.393   0.000   2.137
   27        0.744   1.393   0.000   2.137
   28        0.744   1.393   0.000   2.137
   29        0.744   1.395   0.000   2.139
   30        0.744   1.393   0.000   2.137
   31        0.744   1.393   0.000   2.137
   32        0.744   1.393   0.000   2.137
   33        0.744   1.393   0.000   2.137
   34        0.744   1.393   0.000   2.137
   35        0.744   1.393   0.000   2.137
   36        0.744   1.393   0.000   2.137
   37        1.238   2.821   0.000   4.059
   38        1.238   2.821   0.000   4.060
   39        1.238   2.821   0.000   4.060
   40        1.238   2.821   0.000   4.059
   41        1.238   2.821   0.000   4.059
   42        1.238   2.822   0.000   4.060
   43        1.238   2.821   0.000   4.060
   44        1.238   2.822   0.000   4.060
   45        1.238   2.821   0.000   4.059
   46        1.238   2.821   0.000   4.059
   47        1.238   2.822   0.000   4.060
   48        1.238   2.821   0.000   4.059
   49        1.238   2.821   0.000   4.060
   50        1.238   2.821   0.000   4.060
   51        1.238   2.821   0.000   4.059
   52        1.238   2.821   0.000   4.059
   53        1.238   2.821   0.000   4.059
   54        1.238   2.821   0.000   4.059
   55        1.238   2.821   0.000   4.059
   56        1.238   2.821   0.000   4.059
   57        1.238   2.824   0.000   4.062
   58        1.238   2.820   0.000   4.058
   59        1.238   2.821   0.000   4.059
   60        1.238   2.821   0.000   4.059
   61        1.238   2.821   0.000   4.059
   62        1.238   2.821   0.000   4.060
   63        1.238   2.821   0.000   4.060
   64        1.238   2.821   0.000   4.059
   65        1.238   2.821   0.000   4.059
   66        1.238   2.821   0.000   4.060
   67        1.238   2.822   0.000   4.060
   68        1.238   2.822   0.000   4.060
   69        1.238   2.821   0.000   4.059
   70        1.238   2.821   0.000   4.059
   71        1.238   2.822   0.000   4.060
   72        1.238   2.821   0.000   4.059
   73        0.832   1.600   0.000   2.432
   74        0.832   1.598   0.000   2.431
   75        0.833   1.605   0.000   2.438
   76        0.832   1.599   0.000   2.431
   77        0.834   1.598   0.000   2.433
   78        0.832   1.601   0.000   2.433
   79        0.815   1.566   0.000   2.382
   80        0.877   1.718   0.000   2.596
   81        1.758   4.402   0.000   6.160
   82        1.758   4.402   0.000   6.160
   83        1.758   4.402   0.000   6.160
   84        1.758   4.403   0.000   6.161
   85        1.758   4.403   0.000   6.161
   86        1.758   4.402   0.000   6.160
   87        1.758   4.402   0.000   6.160
   88        1.758   4.401   0.000   6.159
   89        1.758   4.402   0.000   6.160
   90        1.758   4.403   0.000   6.161
   91        1.757   4.406   0.000   6.162
   92        1.757   4.402   0.000   6.158
   93        1.759   4.412   0.000   6.170
   94        1.759   4.413   0.000   6.172
   95        1.759   4.412   0.000   6.170
   96        1.579   3.682   0.000   5.261
   97        1.600   3.588   0.000   5.188
   98        0.569   0.130   0.000   0.700
--------------------------------------------------
tot        108.150 238.088   0.000 346.237
 


 magnetization (x)
 
# of ion       s       p       d       tot
------------------------------------------
    1       -0.000   0.000   0.000   0.000
    2       -0.000  -0.000   0.000  -0.000
    3       -0.000   0.000   0.000   0.000
    4       -0.000  -0.000   0.000  -0.000
    5        0.000  -0.000   0.000  -0.000
    6       -0.000   0.000   0.000   0.000
    7       -0.000   0.000   0.000  -0.000
    8       -0.000   0.000   0.000   0.000
    9        0.000  -0.000   0.000  -0.000
   10        0.000  -0.000   0.000  -0.000
   11        0.000  -0.000   0.000  -0.000
   12        0.000  -0.000   0.000  -0.000
   13       -0.000  -0.000   0.000  -0.000
   14        0.000  -0.000   0.000  -0.000
   15       -0.000  -0.000   0.000  -0.000
   16        0.000  -0.000   0.000  -0.000
   17        0.000  -0.000   0.000  -0.000
   18       -0.000   0.000   0.000   0.000
   19        0.000  -0.000   0.000   0.000
   20       -0.000   0.000   0.000  -0.000
   21        0.000  -0.000   0.000  -0.000
   22        0.000  -0.000   0.000  -0.000
   23       -0.000   0.000   0.000  -0.000
   24       -0.000  -0.000   0.000  -0.000
   25        0.000  -0.000   0.000  -0.000
   26        0.000  -0.000   0.000   0.000
   27        0.000   0.000   0.000   0.000
   28       -0.000  -0.000   0.000  -0.000
   29        0.000   0.000   0.000   0.000
   30        0.000  -0.000   0.000  -0.000
   31       -0.000  -0.000   0.000  -0.000
   32       -0.000  -0.000   0.000  -0.000
   33        0.000   0.000   0.000   0.000
   34       -0.000   0.000   0.000  -0.000
   35       -0.000   0.000   0.000   0.000
   36       -0.000   0.000   0.000   0.000
   37       -0.000   0.000   0.000  -0.000
   38       -0.000  -0.000   0.000  -0.000
   39       -0.000   0.000   0.000   0.000
   40        0.000  -0.000   0.000  -0.000
   41        0.000   0.000   0.000   0.000
   42        0.000  -0.000   0.000  -0.000
   43        0.000  -0.000   0.000  -0.000
   44       -0.000   0.000   0.000   0.000
   45       -0.000   0.000   0.000  -0.000
   46       -0.000  -0.000   0.000  -0.000
   47       -0.000   0.000   0.000   0.000
   48        0.000  -0.000   0.000   0.000
   49       -0.000  -0.000   0.000  -0.000
   50       -0.000  -0.000   0.000  -0.000
   51       -0.000  -0.000   0.000  -0.000
   52       -0.000   0.000   0.000   0.000
   53       -0.000  -0.000   0.000  -0.000
   54        0.000  -0.000   0.000  -0.000
   55        0.000  -0.000   0.000  -0.000
   56        0.000   0.000   0.000   0.000
   57       -0.000   0.000   0.000   0.000
   58        0.000   0.000   0.000   0.000
   59       -0.000   0.000   0.000   0.000
   60       -0.000  -0.000   0.000  -0.000
   61       -0.000  -0.000   0.000  -0.000
   62        0.000  -0.000   0.000   0.000
   63       -0.000   0.000   0.000  -0.000
   64       -0.000  -0.000   0.000  -0.000
   65        0.000  -0.000   0.000  -0.000
   66       -0.000   0.000   0.000  -0.000
   67        0.000   0.000   0.000   0.000
   68       -0.000  -0.000   0.000  -0.000
   69       -0.000  -0.000   0.000  -0.000
   70        0.000   0.000   0.000   0.000
   71        0.000   0.000   0.000   0.000
   72       -0.000   0.000   0.000   0.000
   73        0.000   0.000   0.000   0.000
   74        0.000  -0.000   0.000  -0.000
   75       -0.000   0.000   0.000   0.000
   76       -0.000  -0.000   0.000  -0.000
   77        0.000   0.000   0.000   0.000
   78       -0.000  -0.000   0.000  -0.000
   79        0.000  -0.000   0.000  -0.000
   80       -0.000  -0.000   0.000  -0.000
   81        0.000   0.000   0.000   0.000
   82        0.000  -0.000   0.000  -0.000
   83       -0.000   0.000   0.000   0.000
   84       -0.000  -0.000   0.000  -0.000
   85        0.000  -0.000   0.000  -0.000
   86       -0.000   0.000   0.000   0.000
   87        0.000  -0.000   0.000  -0.000
   88        0.000   0.000   0.000   0.000
   89       -0.000  -0.000   0.000  -0.000
   90       -0.000   0.000   0.000   0.000
   91       -0.000  -0.000   0.000  -0.000
   92        0.000  -0.000   0.000  -0.000
   93        0.000  -0.000   0.000  -0.000
   94       -0.000   0.000   0.000   0.000
   95       -0.000   0.000   0.000   0.000
   96        0.000   0.000   0.000   0.000
   97        0.000  -0.000   0.000   0.000
   98       -0.000   0.000   0.000   0.000
--------------------------------------------------
tot         -0.000   0.000   0.000   0.000
 

 total amount of memory used by VASP MPI-rank0   186778. kBytes
=======================================================================

   base      :      30000. kBytes
   nonlr-proj:      12034. kBytes
   fftplans  :      13978. kBytes
   grid      :      61270. kBytes
   one-center:         18. kBytes
   wavefun   :      69478. kBytes
 
  
  
 General timing and accounting informations for this job:
 ========================================================
  
                  Total CPU time used (sec):    16490.133
                            User time (sec):    15817.342
                          System time (sec):      672.791
                         Elapsed time (sec):    10448.770
  
                   Maximum memory used (kb):      762040.
                   Average memory used (kb):           0.
  
                          Minor page faults:      2921752
                          Major page faults:           18
                 Voluntary context switches:        79064
