 vasp.5.4.4.18Apr17-6-g9f103f2a35 (build May 01 2020 14:57:12) complex          
  
 executed on             LinuxIFC date 2020.10.08  23:31:09
 running on   48 total cores
 distrk:  each k-point on   12 cores,    4 groups
 distr:  one band on NCORES_PER_BAND=   1 cores,   12 groups


--------------------------------------------------------------------------------------------------------


 INCAR:
 POTCAR:    PAW_PBE B 06Sep2000                   
 POTCAR:    PAW_PBE N 08Apr2002                   
 POTCAR:    PAW_PBE C 08Apr2002                   
 POTCAR:    PAW_PBE F 08Apr2002                   
 POTCAR:    PAW_PBE O 08Apr2002                   

 ----------------------------------------------------------------------------- 
|                                                                             |
|           W    W    AA    RRRRR   N    N  II  N    N   GGGG   !!!           |
|           W    W   A  A   R    R  NN   N  II  NN   N  G    G  !!!           |
|           W    W  A    A  R    R  N N  N  II  N N  N  G       !!!           |
|           W WW W  AAAAAA  RRRRR   N  N N  II  N  N N  G  GGG   !            |
|           WW  WW  A    A  R   R   N   NN  II  N   NN  G    G                |
|           W    W  A    A  R    R  N    N  II  N    N   GGGG   !!!           |
|                                                                             |
|      For optimal performance we recommend to set                            |
|        NCORE= 4 - approx SQRT( number of cores)                             |
|      NCORE specifies how many cores store one orbital (NPAR=cpu/NCORE).     |
|      This setting can  greatly improve the performance of VASP for DFT.     |
|      The default,   NCORE=1            might be grossly inefficient         |
|      on modern multi-core architectures or massively parallel machines.     |
|      Do your own testing !!!!                                               |
|      Unfortunately you need to use the default for GW and RPA calculations. |
|      (for HF NCORE is supported but not extensively tested yet)             |
|                                                                             |
 ----------------------------------------------------------------------------- 


 ----------------------------------------------------------------------------- 
|                                                                             |
|           W    W    AA    RRRRR   N    N  II  N    N   GGGG   !!!           |
|           W    W   A  A   R    R  NN   N  II  NN   N  G    G  !!!           |
|           W    W  A    A  R    R  N N  N  II  N N  N  G       !!!           |
|           W WW W  AAAAAA  RRRRR   N  N N  II  N  N N  G  GGG   !            |
|           WW  WW  A    A  R   R   N   NN  II  N   NN  G    G                |
|           W    W  A    A  R    R  N    N  II  N    N   GGGG   !!!           |
|                                                                             |
|      You have enabled k-point parallelism (KPAR>1).                         |
|      This developmental code was originally  written by Paul Kent at ORNL,  |
|      and carefully double checked in Vienna.                                |
|      GW as well as linear response parallelism added by Martijn Marsman     |
|      and Georg Kresse.                                                      |
|      Carefully verify results versus KPAR=1.                                |
|      Report problems to Paul Kent and Vienna.                               |
|                                                                             |
 ----------------------------------------------------------------------------- 

 POTCAR:    PAW_PBE B 06Sep2000                   
   VRHFIN =B: s2p1                                                              
   LEXCH  = PE                                                                  
   EATOM  =    71.1703 eV,    5.2309 Ry                                         
                                                                                
   TITEL  = PAW_PBE B 06Sep2000                                                 
   LULTRA =        F    use ultrasoft PP ?                                      
   IUNSCR =        1    unscreen: 0-lin 1-nonlin 2-no                           
   RPACOR =    1.200    partial core radius                                     
   POMASS =   10.811; ZVAL   =    3.000    mass and valenz                      
   RCORE  =    1.700    outmost cutoff radius                                   
   RWIGS  =    1.710; RWIGS  =    0.905    wigner-seitz radius (au A)           
   ENMAX  =  318.614; ENMIN  =  238.960 eV                                      
   ICORE  =        2    local potential                                         
   LCOR   =        T    correct aug charges                                     
   LPAW   =        T    paw PP                                                  
   EAUG   =  535.514                                                            
   DEXC   =    0.000                                                            
   RMAX   =    1.732    core radius for proj-oper                               
   RAUG   =    1.300    factor for augmentation sphere                          
   RDEP   =    1.757    radius for radial grids                                 
   RDEPT  =    1.436    core radius for aug-charge                              
                                                                                
   Atomic configuration                                                         
    4 entries                                                                   
     n  l   j            E        occ.                                          
     1  0  0.50      -180.5896   2.0000                                         
     2  0  0.50        -9.4431   2.0000                                         
     2  1  0.50        -3.6068   1.0000                                         
     3  2  1.50        -4.0817   0.0000                                         
   Description                                                                  
     l       E           TYP  RCUT    TYP  RCUT                                 
     0     -9.4430752     23  1.500                                             
     0      0.8675899     23  1.500                                             
     1     -3.6067955     23  1.700                                             
     1      6.1086146     23  1.700                                             
     2     -4.0817478      7  1.700                                             
  local pseudopotential read in
  partial core-charges read in
  partial kinetic energy density read in
  atomic valenz-charges read in
  non local Contribution for L=           0  read in
    real space projection operators read in
  non local Contribution for L=           0  read in
    real space projection operators read in
  non local Contribution for L=           1  read in
    real space projection operators read in
  non local Contribution for L=           1  read in
    real space projection operators read in
    PAW grid and wavefunctions read in
 
   number of l-projection  operators is LMAX  =           4
   number of lm-projection operators is LMMAX =           8
 
 POTCAR:    PAW_PBE N 08Apr2002                   
   VRHFIN =N: s2p3                                                              
   LEXCH  = PE                                                                  
   EATOM  =   264.5486 eV,   19.4438 Ry                                         
                                                                                
   TITEL  = PAW_PBE N 08Apr2002                                                 
   LULTRA =        F    use ultrasoft PP ?                                      
   IUNSCR =        1    unscreen: 0-lin 1-nonlin 2-no                           
   RPACOR =    1.200    partial core radius                                     
   POMASS =   14.001; ZVAL   =    5.000    mass and valenz                      
   RCORE  =    1.500    outmost cutoff radius                                   
   RWIGS  =    1.400; RWIGS  =    0.741    wigner-seitz radius (au A)           
   ENMAX  =  400.000; ENMIN  =  300.000 eV                                      
   ICORE  =        2    local potential                                         
   LCOR   =        T    correct aug charges                                     
   LPAW   =        T    paw PP                                                  
   EAUG   =  627.112                                                            
   DEXC   =    0.000                                                            
   RMAX   =    1.529    core radius for proj-oper                               
   RAUG   =    1.300    factor for augmentation sphere                          
   RDEP   =    1.514    radius for radial grids                                 
   RDEPT  =    1.338    core radius for aug-charge                              
                                                                                
   Atomic configuration                                                         
    4 entries                                                                   
     n  l   j            E        occ.                                          
     1  0  0.50      -384.7179   2.0000                                         
     2  0  0.50       -18.5828   2.0000                                         
     2  1  0.50        -7.0898   3.0000                                         
     3  2  1.50        -6.8029   0.0000                                         
   Description                                                                  
     l       E           TYP  RCUT    TYP  RCUT                                 
     0    -18.5828119     23  1.200                                             
     0    -13.5018863     23  1.200                                             
     1     -7.0897853     23  1.500                                             
     1      9.5240782     23  1.500                                             
     2     -6.8029130      7  1.500                                             
  local pseudopotential read in
  partial core-charges read in
  partial kinetic energy density read in
  atomic valenz-charges read in
  non local Contribution for L=           0  read in
    real space projection operators read in
  non local Contribution for L=           0  read in
    real space projection operators read in
  non local Contribution for L=           1  read in
    real space projection operators read in
  non local Contribution for L=           1  read in
    real space projection operators read in
    PAW grid and wavefunctions read in
 
   number of l-projection  operators is LMAX  =           4
   number of lm-projection operators is LMMAX =           8
 
 POTCAR:    PAW_PBE C 08Apr2002                   
   VRHFIN =C: s2p2                                                              
   LEXCH  = PE                                                                  
   EATOM  =   147.1560 eV,   10.8157 Ry                                         
                                                                                
   TITEL  = PAW_PBE C 08Apr2002                                                 
   LULTRA =        F    use ultrasoft PP ?                                      
   IUNSCR =        1    unscreen: 0-lin 1-nonlin 2-no                           
   RPACOR =    1.200    partial core radius                                     
   POMASS =   12.011; ZVAL   =    4.000    mass and valenz                      
   RCORE  =    1.500    outmost cutoff radius                                   
   RWIGS  =    1.630; RWIGS  =    0.863    wigner-seitz radius (au A)           
   ENMAX  =  400.000; ENMIN  =  300.000 eV                                      
   ICORE  =        2    local potential                                         
   LCOR   =        T    correct aug charges                                     
   LPAW   =        T    paw PP                                                  
   EAUG   =  644.873                                                            
   DEXC   =    0.000                                                            
   RMAX   =    1.529    core radius for proj-oper                               
   RAUG   =    1.300    factor for augmentation sphere                          
   RDEP   =    1.501    radius for radial grids                                 
   RDEPT  =    1.300    core radius for aug-charge                              
                                                                                
   Atomic configuration                                                         
    4 entries                                                                   
     n  l   j            E        occ.                                          
     1  0  0.50      -273.3789   2.0000                                         
     2  0  0.50       -13.7508   2.0000                                         
     2  1  0.50        -5.2854   2.0000                                         
     3  2  1.50        -5.4423   0.0000                                         
   Description                                                                  
     l       E           TYP  RCUT    TYP  RCUT                                 
     0    -13.7508458     23  1.200                                             
     0     -8.2022199     23  1.200                                             
     1     -5.2854383     23  1.500                                             
     1     34.0145650     23  1.500                                             
     2     -5.4423304      7  1.500                                             
  local pseudopotential read in
  partial core-charges read in
  partial kinetic energy density read in
  atomic valenz-charges read in
  non local Contribution for L=           0  read in
    real space projection operators read in
  non local Contribution for L=           0  read in
    real space projection operators read in
  non local Contribution for L=           1  read in
    real space projection operators read in
  non local Contribution for L=           1  read in
    real space projection operators read in
    PAW grid and wavefunctions read in
 
   number of l-projection  operators is LMAX  =           4
   number of lm-projection operators is LMMAX =           8
 
 POTCAR:    PAW_PBE F 08Apr2002                   
   VRHFIN =F: s2p5                                                              
   LEXCH  = PE                                                                  
   EATOM  =   659.6475 eV,   48.4827 Ry                                         
                                                                                
   TITEL  = PAW_PBE F 08Apr2002                                                 
   LULTRA =        F    use ultrasoft PP ?                                      
   IUNSCR =        1    unscreen: 0-lin 1-nonlin 2-no                           
   RPACOR =    1.200    partial core radius                                     
   POMASS =   18.998; ZVAL   =    7.000    mass and valenz                      
   RCORE  =    1.520    outmost cutoff radius                                   
   RWIGS  =    1.500; RWIGS  =    0.794    wigner-seitz radius (au A)           
   ENMAX  =  400.000; ENMIN  =  300.000 eV                                      
   ICORE  =        2    local potential                                         
   LCOR   =        T    correct aug charges                                     
   LPAW   =        T    paw PP                                                  
   EAUG   =  613.614                                                            
   RMAX   =    1.555    core radius for proj-oper                               
   RAUG   =    1.300    factor for augmentation sphere                          
   RDEP   =    1.539    radius for radial grids                                 
   RDEPT  =    1.299    core radius for aug-charge                              
                                                                                
   Atomic configuration                                                         
    4 entries                                                                   
     n  l   j            E        occ.                                          
     1  0  0.50      -663.3661   2.0000                                         
     2  0  0.50       -29.8995   2.0000                                         
     2  1  0.50       -11.1114   5.0000                                         
     3  2  1.50       -10.8847   0.0000                                         
   Description                                                                  
     l       E           TYP  RCUT    TYP  RCUT                                 
     0    -29.8995018     23  1.200                                             
     0     -9.5240782     23  1.200                                             
     1    -11.1113914     23  1.520                                             
     1      1.3605826     23  1.520                                             
     2    -10.8846608      7  1.500                                             
  local pseudopotential read in
  partial core-charges read in
  partial kinetic energy density read in
  atomic valenz-charges read in
  non local Contribution for L=           0  read in
    real space projection operators read in
  non local Contribution for L=           0  read in
    real space projection operators read in
  non local Contribution for L=           1  read in
    real space projection operators read in
  non local Contribution for L=           1  read in
    real space projection operators read in
    PAW grid and wavefunctions read in
 
   number of l-projection  operators is LMAX  =           4
   number of lm-projection operators is LMMAX =           8
 
 POTCAR:    PAW_PBE O 08Apr2002                   
   VRHFIN =O: s2p4                                                              
   LEXCH  = PE                                                                  
   EATOM  =   432.3788 eV,   31.7789 Ry                                         
                                                                                
   TITEL  = PAW_PBE O 08Apr2002                                                 
   LULTRA =        F    use ultrasoft PP ?                                      
   IUNSCR =        1    unscreen: 0-lin 1-nonlin 2-no                           
   RPACOR =    1.200    partial core radius                                     
   POMASS =   16.000; ZVAL   =    6.000    mass and valenz                      
   RCORE  =    1.520    outmost cutoff radius                                   
   RWIGS  =    1.550; RWIGS  =    0.820    wigner-seitz radius (au A)           
   ENMAX  =  400.000; ENMIN  =  300.000 eV                                      
   ICORE  =        2    local potential                                         
   LCOR   =        T    correct aug charges                                     
   LPAW   =        T    paw PP                                                  
   EAUG   =  605.392                                                            
   DEXC   =    0.000                                                            
   RMAX   =    1.553    core radius for proj-oper                               
   RAUG   =    1.300    factor for augmentation sphere                          
   RDEP   =    1.550    radius for radial grids                                 
   RDEPT  =    1.329    core radius for aug-charge                              
                                                                                
   Atomic configuration                                                         
    4 entries                                                                   
     n  l   j            E        occ.                                          
     1  0  0.50      -514.6923   2.0000                                         
     2  0  0.50       -23.9615   2.0000                                         
     2  1  0.50        -9.0305   4.0000                                         
     3  2  1.50        -9.5241   0.0000                                         
   Description                                                                  
     l       E           TYP  RCUT    TYP  RCUT                                 
     0    -23.9615318     23  1.200                                             
     0     -9.5240782     23  1.200                                             
     1     -9.0304911     23  1.520                                             
     1      8.1634956     23  1.520                                             
     2     -9.5240782      7  1.500                                             
  local pseudopotential read in
  partial core-charges read in
  partial kinetic energy density read in
  kinetic energy density of atom read in
  atomic valenz-charges read in
  non local Contribution for L=           0  read in
    real space projection operators read in
  non local Contribution for L=           0  read in
    real space projection operators read in
  non local Contribution for L=           1  read in
    real space projection operators read in
  non local Contribution for L=           1  read in
    real space projection operators read in
    PAW grid and wavefunctions read in
 
   number of l-projection  operators is LMAX  =           4
   number of lm-projection operators is LMMAX =           8
 
 Optimization of the real space projectors (new method)

 maximal supplied QI-value         = 22.11
 optimisation between [QCUT,QGAM] = [ 11.94, 23.88] = [ 39.92,159.67] Ry 
 Optimized for a Real-space Cutoff    1.18 Angstroem

   l    n(q)    QCUT    max X(q) W(low)/X(q) W(high)/X(q)  e(spline) 
   0      8    11.939    53.033    0.11E-03    0.34E-03    0.60E-07
   0      8    11.939    34.740    0.11E-03    0.34E-03    0.59E-07
   1      8    11.939    30.949    0.22E-03    0.20E-03    0.17E-06
   1      8    11.939    19.518    0.20E-03    0.18E-03    0.16E-06
 Optimization of the real space projectors (new method)

 maximal supplied QI-value         = 25.13
 optimisation between [QCUT,QGAM] = [ 11.81, 23.88] = [ 39.08,159.64] Ry 
 Optimized for a Real-space Cutoff    1.41 Angstroem

   l    n(q)    QCUT    max X(q) W(low)/X(q) W(high)/X(q)  e(spline) 
   0     10    11.813    79.467    0.48E-04    0.30E-04    0.67E-06
   0     10    11.813    66.151    0.47E-04    0.30E-04    0.67E-06
   1     10    11.813    20.169    0.11E-03    0.17E-03    0.11E-05
   1     10    11.813    14.454    0.11E-03    0.17E-03    0.11E-05
 Optimization of the real space projectors (new method)

 maximal supplied QI-value         = 25.13
 optimisation between [QCUT,QGAM] = [ 11.81, 23.88] = [ 39.08,159.64] Ry 
 Optimized for a Real-space Cutoff    1.18 Angstroem

   l    n(q)    QCUT    max X(q) W(low)/X(q) W(high)/X(q)  e(spline) 
   0      8    11.813   115.676    0.10E-03    0.16E-03    0.35E-06
   0      8    11.813    87.132    0.10E-03    0.16E-03    0.35E-06
   1      8    11.813     4.429    0.16E-03    0.13E-04    0.22E-06
   1      8    11.813     2.733    0.13E-03    0.10E-04    0.18E-06
 Optimization of the real space projectors (new method)

 maximal supplied QI-value         = 24.76
 optimisation between [QCUT,QGAM] = [ 11.88, 24.01] = [ 39.54,161.47] Ry 
 Optimized for a Real-space Cutoff    1.18 Angstroem

   l    n(q)    QCUT    max X(q) W(low)/X(q) W(high)/X(q)  e(spline) 
   0      8    11.883    14.049    0.56E-04    0.86E-04    0.22E-06
   0      8    11.883     8.945    0.81E-04    0.11E-03    0.30E-06
   1      8    11.883     7.086    0.16E-03    0.15E-04    0.31E-06
   1      8    11.883     6.747    0.15E-03    0.14E-04    0.28E-06
 Optimization of the real space projectors (new method)

 maximal supplied QI-value         = 24.76
 optimisation between [QCUT,QGAM] = [ 11.88, 24.01] = [ 39.54,161.47] Ry 
 Optimized for a Real-space Cutoff    1.18 Angstroem

   l    n(q)    QCUT    max X(q) W(low)/X(q) W(high)/X(q)  e(spline) 
   0      8    11.883    20.381    0.86E-04    0.11E-03    0.31E-06
   0      8    11.883    15.268    0.94E-04    0.12E-03    0.33E-06
   1      8    11.883     5.964    0.19E-03    0.18E-04    0.33E-06
   1      8    11.883     5.382    0.17E-03    0.20E-04    0.29E-06
  PAW_PBE B 06Sep2000                   :
 energy of atom  1       EATOM=  -71.1703
 kinetic energy error for atom=    0.0009 (will be added to EATOM!!)
  PAW_PBE N 08Apr2002                   :
 energy of atom  2       EATOM= -264.5486
 kinetic energy error for atom=    0.0116 (will be added to EATOM!!)
  PAW_PBE C 08Apr2002                   :
 energy of atom  3       EATOM= -147.1560
 kinetic energy error for atom=    0.0066 (will be added to EATOM!!)
  PAW_PBE F 08Apr2002                   :
 energy of atom  4       EATOM= -659.6475
 kinetic energy error for atom=    0.0296 (will be added to EATOM!!)
  PAW_PBE O 08Apr2002                   :
 energy of atom  5       EATOM= -432.3788
 kinetic energy error for atom=    0.0194 (will be added to EATOM!!)
 
 
 POSCAR: B N C F O                               
  positions in direct lattice
  velocities in cartesian coordinates

 METAGGA = SCAN     LMAXTAU =  6    LMIXTAU =  F

 exchange correlation table for  LEXCH =        8
   RHO(1)=    0.500       N(1)  =     2000
   RHO(2)=  100.500       N(2)  =     4000
 


--------------------------------------------------------------------------------------------------------


 ion  position               nearest neighbor table
   1  0.111  0.056  0.500-  42 1.45  37 1.45  43 1.45
   2  0.111  0.222  0.500-  38 1.45  37 1.45  44 1.45
   3  0.111  0.389  0.500-  39 1.45  45 1.45  38 1.45
   4  0.111  0.556  0.500-  46 1.45  39 1.45  40 1.45
   5  0.111  0.722  0.500-  40 1.45  47 1.45  41 1.45
   6  0.111  0.889  0.500-  41 1.45  42 1.45  48 1.45
   7  0.278  0.056  0.500-  48 1.45  49 1.45  43 1.45
   8  0.278  0.222  0.500-  43 1.45  44 1.45  50 1.45
   9  0.278  0.389  0.500-  45 1.45  51 1.45  44 1.45
  10  0.278  0.556  0.500-  52 1.45  45 1.45  46 1.45
  11  0.278  0.722  0.500-  46 1.45  53 1.45  47 1.45
  12  0.278  0.889  0.500-  47 1.45  54 1.45  48 1.45
  13  0.444  0.056  0.500-  55 1.45  54 1.45  49 1.45
  14  0.444  0.222  0.500-  56 1.45  49 1.45  50 1.45
  15  0.444  0.389  0.500-  57 1.45  51 1.45  50 1.45
  16  0.444  0.556  0.500-  52 1.45  58 1.45  51 1.45
  17  0.444  0.722  0.500-  59 1.45  53 1.45  52 1.45
  18  0.444  0.889  0.500-  53 1.45  60 1.45  54 1.45
  19  0.611  0.056  0.500-  60 1.45  61 1.45  55 1.45
  20  0.611  0.222  0.500-  62 1.45  55 1.45  56 1.45
  21  0.611  0.389  0.500-  63 1.45  56 1.45  57 1.45
  22  0.611  0.556  0.500-  58 1.45  64 1.45  57 1.45
  23  0.611  0.722  0.500-  59 1.45  65 1.45  58 1.45
  24  0.611  0.889  0.500-  59 1.45  66 1.45  60 1.45
  25  0.778  0.056  0.500-  67 1.45  66 1.45  61 1.45
  26  0.778  0.222  0.500-  68 1.45  61 1.45  62 1.45
  27  0.778  0.389  0.500-  63 1.45  69 1.45  62 1.45
  28  0.778  0.556  0.500-  64 1.45  63 1.45  70 1.45
  29  0.778  0.722  0.500-  64 1.45  65 1.45  71 1.45
  30  0.778  0.889  0.500-  65 1.45  66 1.45  72 1.45
  31  0.944  0.056  0.500-  67 1.45  72 1.45  37 1.45
  32  0.944  0.222  0.500-  67 1.45  68 1.45  38 1.45
  33  0.944  0.389  0.500-  39 1.45  68 1.45  69 1.45
  34  0.944  0.556  0.500-  69 1.45  40 1.45  70 1.45
  35  0.944  0.722  0.500-  70 1.45  71 1.45  41 1.45
  36  0.944  0.889  0.500-  71 1.45  72 1.45  42 1.45
  37  0.056  0.111  0.500-   2 1.45   1 1.45  31 1.45
  38  0.056  0.278  0.500-   2 1.45   3 1.45  32 1.45
  39  0.056  0.444  0.500-  33 1.45   3 1.45   4 1.45
  40  0.056  0.611  0.500-   5 1.45  34 1.45   4 1.45
  41  0.056  0.778  0.500-   6 1.45  35 1.45   5 1.45
  42  0.056  0.944  0.500-   1 1.45   6 1.45  36 1.45
  43  0.222  0.111  0.500-   8 1.45   7 1.45   1 1.45
  44  0.222  0.278  0.500-   8 1.45   9 1.45   2 1.45
  45  0.222  0.444  0.500-   9 1.45  10 1.45   3 1.45
  46  0.222  0.611  0.500-  11 1.45   4 1.45  10 1.45
  47  0.222  0.778  0.500-  12 1.45   5 1.45  11 1.45
  48  0.222  0.944  0.500-   7 1.45   6 1.45  12 1.45
  49  0.389  0.111  0.500-  14 1.45   7 1.45  13 1.45
  50  0.389  0.278  0.500-   8 1.45  15 1.45  14 1.45
  51  0.389  0.444  0.500-   9 1.45  15 1.45  16 1.45
  52  0.389  0.611  0.500-  16 1.45  10 1.45  17 1.45
  53  0.389  0.778  0.500-  18 1.45  11 1.45  17 1.45
  54  0.389  0.944  0.500-  13 1.45  12 1.45  18 1.45
  55  0.556  0.111  0.500-  13 1.45  20 1.45  19 1.45
  56  0.556  0.278  0.500-  14 1.45  21 1.45  20 1.45
  57  0.556  0.444  0.500-  15 1.45  21 1.45  22 1.45
  58  0.556  0.611  0.500-  16 1.45  22 1.45  23 1.45
  59  0.556  0.778  0.500-  24 1.45  17 1.45  23 1.45
  60  0.556  0.944  0.500-  19 1.45  18 1.45  24 1.45
  61  0.722  0.111  0.500-  19 1.45  26 1.45  25 1.45
  62  0.722  0.278  0.500-  20 1.45  26 1.45  27 1.45
  63  0.722  0.444  0.500-  21 1.45  27 1.45  28 1.45
  64  0.722  0.611  0.500-  22 1.45  29 1.45  28 1.45
  65  0.722  0.778  0.500-  30 1.45  29 1.45  23 1.45
  66  0.722  0.944  0.500-  25 1.45  30 1.45  24 1.45
  67  0.889  0.111  0.500-  31 1.45  25 1.45  32 1.45
  68  0.889  0.278  0.500-  26 1.45  32 1.45  33 1.45
  69  0.889  0.444  0.500-  27 1.45  34 1.45  33 1.45
  70  0.889  0.611  0.500-  35 1.45  34 1.45  28 1.45
  71  0.889  0.778  0.500-  36 1.45  35 1.45  29 1.45
  72  0.889  0.944  0.500-  31 1.45  36 1.45  30 1.45
  73  0.373  0.314  0.673-  76 1.34  78 1.34  77 1.34  74 1.54
  74  0.354  0.317  0.630-  80 1.36  79 1.37  73 1.54  75 1.55
  75  0.343  0.409  0.618-  82 1.25  81 1.25  74 1.55
  76  0.461  0.396  0.684-  73 1.34
  77  0.377  0.229  0.682-  73 1.34
  78  0.296  0.312  0.693-  73 1.34
  79  0.434  0.318  0.612-  74 1.37
  80  0.268  0.226  0.622-  74 1.36
  81  0.424  0.491  0.612-  75 1.25
  82  0.254  0.394  0.615-  75 1.25
 

IMPORTANT INFORMATION: All symmetrisations will be switched off!
NOSYMM: (Re-)initialisation of all symmetry stuff for point group C_1.

 
 
 KPOINTS: K-Point Grid                            

Automatic generation of k-mesh.
Space group operators:
 irot       det(A)        alpha          n_x          n_y          n_z        tau_x        tau_y        tau_z
    1     1.000000     0.000000     1.000000     0.000000     0.000000     0.000000     0.000000     0.000000
 
 Subroutine IBZKPT returns following result:
 ===========================================
 
 Found      5 irreducible k-points:
 
 Following reciprocal coordinates:
            Coordinates               Weight
  0.000000  0.000000  0.000000      1.000000
  0.333333  0.000000  0.000000      2.000000
  0.000000  0.333333  0.000000      2.000000
  0.333333  0.333333  0.000000      2.000000
 -0.333333  0.333333  0.000000      2.000000
 
 Following cartesian coordinates:
            Coordinates               Weight
  0.000000  0.000000  0.000000      1.000000
  0.022114 -0.012768  0.000000      2.000000
  0.022114  0.012768  0.000000      2.000000
  0.044229  0.000000  0.000000      2.000000
  0.000000  0.025535  0.000000      2.000000
 


--------------------------------------------------------------------------------------------------------




 Dimension of arrays:
   k-points           NKPTS =      5   k-points in BZ     NKDIM =      5   number of bands    NBANDS=    264
   number of dos      NEDOS =   1200   number of ions     NIONS =     82
   non local maximal  LDIM  =      4   non local SUM 2l+1 LMDIM =      8
   total plane-waves  NPLWV = ******
   max r-space proj   IRMAX =   6598   max aug-charges    IRDMAX=   8974
   dimension x,y,z NGX =   120 NGY =  120 NGZ =  270
   dimension x,y,z NGXF=   240 NGYF=  240 NGZF=  540
   support grid    NGXF=   240 NGYF=  240 NGZF=  540
   ions per type =              36  36   3   5   2
   NGX,Y,Z   is equivalent  to a cutoff of  13.24, 13.24, 12.78 a.u.
   NGXF,Y,Z  is equivalent  to a cutoff of  26.47, 26.47, 25.57 a.u.

 SYSTEM =  SiC                                     
 POSCAR =  B N C F O                               

 Startparameter for this run:
   NWRITE =      2    write-flag & timer
   PREC   = accura    normal or accurate (medium, high low for compatibility)
   ISTART =      1    job   : 0-new  1-cont  2-samecut
   ICHARG =      0    charge: 1-file 2-atom 10-const
   ISPIN  =      2    spin polarized calculation?
   LNONCOLLINEAR =      F non collinear calculations
   LSORBIT =      F    spin-orbit coupling
   INIWAV =      1    electr: 0-lowe 1-rand  2-diag
   LASPH  =      T    aspherical Exc in radial PAW
   METAGGA=      F    non-selfconsistent MetaGGA calc.

 Electronic Relaxation 1
   ENCUT  =  550.0 eV  40.42 Ry    6.36 a.u.  28.82 28.82 67.15*2*pi/ulx,y,z
   ENINI  =  550.0     initial cutoff
   ENAUG  =  644.9 eV  augmentation charge cutoff
   NELM   =    100;   NELMIN=  2; NELMDL=  0     # of ELM steps 
   EDIFF  = 0.1E-04   stopping-criterion for ELM
   LREAL  =      T    real-space projection
   NLSPLINE    = F    spline interpolate recip. space projectors
   LCOMPAT=      F    compatible to vasp.4.4
   GGA_COMPAT  = T    GGA compatible to vasp.4.4-vasp.4.6
   LMAXPAW     = -100 max onsite density
   LMAXMIX     =    2 max onsite mixed and CHGCAR
   VOSKOWN=      0    Vosko Wilk Nusair interpolation
   ROPT   =   -0.00025  -0.00025  -0.00025  -0.00025
   ROPT   =   -0.00025
 Ionic relaxation
   EDIFFG = -.2E-01   stopping-criterion for IOM
   NSW    =    500    number of steps for IOM
   NBLOCK =      1;   KBLOCK =    500    inner block; outer block 
   IBRION =      2    ionic relax: 0-MD 1-quasi-New 2-CG
   NFREE  =      1    steps in history (QN), initial steepest desc. (CG)
   ISIF   =      2    stress and relaxation
   IWAVPR =     11    prediction:  0-non 1-charg 2-wave 3-comb
   ISYM   =      0    0-nonsym 1-usesym 2-fastsym
   LCORR  =      T    Harris-Foulkes like correction to forces

   POTIM  = 0.5000    time-step for ionic-motion
   TEIN   =    0.0    initial temperature
   TEBEG  =    0.0;   TEEND  =   0.0 temperature during run
   SMASS  =  -3.00    Nose mass-parameter (am)
   estimated Nose-frequenzy (Omega)   =  0.10E-29 period in steps =****** mass=  -0.519E-26a.u.
   SCALEE = 1.0000    scale energy and forces
   NPACO  =    256;   APACO  = 16.0  distance and # of slots for P.C.
   PSTRESS=    0.0 pullay stress

  Mass of Ions in am
   POMASS =  10.81 14.00 12.01 19.00 16.00
  Ionic Valenz
   ZVAL   =   3.00  5.00  4.00  7.00  6.00
  Atomic Wigner-Seitz radii
   RWIGS  =  -1.00 -1.00 -1.00 -1.00 -1.00
  virtual crystal weights 
   VCA    =   1.00  1.00  1.00  1.00  1.00
   NELECT =     346.4000    total number of electrons
   NUPDOWN=      -1.0000    fix difference up-down

 DOS related values:
   EMIN   =  10.00;   EMAX   =-10.00  energy-range for DOS
   EFERMI =   0.00
   ISMEAR =     0;   SIGMA  =   0.05  broadening in eV -4-tet -1-fermi 0-gaus

 Electronic relaxation 2 (details)
   IALGO  =     68    algorithm
   LDIAG  =      T    sub-space diagonalisation (order eigenvalues)
   LSUBROT=      F    optimize rotation matrix (better conditioning)
   TURBO    =      0    0=normal 1=particle mesh
   IRESTART =      0    0=no restart 2=restart with 2 vectors
   NREBOOT  =      0    no. of reboots
   NMIN     =      0    reboot dimension
   EREF     =   0.00    reference energy to select bands
   IMIX   =      4    mixing-type and parameters
     AMIX     =   0.40;   BMIX     =  1.00
     AMIX_MAG =   1.60;   BMIX_MAG =  1.00
     AMIN     =   0.10
     WC   =   100.;   INIMIX=   1;  MIXPRE=   1;  MAXMIX= -45

 Intra band minimization:
   WEIMIN = 0.0010     energy-eigenvalue tresh-hold
   EBREAK =  0.95E-08  absolut break condition
   DEPER  =   0.30     relativ break condition  

   TIME   =   0.40     timestep for ELM

  volume/ion in A,a.u.               =      84.26       568.60
  Fermi-wavevector in a.u.,A,eV,Ry     =   0.603659  1.140751  4.958028  0.364405
  Thomas-Fermi vector in A             =   1.656723
 
 Write flags
   LWAVE        =      T    write WAVECAR
   LDOWNSAMPLE  =      F    k-point downsampling of WAVECAR
   LCHARG       =      F    write CHGCAR
   LVTOT        =      F    write LOCPOT, total local potential
   LVHAR        =      T    write LOCPOT, Hartree potential only
   LELF         =      F    write electronic localiz. function (ELF)
   LORBIT       =     11    0 simple, 1 ext, 2 COOP (PROOUT), +10 PAW based schemes


 Dipole corrections
   LMONO  =      F    monopole corrections only (constant potential shift)
   LDIPOL =      F    correct potential (dipole corrections)
   IDIPOL =      0    1-x, 2-y, 3-z, 4-all directions 
   EPSILON=  1.0000000 bulk dielectric constant

 Exchange correlation treatment:
   GGA     =    --    GGA type
   LEXCH   =     8    internal setting for exchange type
   VOSKOWN=      0    Vosko Wilk Nusair interpolation
   LHFCALC =     F    Hartree Fock is set to
   LHFONE  =     F    Hartree Fock one center treatment
   AEXX    =    0.0000 exact exchange contribution

 Linear response parameters
   LEPSILON=     F    determine dielectric tensor
   LRPA    =     F    only Hartree local field effects (RPA)
   LNABLA  =     F    use nabla operator in PAW spheres
   LVEL    =     F    velocity operator in full k-point grid
   LINTERFAST=   F  fast interpolation
   KINTER  =     0    interpolate to denser k-point grid
   CSHIFT  =0.1000    complex shift for real part using Kramers Kronig
   OMEGAMAX=  -1.0    maximum frequency
   DEG_THRESHOLD= 0.2000000E-02 threshold for treating states as degnerate
   RTIME   =   -0.100 relaxation time in fs
  (WPLASMAI=    0.000 imaginary part of plasma frequency in eV, 0.658/RTIME)
   DFIELD  = 0.0000000 0.0000000 0.0000000 field for delta impulse in time
 
 Orbital magnetization related:
   ORBITALMAG=     F  switch on orbital magnetization
   LCHIMAG   =     F  perturbation theory with respect to B field
   DQ        =  0.001000  dq finite difference perturbation B field
   LLRAUG    =     F  two centre corrections for induced B field

 Solvation model:
   LSOL    =     T         switch on solvation model
   EB_K    = 78.400000     relative permittivity of the bulk solvent
   SIGMA_K =  0.600000     width of the dielectric cavity
   NC_K    =  0.002500     cutoff charge density
   TAU     =  0.000000     cavity surface tension
   LAMBDA_D_K    =  3.040000     Debye length in Angstroms
   LRHOB     =     F     write boundcharge  density
   LRHOION     =     F     write ioniccharge density



--------------------------------------------------------------------------------------------------------


 conjugate gradient relaxation of ions
   using selective dynamics as specified on POSCAR
 charge density and potential will be updated during run
 spin polarized calculation
 RMM-DIIS sequential band-by-band and
  variant of blocked Davidson during initial phase
 perform sub-space diagonalisation
    before iterative eigenvector-optimisation
 modified Broyden-mixing scheme, WC =      100.0
 initial mixing is a Kerker type mixing with AMIX =  0.4000 and BMIX =      1.0000
 Hartree-type preconditioning will be used
 using additional bands           90
 real space projection scheme for non local part
 use partial core corrections
 calculate Harris-corrections to forces 
   (improved forces if not selfconsistent)
 use gradient corrections 
 use of overlap-Matrix (Vanderbilt PP)
 Gauss-broadening in eV      SIGMA  =   0.05


--------------------------------------------------------------------------------------------------------


  energy-cutoff  :      550.00
  volume of cell :     6909.18
      direct lattice vectors                 reciprocal lattice vectors
     7.536550057-13.053746059  0.000000000     0.066343353 -0.038303181  0.000000000
     7.536550057 13.053746059  0.000000000     0.066343353  0.038303181  0.000000000
     0.000000000  0.000000000 35.114664386     0.000000000  0.000000000  0.028478131

  length of vectors
    15.073150730 15.073150730 35.114664386     0.076606620  0.076606620  0.028478131


 
 old parameters found on file WAVECAR:
  energy-cutoff  :      550.00
  volume of cell :     6909.18
      direct lattice vectors                 reciprocal lattice vectors
     7.536550057-13.053746059  0.000000000     0.066343353 -0.038303181  0.000000000
     7.536550057 13.053746059  0.000000000     0.066343353  0.038303181  0.000000000
     0.000000000  0.000000000 35.114664386     0.000000000  0.000000000  0.028478131

  length of vectors

 
 k-points in units of 2pi/SCALE and weight: K-Point Grid                            
   0.00000000  0.00000000  0.00000000       0.111
   0.02211445 -0.01276773  0.00000000       0.222
   0.02211445  0.01276773  0.00000000       0.222
   0.04422890  0.00000000  0.00000000       0.222
   0.00000000  0.02553545  0.00000000       0.222
 
 k-points in reciprocal lattice and weights: K-Point Grid                            
   0.00000000  0.00000000  0.00000000       0.111
   0.33333333  0.00000000  0.00000000       0.222
   0.00000000  0.33333333  0.00000000       0.222
   0.33333333  0.33333333  0.00000000       0.222
  -0.33333333  0.33333333  0.00000000       0.222
 
 position of ions in fractional coordinates (direct lattice) 
   0.11110545  0.05555244  0.50001087
   0.11110073  0.22221862  0.49998109
   0.11111060  0.38888967  0.49994245
   0.11111266  0.55555429  0.49998034
   0.11111152  0.72222094  0.50001417
   0.11111063  0.88888825  0.50002013
   0.27777812  0.05555168  0.50001788
   0.27777056  0.22221258  0.49997027
   0.27777132  0.38889910  0.49989098
   0.27777892  0.55555550  0.49992381
   0.27777782  0.72221940  0.49998979
   0.27777777  0.88888702  0.50002091
   0.44444585  0.05555363  0.50002285
   0.44444820  0.22221724  0.50001017
   0.44445143  0.38889803  0.49993122
   0.44444333  0.55555768  0.49992526
   0.44444452  0.72221967  0.49996703
   0.44444450  0.88888624  0.50001055
   0.61111112  0.05555389  0.50001740
   0.61111232  0.22222047  0.50001827
   0.61111253  0.38888974  0.49999473
   0.61110899  0.55555790  0.49996793
   0.61110745  0.72221945  0.49997699
   0.61110988  0.88888594  0.50000504
   0.77777792  0.05555444  0.50001583
   0.77777821  0.22222204  0.50001479
   0.77777737  0.38888922  0.50001702
   0.77777539  0.55555500  0.50000569
   0.77777459  0.72222004  0.50000316
   0.77777541  0.88888607  0.50001382
   0.94444205  0.05555465  0.50001372
   0.94444384  0.22222154  0.49999712
   0.94444614  0.38888951  0.50000142
   0.94444432  0.55555519  0.50001585
   0.94444316  0.72222092  0.50001746
   0.94444297  0.88888750  0.50001962
   0.05555539  0.11111177  0.49999960
   0.05555646  0.27777824  0.49996269
   0.05555531  0.44444382  0.49996774
   0.05555575  0.61111015  0.50000459
   0.05555540  0.77777696  0.50001666
   0.05555476  0.94444372  0.50001636
   0.22222161  0.11111021  0.50000197
   0.22222640  0.27778158  0.49995230
   0.22222074  0.44444530  0.49986925
   0.22222287  0.61111002  0.49995524
   0.22222265  0.77777678  0.50001020
   0.22222236  0.94444341  0.50001939
   0.38888896  0.11111126  0.50001863
   0.38888537  0.27778055  0.49998322
   0.38887889  0.44443353  0.49988100
   0.38888836  0.61110669  0.49991580
   0.38888904  0.77777607  0.49998590
   0.38888918  0.94444348  0.50001935
   0.55555572  0.11111041  0.50001738
   0.55555340  0.27777706  0.50000804
   0.55555198  0.44444274  0.49995249
   0.55554837  0.61110589  0.49993818
   0.55555468  0.77777647  0.49997690
   0.55555538  0.94444326  0.50001033
   0.72222232  0.11111056  0.50001330
   0.72222195  0.27777731  0.50001562
   0.72222134  0.44444360  0.50000350
   0.72221937  0.61110950  0.49998673
   0.72221979  0.77777565  0.49999602
   0.72222178  0.94444332  0.50001196
   0.88888847  0.11111047  0.50000822
   0.88888906  0.27777753  0.50000188
   0.88888848  0.44444392  0.50001454
   0.88888790  0.61111007  0.50001388
   0.88888745  0.77777653  0.50001330
   0.88888791  0.94444349  0.50001760
   0.37252131  0.31353176  0.67314441
   0.35372853  0.31667079  0.63028348
   0.34255510  0.40930560  0.61795408
   0.46091230  0.39586792  0.68377890
   0.37737716  0.22924332  0.68194655
   0.29592368  0.31184058  0.69332405
   0.43390431  0.31750162  0.61179744
   0.26770200  0.22640801  0.62160718
   0.42420627  0.49119690  0.61248069
   0.25361799  0.39422163  0.61524308
 
 position of ions in cartesian coordinates  (Angst):
   1.25602551 -0.72517480 17.55771388
   2.51207797  1.45050474 17.55666831
   3.76827704  3.62605742 17.55531140
   5.02436885  5.80162825 17.55664182
   6.28045178  7.97726723 17.55782972
   7.53654161 10.15291161 17.55803889
   2.51215667 -2.90088748 17.55795987
   3.76814797 -0.72523969 17.55628834
   5.02439497  1.45063373 17.55350383
   6.28046657  3.62602492 17.55465670
   7.53652912  5.80162760 17.55697384
   8.79262757  7.97726505 17.55806658
   3.76827108 -5.07650033 17.55813466
   5.02435747 -2.90094652 17.55768931
   6.28057991 -0.72517995 17.55491708
   7.53655773  1.45045851 17.55470759
   8.79262306  3.62600632 17.55617436
  10.04871384  5.80162955 17.55770251
   5.02435427 -7.25210304 17.55794329
   6.28045428 -5.07649556 17.55797373
   7.53656715 -2.90083987 17.55714712
   8.79264341 -0.72514972 17.55620595
  10.04868499  1.45042782 17.55652434
  11.30479362  3.62601815 17.55750911
   6.28045108 -9.42772188 17.55788794
   7.53655194 -7.25208912 17.55785169
   8.79264111 -5.07644719 17.55792999
  10.04871121 -2.90080849 17.55753213
  11.30478461 -0.72519510 17.55744314
  12.56087767  1.45041028 17.55781748
   7.53652517-11.60331035 17.55781389
   8.79263204 -9.42770661 17.55723122
  10.04875086 -7.25209517 17.55738202
  11.30482141 -5.07645986 17.55788881
  12.56089728 -2.90083273 17.55794534
  13.81698691 -0.72520696 17.55802100
   1.25609536  0.72521892 17.55731806
   2.51219368  2.90082661 17.55602214
   3.76826842  5.07645190 17.55619945
   5.02436095  7.25206610 17.55749325
   6.28045103  9.42769678 17.55791714
   7.53653862 11.60333079 17.55790684
   2.51217188 -1.45041999 17.55740151
   3.76833515  0.72520322 17.55565739
   5.02436203  2.90086293 17.55274102
   6.28045503  5.07643401 17.55576047
   7.53654571  7.25206250 17.55769044
   8.79263497  9.42769008 17.55801317
   3.76827663 -3.62603955 17.55798632
   5.02436109 -1.45033418 17.55674284
   6.28030081  0.72519614 17.55315346
   7.53651278  2.90078161 17.55437549
   8.79263001  5.07643248 17.55683711
  10.04872834  7.25206486 17.55801175
   5.02436266 -5.80167632 17.55794255
   6.28043673 -3.62602175 17.55761443
   7.53651027 -1.45039170 17.55566401
   8.79254821  0.72523367 17.55516146
  10.04871696  2.90082686 17.55652099
  11.30481479  5.07644364 17.55769506
   6.28045494 -7.97729775 17.55779907
   7.53654446 -5.80166749 17.55788083
   8.79262872 -3.62603997 17.55745509
  10.04869973 -1.45040003 17.55686605
  11.30479073  0.72521217 17.55719231
  12.56090493  2.90082352 17.55775221
   7.53654211-10.15291647 17.55762077
   8.79264120 -7.97729474 17.55739820
  10.04872634 -5.80166644 17.55784264
  11.30480980 -3.62604132 17.55781947
  12.56089651 -1.45041365 17.55779937
  13.81699382  0.72520842 17.55795034
   5.17047329 -0.77003463 23.63723988
   5.05249803 -0.48374231 22.13219290
   5.66643577  0.87134415 21.69925005
   6.45716703 -0.84907276 24.01066651
   4.57182561 -1.93370145 23.94632439
   4.58044573  0.20777511 24.34584119
   5.66300837 -1.51949118 21.48306181
   3.72388486 -0.53904123 21.82752762
   6.89898181  0.87447874 21.50705374
   4.88247578  1.83540423 21.60405418
 


--------------------------------------------------------------------------------------------------------


 k-point  1 :   0.0000 0.0000 0.0000  plane waves:  202395
 k-point  2 :   0.3333 0.0000 0.0000  plane waves:  202358
 k-point  3 :   0.0000 0.3333 0.0000  plane waves:  202358
 k-point  4 :   0.3333 0.3333 0.0000  plane waves:  202335
 k-point  5 :  -0.3333 0.3333 0.0000  plane waves:  202358

 maximum and minimum number of plane-waves per node :    202395   202335

 maximum number of plane-waves:    202395
 maximum index in each direction: 
   IXMAX=   29   IYMAX=   28   IZMAX=   67
   IXMIN=  -29   IYMIN=  -29   IZMIN=  -67


 serial   3D FFT for wavefunctions
 parallel 3D FFT for charge:
    minimum data exchange during FFTs selected (reduces bandwidth)


 total amount of memory used by VASP MPI-rank0  1757870. kBytes
=======================================================================

   base      :      30000. kBytes
   nonlr-proj:      37382. kBytes
   fftplans  :     102830. kBytes
   grid      :     872370. kBytes
   one-center:        503. kBytes
   wavefun   :     714785. kBytes
 
     INWAV:  cpu time   20.9187: real time   22.1493
 Broyden mixing: mesh for mixing (old mesh)
   NGX = 57   NGY = 57   NGZ =135
  (NGX  =240   NGY  =240   NGZ  =540)
  gives a total of 438615 points

 charge density for first step will be calculated from the start-wavefunctions


--------------------------------------------------------------------------------------------------------


 Maximum index for non-local projection operator         6369
 Maximum index for augmentation-charges          736 (set IRDMAX)


--------------------------------------------------------------------------------------------------------


 initial charge from wavefunction
 First call to EWALD:  gamma=   0.093
 Maximum number of real-space cells 4x 4x 2
 Maximum number of reciprocal cells 2x 2x 5

    FEWALD:  cpu time    0.0036: real time    0.0330


--------------------------------------- Iteration      1(   1)  ---------------------------------------


    POTLOK:  cpu time  127.6181: real time  128.7043
    SETDIJ:  cpu time    1.0924: real time   22.9695
     EDDAV:  cpu time  297.3416: real time  196.9474
       DOS:  cpu time    0.1040: real time    0.0830
    CHARGE:  cpu time   39.7615: real time   38.6354
    MIXING:  cpu time    0.1888: real time    0.1967
    --------------------------------------------
      LOOP:  cpu time  466.1064: real time  387.5364

 eigenvalue-minimisations  :  4620
 total energy-change (2. order) :-0.7754739E+03  (-0.2368323E-04)
 number of electron     346.3999976 magnetization       0.2730901
 augmentation part       16.0583135 magnetization       0.0435260

 Broyden mixing:
  rms(total) = 0.22682E-01    rms(broyden)= 0.22652E-01
  rms(prec ) = 0.23456E-01
  weight for this iteration     100.00

 Free energy of the ion-electron system (eV)
  ---------------------------------------------------
  alpha Z        PSCENC =        92.14382556
  Ewald energy   TEWEN  =    110888.49781167
  -Hartree energ DENC   =   -124696.09258741
  -exchange      EXHF   =         0.00000000
  -V(xc)+E(xc)   XCENC  =      1587.41093294
  PAW double counting   =     40410.71180905   -40577.59248478
  entropy T*S    EENTRO =        -0.04592834
  eigenvalues    EBANDS =     -5057.71693882
  atomic energy  EATOM  =     16689.68470767
  Solvation  Ediel_sol  =      -112.47500496
  ---------------------------------------------------
  free energy    TOTEN  =      -775.47385742 eV

  energy without entropy =     -775.42792908  energy(sigma->0) =     -775.45089325


--------------------------------------------------------------------------------------------------------




--------------------------------------- Iteration      1(   2)  ---------------------------------------


    POTLOK:  cpu time  101.6435: real time  101.8763
    SETDIJ:  cpu time    1.0142: real time    0.6211
    EDDIAG:  cpu time   58.9021: real time   48.3885
  RMM-DIIS:  cpu time  375.5109: real time  272.2382
    ORTHCH:  cpu time    2.7399: real time    1.3753
       DOS:  cpu time    0.0034: real time    0.0017
    CHARGE:  cpu time   40.0090: real time   38.7560
    MIXING:  cpu time    0.1541: real time    0.1595
    --------------------------------------------
      LOOP:  cpu time  579.9772: real time  463.4166

 eigenvalue-minimisations  :  5243
 total energy-change (2. order) :-0.1377560E-02  (-0.4116213E-03)
 number of electron     346.3999976 magnetization       0.2721292
 augmentation part       16.0739629 magnetization       0.1564017

 Broyden mixing:
  rms(total) = 0.10777E+00    rms(broyden)= 0.10764E+00
  rms(prec ) = 0.11066E+00
  weight for this iteration     100.00

 eigenvalues of (default mixing * dielectric matrix)
  average eigenvalue GAMMA=   0.1677
  0.1677

 Free energy of the ion-electron system (eV)
  ---------------------------------------------------
  alpha Z        PSCENC =        92.14382556
  Ewald energy   TEWEN  =    110888.49781167
  -Hartree energ DENC   =   -124696.23532996
  -exchange      EXHF   =         0.00000000
  -V(xc)+E(xc)   XCENC  =      1587.38890009
  PAW double counting   =     40410.82211804   -40577.70032404
  entropy T*S    EENTRO =        -0.04404778
  eigenvalues    EBANDS =     -5057.74268624
  atomic energy  EATOM  =     16689.68470767
  Solvation  Ediel_sol  =      -112.29020998
  ---------------------------------------------------
  free energy    TOTEN  =      -775.47523498 eV

  energy without entropy =     -775.43118720  energy(sigma->0) =     -775.45321109


--------------------------------------------------------------------------------------------------------




--------------------------------------- Iteration      1(   3)  ---------------------------------------


    POTLOK:  cpu time  104.3452: real time  104.5493
    SETDIJ:  cpu time    0.6641: real time    0.4381
    EDDIAG:  cpu time   58.7258: real time   48.2401
  RMM-DIIS:  cpu time  377.4314: real time  273.1332
    ORTHCH:  cpu time    2.7598: real time    1.3876
       DOS:  cpu time    0.0038: real time    0.0019
    CHARGE:  cpu time   39.6109: real time   38.4253
    MIXING:  cpu time    0.1490: real time    0.1494
    --------------------------------------------
      LOOP:  cpu time  583.6899: real time  466.3249

 eigenvalue-minimisations  :  5280
 total energy-change (2. order) : 0.3281526E-02  (-0.6723723E-03)
 number of electron     346.3999976 magnetization       0.2721368
 augmentation part       16.0646712 magnetization       0.0842803

 Broyden mixing:
  rms(total) = 0.26883E-01    rms(broyden)= 0.26788E-01
  rms(prec ) = 0.27564E-01
  weight for this iteration     100.00

 eigenvalues of (default mixing * dielectric matrix)
  average eigenvalue GAMMA=   0.1602
  0.1602  0.1602

 Free energy of the ion-electron system (eV)
  ---------------------------------------------------
  alpha Z        PSCENC =        92.14382556
  Ewald energy   TEWEN  =    110888.49781167
  -Hartree energ DENC   =   -124696.15655635
  -exchange      EXHF   =         0.00000000
  -V(xc)+E(xc)   XCENC  =      1587.44723073
  PAW double counting   =     40410.78730368   -40577.66741551
  entropy T*S    EENTRO =        -0.04556085
  eigenvalues    EBANDS =     -5057.74336360
  atomic energy  EATOM  =     16689.68470767
  Solvation  Ediel_sol  =      -112.41993646
  ---------------------------------------------------
  free energy    TOTEN  =      -775.47195345 eV

  energy without entropy =     -775.42639261  energy(sigma->0) =     -775.44917303


--------------------------------------------------------------------------------------------------------




--------------------------------------- Iteration      1(   4)  ---------------------------------------


    POTLOK:  cpu time  100.3343: real time  100.5323
    SETDIJ:  cpu time    0.7713: real time    0.5150
    EDDIAG:  cpu time   58.7387: real time   48.2682
  RMM-DIIS:  cpu time  376.7673: real time  273.0356
    ORTHCH:  cpu time    2.7574: real time    1.3873
       DOS:  cpu time    0.0046: real time    0.0023
    CHARGE:  cpu time   39.5442: real time   38.3603
    MIXING:  cpu time    0.1522: real time    0.1525
    --------------------------------------------
      LOOP:  cpu time  579.0701: real time  462.2535

 eigenvalue-minimisations  :  5265
 total energy-change (2. order) :-0.8884239E-03  (-0.2000099E-03)
 number of electron     346.3999976 magnetization       0.2725149
 augmentation part       16.0621797 magnetization       0.0665615

 Broyden mixing:
  rms(total) = 0.77924E-02    rms(broyden)= 0.76858E-02
  rms(prec ) = 0.78758E-02
  weight for this iteration     100.00

 eigenvalues of (default mixing * dielectric matrix)
  average eigenvalue GAMMA=   0.3420
  0.4631  0.2815  0.2815

 Free energy of the ion-electron system (eV)
  ---------------------------------------------------
  alpha Z        PSCENC =        92.14382556
  Ewald energy   TEWEN  =    110888.49781167
  -Hartree energ DENC   =   -124696.15605818
  -exchange      EXHF   =         0.00000000
  -V(xc)+E(xc)   XCENC  =      1587.42184808
  PAW double counting   =     40410.75439359   -40577.63478541
  entropy T*S    EENTRO =        -0.04575510
  eigenvalues    EBANDS =     -5057.71566286
  atomic energy  EATOM  =     16689.68470767
  Solvation  Ediel_sol  =      -112.42316690
  ---------------------------------------------------
  free energy    TOTEN  =      -775.47284188 eV

  energy without entropy =     -775.42708677  energy(sigma->0) =     -775.44996432


--------------------------------------------------------------------------------------------------------




--------------------------------------- Iteration      1(   5)  ---------------------------------------


    POTLOK:  cpu time   97.5201: real time   97.7120
    SETDIJ:  cpu time    0.6070: real time    0.4103
    EDDIAG:  cpu time   58.8083: real time   48.3156
  RMM-DIIS:  cpu time  333.0188: real time  241.9817
    ORTHCH:  cpu time    2.7514: real time    1.3831
       DOS:  cpu time    0.0033: real time    0.0017
    CHARGE:  cpu time   39.6709: real time   38.4963
    MIXING:  cpu time    0.1523: real time    0.1526
    --------------------------------------------
      LOOP:  cpu time  532.5320: real time  428.4533

 eigenvalue-minimisations  :  4329
 total energy-change (2. order) :-0.7032903E-03  (-0.6514226E-04)
 number of electron     346.3999976 magnetization       0.2727786
 augmentation part       16.0617101 magnetization       0.0602668

 Broyden mixing:
  rms(total) = 0.39031E-02    rms(broyden)= 0.38828E-02
  rms(prec ) = 0.39973E-02
  weight for this iteration     100.00

 eigenvalues of (default mixing * dielectric matrix)
  average eigenvalue GAMMA=   0.4449
  0.6491  0.6491  0.2406  0.2406

 Free energy of the ion-electron system (eV)
  ---------------------------------------------------
  alpha Z        PSCENC =        92.14382556
  Ewald energy   TEWEN  =    110888.49781167
  -Hartree energ DENC   =   -124696.17230547
  -exchange      EXHF   =         0.00000000
  -V(xc)+E(xc)   XCENC  =      1587.41365143
  PAW double counting   =     40410.72799692   -40577.60844533
  entropy T*S    EENTRO =        -0.04577261
  eigenvalues    EBANDS =     -5057.70365300
  atomic energy  EATOM  =     16689.68470767
  Solvation  Ediel_sol  =      -112.41136201
  ---------------------------------------------------
  free energy    TOTEN  =      -775.47354517 eV

  energy without entropy =     -775.42777256  energy(sigma->0) =     -775.45065886


--------------------------------------------------------------------------------------------------------




--------------------------------------- Iteration      1(   6)  ---------------------------------------


    POTLOK:  cpu time   93.7189: real time   93.9053
    SETDIJ:  cpu time    0.6832: real time    0.4472
    EDDIAG:  cpu time   58.9100: real time   48.4154
  RMM-DIIS:  cpu time  319.9799: real time  233.7623
    ORTHCH:  cpu time    2.7512: real time    1.3843
       DOS:  cpu time    0.0046: real time    0.0023
    CHARGE:  cpu time   39.7577: real time   38.5907
    MIXING:  cpu time    0.1905: real time    0.1909
    --------------------------------------------
      LOOP:  cpu time  515.9961: real time  416.6985

 eigenvalue-minimisations  :  4062
 total energy-change (2. order) :-0.1564927E-03  (-0.1363375E-04)
 number of electron     346.3999976 magnetization       0.2726943
 augmentation part       16.0612454 magnetization       0.0538365

 Broyden mixing:
  rms(total) = 0.99960E-03    rms(broyden)= 0.96664E-03
  rms(prec ) = 0.97006E-03
  weight for this iteration     100.00

 eigenvalues of (default mixing * dielectric matrix)
  average eigenvalue GAMMA=   0.5473
  0.7318  0.7318  0.2444  0.2444  0.7840

 Free energy of the ion-electron system (eV)
  ---------------------------------------------------
  alpha Z        PSCENC =        92.14382556
  Ewald energy   TEWEN  =    110888.49781167
  -Hartree energ DENC   =   -124696.17046421
  -exchange      EXHF   =         0.00000000
  -V(xc)+E(xc)   XCENC  =      1587.41141727
  PAW double counting   =     40410.71699526   -40577.59748741
  entropy T*S    EENTRO =        -0.04579785
  eigenvalues    EBANDS =     -5057.70161700
  atomic energy  EATOM  =     16689.68470767
  Solvation  Ediel_sol  =      -112.41309262
  ---------------------------------------------------
  free energy    TOTEN  =      -775.47370166 eV

  energy without entropy =     -775.42790381  energy(sigma->0) =     -775.45080273


--------------------------------------------------------------------------------------------------------




--------------------------------------- Iteration      1(   7)  ---------------------------------------


    POTLOK:  cpu time   88.3011: real time   88.4769
    SETDIJ:  cpu time    0.6043: real time    0.4077
    EDDIAG:  cpu time   58.8174: real time   48.3340
  RMM-DIIS:  cpu time  306.3566: real time  222.9848
    ORTHCH:  cpu time    2.7562: real time    1.3864
       DOS:  cpu time    0.0047: real time    0.0023
    CHARGE:  cpu time   39.5815: real time   38.3943
    MIXING:  cpu time    0.1600: real time    0.1604
    --------------------------------------------
      LOOP:  cpu time  496.5818: real time  400.1468

 eigenvalue-minimisations  :  3853
 total energy-change (2. order) :-0.8971703E-04  (-0.7263930E-05)
 number of electron     346.3999976 magnetization       0.2718695
 augmentation part       16.0612305 magnetization       0.0540417

 Broyden mixing:
  rms(total) = 0.10851E-02    rms(broyden)= 0.10838E-02
  rms(prec ) = 0.10888E-02
  weight for this iteration     100.00

 eigenvalues of (default mixing * dielectric matrix)
  average eigenvalue GAMMA=   0.6578
  1.8324  0.6665  0.6665  0.2457  0.2457  0.2902

 Free energy of the ion-electron system (eV)
  ---------------------------------------------------
  alpha Z        PSCENC =        92.14382556
  Ewald energy   TEWEN  =    110888.49781167
  -Hartree energ DENC   =   -124696.17007639
  -exchange      EXHF   =         0.00000000
  -V(xc)+E(xc)   XCENC  =      1587.40954980
  PAW double counting   =     40410.71750663   -40577.59800179
  entropy T*S    EENTRO =        -0.04579764
  eigenvalues    EBANDS =     -5057.70024242
  atomic energy  EATOM  =     16689.68470767
  Solvation  Ediel_sol  =      -112.41307447
  ---------------------------------------------------
  free energy    TOTEN  =      -775.47379138 eV

  energy without entropy =     -775.42799374  energy(sigma->0) =     -775.45089256


--------------------------------------------------------------------------------------------------------




--------------------------------------- Iteration      1(   8)  ---------------------------------------


    POTLOK:  cpu time   87.2743: real time   87.4456
    SETDIJ:  cpu time    0.6051: real time    0.4085
    EDDIAG:  cpu time   58.8406: real time   48.3398
  RMM-DIIS:  cpu time  314.6706: real time  229.2181
    ORTHCH:  cpu time    2.7548: real time    1.3825
       DOS:  cpu time    0.0046: real time    0.0023
    CHARGE:  cpu time   39.6567: real time   38.4633
    MIXING:  cpu time    0.1567: real time    0.1570
    --------------------------------------------
      LOOP:  cpu time  503.9634: real time  405.4171

 eigenvalue-minimisations  :  3950
 total energy-change (2. order) :-0.1572098E-04  (-0.2464756E-05)
 number of electron     346.3999976 magnetization       0.2710313
 augmentation part       16.0612217 magnetization       0.0609196

 Broyden mixing:
  rms(total) = 0.91572E-03    rms(broyden)= 0.91419E-03
  rms(prec ) = 0.92190E-03
  weight for this iteration     100.00

 eigenvalues of (default mixing * dielectric matrix)
  average eigenvalue GAMMA=   0.7775
  2.4978  0.6845  0.6845  0.2454  0.2454  0.5425  0.5425

 Free energy of the ion-electron system (eV)
  ---------------------------------------------------
  alpha Z        PSCENC =        92.14382556
  Ewald energy   TEWEN  =    110888.49781167
  -Hartree energ DENC   =   -124696.16092107
  -exchange      EXHF   =         0.00000000
  -V(xc)+E(xc)   XCENC  =      1587.40933063
  PAW double counting   =     40410.72849864   -40577.60898048
  entropy T*S    EENTRO =        -0.04580215
  eigenvalues    EBANDS =     -5057.70035562
  atomic energy  EATOM  =     16689.68470767
  Solvation  Ediel_sol  =      -112.42192196
  ---------------------------------------------------
  free energy    TOTEN  =      -775.47380710 eV

  energy without entropy =     -775.42800495  energy(sigma->0) =     -775.45090602


--------------------------------------------------------------------------------------------------------




--------------------------------------- Iteration      1(   9)  ---------------------------------------


    POTLOK:  cpu time   87.5715: real time   87.7419
    SETDIJ:  cpu time    0.6077: real time    0.4110
    EDDIAG:  cpu time   58.7597: real time   48.2703
  RMM-DIIS:  cpu time  303.3337: real time  220.6102
    ORTHCH:  cpu time    2.7602: real time    1.3887
       DOS:  cpu time    0.0034: real time    0.0017
    --------------------------------------------
      LOOP:  cpu time  453.0362: real time  358.4238

 eigenvalue-minimisations  :  3755
 total energy-change (2. order) : 0.1739834E-05  (-0.1905761E-05)
 number of electron     346.3999976 magnetization       0.2710313
 augmentation part       16.0612217 magnetization       0.0609196

 Free energy of the ion-electron system (eV)
  ---------------------------------------------------
  alpha Z        PSCENC =        92.14382556
  Ewald energy   TEWEN  =    110888.49781167
  -Hartree energ DENC   =   -124696.15039304
  -exchange      EXHF   =         0.00000000
  -V(xc)+E(xc)   XCENC  =      1587.40934784
  PAW double counting   =     40410.72328351   -40577.60377251
  entropy T*S    EENTRO =        -0.04579527
  eigenvalues    EBANDS =     -5057.70214241
  atomic energy  EATOM  =     16689.68470767
  Solvation  Ediel_sol  =      -112.43067838
  ---------------------------------------------------
  free energy    TOTEN  =      -775.47380536 eV

  energy without entropy =     -775.42801009  energy(sigma->0) =     -775.45090772


--------------------------------------------------------------------------------------------------------




 average (electrostatic) potential at core
  the test charge radii are     0.7672  0.7089  0.6991  0.7167  0.7215
  (the norm of the test charge is              1.0000)
       1 -39.0056       2 -39.0057       3 -39.0032       4 -39.0034       5 -39.0043
       6 -39.0049       7 -39.0061       8 -39.0083       9 -39.0050      10 -39.0024
      11 -39.0035      12 -39.0047      13 -39.0052      14 -39.0072      15 -39.0064
      16 -39.0030      17 -39.0030      18 -39.0042      19 -39.0046      20 -39.0052
      21 -39.0052      22 -39.0038      23 -39.0032      24 -39.0038      25 -39.0043
      26 -39.0045      27 -39.0044      28 -39.0041      29 -39.0039      30 -39.0040
      31 -39.0045      32 -39.0041      33 -39.0039      34 -39.0041      35 -39.0044
      36 -39.0045      37 -76.6021      38 -76.6014      39 -76.6004      40 -76.6012
      41 -76.6017      42 -76.6018      43 -76.6042      44 -76.6065      45 -76.6009
      46 -76.6002      47 -76.6013      48 -76.6020      49 -76.6030      50 -76.6076
      51 -76.6042      52 -76.6000      53 -76.6009      54 -76.6018      55 -76.6019
      56 -76.6032      57 -76.6026      58 -76.6002      59 -76.6004      60 -76.6013
      61 -76.6017      62 -76.6017      63 -76.6013      64 -76.6008      65 -76.6008
      66 -76.6012      67 -76.6012      68 -76.6015      69 -76.6013      70 -76.6013
      71 -76.6015      72 -76.6016      73 -67.4890      74 -65.6918      75 -64.1022
      76 -91.9966      77 -91.9636      78 -92.0006      79 -91.4999      80 -91.5018
      81 -84.3132      82 -84.3131
 
 
 
 E-fermi :  -6.6713     XC(G=0):  -1.3784     alpha+bet : -1.1425


 spin component 1

 k-point     1 :       0.0000    0.0000    0.0000
  band No.  band energies     occupation 
      1     -35.7201      1.00000
      2     -34.2152      1.00000
      3     -33.3970      1.00000
      4     -33.3296      1.00000
      5     -32.6922      1.00000
      6     -28.7438      1.00000
      7     -26.4435      1.00000
      8     -25.2300      1.00000
      9     -24.6876      1.00000
     10     -24.6864      1.00000
     11     -24.6861      1.00000
     12     -24.6858      1.00000
     13     -24.6852      1.00000
     14     -24.6852      1.00000
     15     -23.6761      1.00000
     16     -23.6757      1.00000
     17     -23.6756      1.00000
     18     -23.6752      1.00000
     19     -23.6752      1.00000
     20     -23.6750      1.00000
     21     -23.2378      1.00000
     22     -23.2375      1.00000
     23     -23.2373      1.00000
     24     -23.2371      1.00000
     25     -23.2370      1.00000
     26     -23.2369      1.00000
     27     -22.1841      1.00000
     28     -22.1836      1.00000
     29     -22.1830      1.00000
     30     -22.1830      1.00000
     31     -22.1828      1.00000
     32     -22.1826      1.00000
     33     -22.1824      1.00000
     34     -22.1824      1.00000
     35     -22.1821      1.00000
     36     -22.1819      1.00000
     37     -22.1818      1.00000
     38     -22.1817      1.00000
     39     -22.0962      1.00000
     40     -22.0962      1.00000
     41     -22.0962      1.00000
     42     -21.5208      1.00000
     43     -21.5207      1.00000
     44     -20.9867      1.00000
     45     -18.2733      1.00000
     46     -16.4993      1.00000
     47     -16.0493      1.00000
     48     -16.0312      1.00000
     49     -15.7804      1.00000
     50     -15.7804      1.00000
     51     -15.7804      1.00000
     52     -15.2821      1.00000
     53     -14.9310      1.00000
     54     -14.9308      1.00000
     55     -14.9305      1.00000
     56     -14.9301      1.00000
     57     -14.9300      1.00000
     58     -14.9297      1.00000
     59     -14.9297      1.00000
     60     -14.9296      1.00000
     61     -14.9293      1.00000
     62     -14.9293      1.00000
     63     -14.9291      1.00000
     64     -14.9290      1.00000
     65     -14.7582      1.00000
     66     -14.6713      1.00000
     67     -14.6712      1.00000
     68     -14.0608      1.00000
     69     -14.0608      1.00000
     70     -13.7256      1.00000
     71     -13.7256      1.00000
     72     -13.7255      1.00000
     73     -13.7253      1.00000
     74     -13.7253      1.00000
     75     -13.7252      1.00000
     76     -12.9415      1.00000
     77     -12.4473      1.00000
     78     -12.4433      1.00000
     79     -12.3375      1.00000
     80     -12.3246      1.00000
     81     -12.3246      1.00000
     82     -12.3246      1.00000
     83     -12.3245      1.00000
     84     -12.3245      1.00000
     85     -12.3239      1.00000
     86     -12.0688      1.00000
     87     -12.0687      1.00000
     88     -12.0685      1.00000
     89     -12.0682      1.00000
     90     -12.0681      1.00000
     91     -12.0678      1.00000
     92     -12.0677      1.00000
     93     -12.0676      1.00000
     94     -12.0673      1.00000
     95     -12.0672      1.00000
     96     -12.0672      1.00000
     97     -12.0671      1.00000
     98     -11.8375      1.00000
     99     -11.7376      1.00000
    100     -11.5808      1.00000
    101     -11.5349      1.00000
    102     -11.3717      1.00000
    103     -11.1627      1.00000
    104     -11.1131      1.00000
    105     -11.1063      1.00000
    106     -11.1061      1.00000
    107     -11.1056      1.00000
    108     -11.1049      1.00000
    109     -11.0991      1.00000
    110     -10.8923      1.00000
    111     -10.8446      1.00000
    112     -10.8445      1.00000
    113     -10.8445      1.00000
    114     -10.8048      1.00000
    115     -10.7293      1.00000
    116     -10.6186      1.00000
    117     -10.6186      1.00000
    118     -10.6185      1.00000
    119     -10.6184      1.00000
    120     -10.6184      1.00000
    121     -10.6183      1.00000
    122     -10.2720      1.00000
    123     -10.2719      1.00000
    124     -10.2719      1.00000
    125     -10.2716      1.00000
    126     -10.2715      1.00000
    127     -10.2715      1.00000
    128     -10.0195      1.00000
    129     -10.0194      1.00000
    130     -10.0192      1.00000
    131     -10.0189      1.00000
    132     -10.0187      1.00000
    133     -10.0184      1.00000
    134      -9.9425      1.00000
    135      -9.7311      1.00000
    136      -9.7304      1.00000
    137      -9.7301      1.00000
    138      -9.7298      1.00000
    139      -9.7295      1.00000
    140      -9.7288      1.00000
    141      -9.1193      1.00000
    142      -9.1190      1.00000
    143      -9.1182      1.00000
    144      -9.1180      1.00000
    145      -9.1179      1.00000
    146      -9.1177      1.00000
    147      -8.8712      1.00000
    148      -8.8710      1.00000
    149      -8.8708      1.00000
    150      -8.8705      1.00000
    151      -8.8702      1.00000
    152      -8.8701      1.00000
    153      -7.9571      1.00000
    154      -7.9570      1.00000
    155      -7.6459      1.00000
    156      -7.5918      1.00000
    157      -7.5908      1.00000
    158      -7.5901      1.00000
    159      -7.5899      1.00000
    160      -7.5895      1.00000
    161      -7.5894      1.00000
    162      -7.5892      1.00000
    163      -7.5889      1.00000
    164      -7.5887      1.00000
    165      -7.5883      1.00000
    166      -7.5880      1.00000
    167      -7.5657      1.00000
    168      -7.4371      1.00000
    169      -7.4371      1.00000
    170      -7.4356      1.00000
    171      -7.3496      1.00000
    172      -7.2243      1.00000
    173      -6.5436      0.00015
    174      -6.5434      0.00015
    175      -1.3884      0.00000
    176      -1.1470      0.00000
    177      -1.1463      0.00000
    178      -1.0678      0.00000
    179      -1.0673      0.00000
    180      -1.0643      0.00000
    181      -0.9238      0.00000
    182      -0.3747      0.00000
    183      -0.3738      0.00000
    184      -0.3710      0.00000
    185      -0.3685      0.00000
    186      -0.3678      0.00000
    187      -0.3678      0.00000
    188      -0.3672      0.00000
    189      -0.3672      0.00000
    190      -0.3669      0.00000
    191      -0.3666      0.00000
    192      -0.3663      0.00000
    193      -0.3662      0.00000
    194      -0.2589      0.00000
    195      -0.1860      0.00000
    196      -0.1247      0.00000
    197      -0.0446      0.00000
    198      -0.0341      0.00000
    199      -0.0285      0.00000
    200      -0.0207      0.00000
    201       0.0067      0.00000
    202       0.1011      0.00000
    203       0.1414      0.00000
    204       0.3290      0.00000
    205       0.5440      0.00000
    206       0.6010      0.00000
    207       0.6126      0.00000
    208       0.6207      0.00000
    209       0.6396      0.00000
    210       0.6934      0.00000
    211       0.6945      0.00000
    212       0.6991      0.00000
    213       0.7000      0.00000
    214       0.7017      0.00000
    215       0.7018      0.00000
    216       0.7184      0.00000
    217       0.7868      0.00000
    218       0.8359      0.00000
    219       0.9491      0.00000
    220       0.9622      0.00000
    221       0.9635      0.00000
    222       0.9680      0.00000
    223       0.9710      0.00000
    224       0.9808      0.00000
    225       0.9980      0.00000
    226       1.0316      0.00000
    227       1.0457      0.00000
    228       1.0505      0.00000
    229       1.0591      0.00000
    230       1.0655      0.00000
    231       1.2590      0.00000
    232       1.2611      0.00000
    233       1.2635      0.00000
    234       1.2656      0.00000
    235       1.2686      0.00000
    236       1.2707      0.00000
    237       1.4850      0.00000
    238       1.5265      0.00000
    239       1.5268      0.00000
    240       1.5577      0.00000
    241       1.5614      0.00000
    242       1.5703      0.00000
    243       1.5784      0.00000
    244       1.6532      0.00000
    245       1.6740      0.00000
    246       1.6796      0.00000
    247       1.6967      0.00000
    248       1.6990      0.00000
    249       1.7089      0.00000
    250       1.7240      0.00000
    251       1.7334      0.00000
    252       1.7405      0.00000
    253       1.7409      0.00000
    254       1.7665      0.00000
    255       1.7756      0.00000
    256       1.7996      0.00000
    257       1.9315      0.00000
    258       1.9411      0.00000
    259       1.9567      0.00000
    260       1.9611      0.00000
    261       1.9855      0.00000
    262       2.0040      0.00000
    263       2.0378      0.00000
    264       2.3749      0.00000

 k-point     2 :       0.3333    0.0000    0.0000
  band No.  band energies     occupation 
      1     -35.7201      1.00000
      2     -34.2152      1.00000
      3     -33.3970      1.00000
      4     -33.3296      1.00000
      5     -32.6922      1.00000
      6     -28.7438      1.00000
      7     -26.4435      1.00000
      8     -25.1685      1.00000
      9     -24.9855      1.00000
     10     -24.8052      1.00000
     11     -24.8046      1.00000
     12     -24.4522      1.00000
     13     -24.4516      1.00000
     14     -24.2802      1.00000
     15     -24.1105      1.00000
     16     -24.1099      1.00000
     17     -23.7863      1.00000
     18     -23.6251      1.00000
     19     -23.6250      1.00000
     20     -23.4763      1.00000
     21     -23.4762      1.00000
     22     -23.1736      1.00000
     23     -23.1730      1.00000
     24     -22.9234      1.00000
     25     -22.9233      1.00000
     26     -22.6945      1.00000
     27     -22.6495      1.00000
     28     -22.6489      1.00000
     29     -22.5593      1.00000
     30     -22.5592      1.00000
     31     -22.2657      1.00000
     32     -22.2068      1.00000
     33     -22.2068      1.00000
     34     -22.1446      1.00000
     35     -22.1445      1.00000
     36     -22.1101      1.00000
     37     -22.1101      1.00000
     38     -21.8936      1.00000
     39     -21.8931      1.00000
     40     -21.8451      1.00000
     41     -21.8451      1.00000
     42     -21.6072      1.00000
     43     -21.6071      1.00000
     44     -20.9867      1.00000
     45     -18.2733      1.00000
     46     -16.4993      1.00000
     47     -16.0493      1.00000
     48     -16.0312      1.00000
     49     -15.6726      1.00000
     50     -15.6726      1.00000
     51     -15.5060      1.00000
     52     -15.3780      1.00000
     53     -15.3774      1.00000
     54     -15.3680      1.00000
     55     -15.3679      1.00000
[...]
   0.265E+01 0.481E+01 0.710E+02   -.259E+01 -.485E+01 -.701E+02   -.444E-03 0.757E-03 0.457E-03   -.292E-03 0.404E-03 -.236E-02
   -.660E+01 0.185E+02 0.801E+02   0.663E+01 -.184E+02 -.792E+02   -.195E-02 0.678E-03 -.168E-02   -.379E-03 -.178E-03 -.234E-02
   -.245E+02 0.227E+02 0.919E+02   0.243E+02 -.223E+02 -.908E+02   -.210E-02 0.329E-03 -.194E-02   0.468E-03 -.127E-02 -.275E-02
   -.323E+02 0.100E+02 0.917E+02   0.318E+02 -.970E+01 -.905E+02   0.138E-02 -.754E-03 -.542E-03   0.184E-02 -.145E-02 -.342E-02
   -.202E+02 -.318E+01 0.798E+02   0.197E+02 0.321E+01 -.787E+02   0.266E-02 -.778E-03 -.353E-02   0.190E-02 -.300E-03 -.325E-02
   -.307E+01 -.436E+01 0.707E+02   0.292E+01 0.426E+01 -.698E+02   0.898E-03 0.128E-03 -.377E-02   0.660E-03 0.377E-03 -.268E-02
   0.191E+02 -.104E+02 0.784E+02   -.187E+02 0.103E+02 -.774E+02   -.975E-03 -.593E-03 -.344E-02   -.136E-02 0.347E-03 -.295E-02
   0.992E+01 -.938E+01 0.767E+02   -.963E+01 0.915E+01 -.757E+02   -.179E-02 0.464E-03 -.175E-02   -.140E-02 0.105E-02 -.305E-02
   -.469E+01 0.346E-01 0.737E+02   0.474E+01 -.162E+00 -.728E+02   -.341E-03 0.130E-02 -.682E-02   -.444E-03 0.746E-03 -.271E-02
   -.112E+02 0.607E+01 0.728E+02   0.110E+02 -.601E+01 -.720E+02   0.127E-02 0.267E-03 -.397E-02   0.439E-03 -.771E-04 -.249E-02
   -.306E+01 0.390E+01 0.733E+02   0.292E+01 -.379E+01 -.724E+02   0.177E-02 -.531E-03 -.296E-02   0.637E-03 -.433E-03 -.248E-02
   0.125E+02 -.324E+01 0.759E+02   -.124E+02 0.327E+01 -.750E+02   0.775E-03 -.630E-03 -.527E-02   -.200E-03 -.278E-03 -.260E-02
   0.400E+00 0.218E+02 -.419E+03   -.101E+01 -.194E+02 0.409E+03   0.846E+00 -.171E+01 0.102E+02   -.267E-02 -.905E-02 0.781E-02
   -.740E+01 -.370E+02 -.317E+03   0.133E+02 0.476E+02 0.322E+03   -.543E+01 -.941E+01 -.399E+01   -.633E-02 -.189E-01 0.449E-02
   -.333E+02 -.958E+02 -.305E+03   0.330E+02 0.953E+02 0.307E+03   0.987E+00 0.199E+01 -.203E+00   -.494E-03 -.294E-01 0.456E-02
   -.536E+03 0.851E+02 -.916E+03   0.593E+03 -.874E+02 0.932E+03   -.555E+02 0.354E+01 -.165E+02   -.653E-03 -.131E-01 0.142E-01
   0.246E+03 0.526E+03 -.875E+03   -.271E+03 -.575E+03 0.890E+03   0.255E+02 0.496E+02 -.137E+02   -.218E-02 -.863E-02 0.729E-02
   0.247E+03 -.358E+03 -.104E+04   -.272E+03 0.401E+03 0.107E+04   0.253E+02 -.416E+02 -.309E+02   -.532E-02 -.112E-01 0.162E-01
   -.213E+03 0.432E+03 -.311E+03   0.238E+03 -.471E+03 0.288E+03   -.242E+02 0.402E+02 0.266E+02   -.753E-02 -.231E-01 -.312E-02
   0.562E+03 0.411E+02 -.439E+03   -.615E+03 -.405E+02 0.429E+03   0.525E+02 0.149E+01 0.132E+02   -.136E-01 -.250E-01 -.736E-03
   -.449E+03 -.155E+03 -.429E+03   0.502E+03 0.157E+03 0.423E+03   -.505E+02 -.477E+00 0.818E+01   0.164E-01 -.130E-01 -.389E-02
   0.187E+03 -.450E+03 -.464E+03   -.220E+03 0.492E+03 0.462E+03   0.320E+02 -.398E+02 0.417E+01   -.132E-01 0.177E-02 -.168E-02
 -----------------------------------------------------------------------------------------------
   -.145E+01 -.363E+01 0.308E+01   0.853E-13 -.114E-12 -.239E-11   0.149E+01 0.378E+01 -.291E+01   -.357E-01 -.150E+00 -.171E+00
 
 
 POSITION                                       TOTAL-FORCE (eV/Angst)
 -----------------------------------------------------------------------------------
      1.25603     -0.72517     17.55772         0.000070     -0.000013      0.000461
      2.51209      1.45050     17.55668         0.000392     -0.000125      0.001329
      3.76829      3.62605     17.55532         0.000214     -0.000283      0.001057
      5.02437      5.80162     17.55664        -0.000015     -0.000117      0.000003
      6.28045      7.97727     17.55783        -0.000035     -0.000028     -0.000029
      7.53654     10.15291     17.55804        -0.000059     -0.000041      0.000308
      2.51216     -2.90088     17.55796         0.000007      0.000058      0.000613
      3.76815     -0.72523     17.55631         0.000104      0.000242      0.002125
      5.02440      1.45063     17.55354         0.000079     -0.000092      0.004776
      6.28046      3.62602     17.55467        -0.000073     -0.000308      0.002079
      7.53653      5.80162     17.55697        -0.000082     -0.000119     -0.000173
      8.79263      7.97726     17.55807        -0.000071     -0.000034     -0.000066
      3.76827     -5.07650     17.55814        -0.000049     -0.000008      0.000308
      5.02436     -2.90094     17.55770         0.000018      0.000295      0.001646
      6.28058     -0.72517     17.55495        -0.000081     -0.000127      0.003946
      7.53655      1.45045     17.55474        -0.000298     -0.000126      0.003800
      8.79261      3.62600     17.55618        -0.000323     -0.000262      0.000377
     10.04871      5.80163     17.55770        -0.000064     -0.000054     -0.000237
      5.02435     -7.25210     17.55795        -0.000039     -0.000043      0.000241
      6.28045     -5.07649     17.55798        -0.000022      0.000005      0.000450
      7.53657     -2.90083     17.55716        -0.000100      0.000312      0.001079
      8.79264     -0.72514     17.55621        -0.000338      0.000190      0.001029
     10.04868      1.45042     17.55653        -0.000286     -0.000102      0.000455
     11.30479      3.62602     17.55751        -0.000044     -0.000055     -0.000124
      6.28045     -9.42772     17.55789        -0.000044     -0.000045      0.000068
      7.53655     -7.25209     17.55785        -0.000014     -0.000052      0.000050
      8.79264     -5.07645     17.55793         0.000001     -0.000022     -0.000124
     10.04871     -2.90081     17.55753        -0.000047     -0.000022      0.000091
     11.30478     -0.72519     17.55744        -0.000061     -0.000026     -0.000011
     12.56088      1.45041     17.55782        -0.000042     -0.000027     -0.000243
      7.53653    -11.60331     17.55781         0.000005     -0.000040      0.000021
      8.79264     -9.42771     17.55723         0.000095     -0.000089      0.000134
     10.04875     -7.25210     17.55738         0.000026     -0.000080     -0.000245
     11.30482     -5.07646     17.55789        -0.000045     -0.000045     -0.000226
     12.56090     -2.90083     17.55795        -0.000048     -0.000035      0.000173
     13.81699     -0.72521     17.55802        -0.000056     -0.000014      0.000029
      1.25609      0.72522     17.55732        -0.000060     -0.000025      0.000475
      2.51218      2.90083     17.55603        -0.000178      0.000044      0.000950
      3.76827      5.07646     17.55620        -0.000033      0.000040      0.000138
      5.02436      7.25207     17.55749        -0.000016      0.000050     -0.000260
      6.28045      9.42770     17.55792        -0.000050      0.000029      0.000305
      7.53654     11.60333     17.55791        -0.000056     -0.000022      0.000206
      2.51217     -1.45042     17.55741        -0.000153     -0.000077      0.000846
      3.76832      0.72520     17.55568        -0.000375     -0.000038      0.002637
      5.02436      2.90088     17.55276        -0.000104      0.000261      0.002854
      6.28046      5.07644     17.55576        -0.000005      0.000053      0.000405
      7.53655      7.25206     17.55769        -0.000057      0.000028     -0.000295
      8.79263      9.42769     17.55801        -0.000042      0.000000      0.000232
      3.76828     -3.62604     17.55799        -0.000062     -0.000053      0.000794
      5.02435     -1.45035     17.55677        -0.000276     -0.000358      0.002861
      6.28030      0.72519     17.55319         0.000036     -0.000038      0.004618
      7.53652      2.90079     17.55439         0.000178      0.000176      0.002253
      8.79263      5.07643     17.55683        -0.000025     -0.000066     -0.000321
     10.04873      7.25207     17.55801         0.000004      0.000034     -0.000118
      5.02436     -5.80168     17.55795        -0.000038     -0.000018      0.000336
      6.28044     -3.62603     17.55762        -0.000019     -0.000102      0.001103
      7.53652     -1.45040     17.55568         0.000044     -0.000220      0.002171
      8.79256      0.72523     17.55518         0.000218     -0.000066      0.001894
     10.04872      2.90083     17.55652         0.000012     -0.000009      0.000006
     11.30482      5.07644     17.55769         0.000035      0.000016     -0.000072
      6.28045     -7.97730     17.55780        -0.000066      0.000024      0.000301
      7.53654     -5.80167     17.55788        -0.000115     -0.000022      0.000013
      8.79263     -3.62604     17.55746        -0.000059      0.000016      0.000148
     10.04870     -1.45040     17.55687        -0.000016     -0.000067      0.000232
     11.30479      0.72521     17.55719        -0.000065      0.000025     -0.000204
     12.56091      2.90082     17.55775        -0.000022      0.000063     -0.000124
      7.53654    -10.15292     17.55762        -0.000052      0.000039     -0.000063
      8.79264     -7.97729     17.55740        -0.000090     -0.000014     -0.000186
     10.04873     -5.80167     17.55784        -0.000025     -0.000004     -0.000404
     11.30481     -3.62604     17.55782         0.000013      0.000012     -0.000044
     12.56090     -1.45041     17.55780         0.000001     -0.000035      0.000035
     13.81699      0.72521     17.55795        -0.000032     -0.000008     -0.000212
      5.17045     -0.77002     23.63706        -0.002013     -0.000163     -0.013627
      5.05253     -0.48370     22.13218         0.004130      0.006476     -0.004615
      5.66660      0.87152     21.69913         0.007727      0.014258     -0.009675
      6.45719     -0.84907     24.01064        -0.000070      0.001108     -0.004573
      4.57185     -1.93375     23.94644         0.003808     -0.002934      0.010791
      4.58040      0.20777     24.34580        -0.004406     -0.001938     -0.006703
      5.66297     -1.51948     21.48302        -0.004062      0.000687     -0.005638
      3.72392     -0.53904     21.82747         0.003129      0.000396     -0.006342
      6.89883      0.87441     21.50701        -0.001369     -0.007834     -0.008030
      4.88248      1.83528     21.60406        -0.004000     -0.008392     -0.000272
 -----------------------------------------------------------------------------------
    total drift:                                0.002058      0.003031      0.005081


--------------------------------------------------------------------------------------------------------



  FREE ENERGIE OF THE ION-ELECTRON SYSTEM (eV)
  ---------------------------------------------------
  free  energy   TOTEN  =      -775.47377419 eV

  energy  without entropy=     -775.42799010  energy(sigma->0) =     -775.45088215
 
 d Force = 0.7385198E-04[-0.674E-04, 0.215E-03]  d Energy = 0.1090970E-03-0.352E-04
 d Force = 0.1410382E+01[ 0.141E+01, 0.141E+01]  d Ewald  = 0.1410382E+01-0.252E-06


--------------------------------------------------------------------------------------------------------


    POTLOK:  cpu time   88.8782: real time   88.7337


--------------------------------------------------------------------------------------------------------




--------------------------------------------------------------------------------------------------------


  
 reached required accuracy - stopping structural energy minimisation
 writing wavefunctions
     LOOP+:  cpu time 5762.1170: real time 4699.4688
    4ORBIT:  cpu time    0.0000: real time    0.0000
 


 total charge     
 
# of ion       s       p       d       tot
------------------------------------------
    1        0.743   1.392   0.000   2.135
    2        0.743   1.391   0.000   2.135
    3        0.743   1.392   0.000   2.135
    4        0.744   1.392   0.000   2.135
    5        0.744   1.392   0.000   2.135
    6        0.744   1.392   0.000   2.135
    7        0.744   1.392   0.000   2.135
    8        0.744   1.392   0.000   2.135
    9        0.744   1.392   0.000   2.135
   10        0.743   1.391   0.000   2.135
   11        0.744   1.392   0.000   2.135
   12        0.744   1.392   0.000   2.135
   13        0.744   1.392   0.000   2.135
   14        0.743   1.392   0.000   2.135
   15        0.744   1.392   0.000   2.135
   16        0.743   1.391   0.000   2.135
   17        0.743   1.392   0.000   2.135
   18        0.744   1.392   0.000   2.135
   19        0.744   1.392   0.000   2.135
   20        0.744   1.392   0.000   2.135
   21        0.743   1.392   0.000   2.135
   22        0.743   1.391   0.000   2.135
   23        0.743   1.391   0.000   2.135
   24        0.744   1.392   0.000   2.135
   25        0.744   1.392   0.000   2.135
   26        0.744   1.392   0.000   2.135
   27        0.744   1.392   0.000   2.135
   28        0.744   1.392   0.000   2.135
   29        0.744   1.392   0.000   2.135
   30        0.744   1.392   0.000   2.135
   31        0.744   1.392   0.000   2.135
   32        0.744   1.392   0.000   2.135
   33        0.744   1.392   0.000   2.135
   34        0.744   1.392   0.000   2.135
   35        0.744   1.392   0.000   2.135
   36        0.744   1.392   0.000   2.135
   37        1.240   2.816   0.000   4.056
   38        1.240   2.816   0.000   4.055
   39        1.240   2.816   0.000   4.056
   40        1.240   2.816   0.000   4.055
   41        1.240   2.816   0.000   4.055
   42        1.240   2.816   0.000   4.056
   43        1.240   2.816   0.000   4.055
   44        1.240   2.816   0.000   4.055
   45        1.240   2.816   0.000   4.055
   46        1.240   2.816   0.000   4.055
   47        1.240   2.816   0.000   4.056
   48        1.240   2.816   0.000   4.056
   49        1.240   2.816   0.000   4.056
   50        1.240   2.816   0.000   4.055
   51        1.240   2.816   0.000   4.055
   52        1.240   2.816   0.000   4.055
   53        1.240   2.816   0.000   4.055
   54        1.240   2.816   0.000   4.056
   55        1.240   2.816   0.000   4.056
   56        1.240   2.816   0.000   4.055
   57        1.240   2.816   0.000   4.055
   58        1.240   2.816   0.000   4.055
   59        1.240   2.816   0.000   4.056
   60        1.240   2.816   0.000   4.056
   61        1.240   2.816   0.000   4.056
   62        1.240   2.816   0.000   4.056
   63        1.240   2.816   0.000   4.056
   64        1.240   2.816   0.000   4.056
   65        1.240   2.816   0.000   4.055
   66        1.240   2.816   0.000   4.056
   67        1.240   2.816   0.000   4.056
   68        1.240   2.816   0.000   4.055
   69        1.240   2.816   0.000   4.055
   70        1.240   2.816   0.000   4.056
   71        1.240   2.816   0.000   4.055
   72        1.240   2.816   0.000   4.055
   73        0.819   1.560   0.000   2.380
   74        0.836   1.596   0.000   2.432
   75        0.877   1.726   0.000   2.604
   76        1.758   4.414   0.000   6.171
   77        1.758   4.412   0.000   6.170
   78        1.758   4.413   0.000   6.171
   79        1.755   4.402   0.000   6.157
   80        1.756   4.403   0.000   6.159
   81        1.592   3.556   0.000   5.149
   82        1.592   3.558   0.000   5.150
--------------------------------------------------
tot         85.894 185.508   0.000 271.401
 


 magnetization (x)
 
# of ion       s       p       d       tot
------------------------------------------
    1        0.000   0.000   0.000   0.000
    2       -0.000  -0.000   0.000  -0.000
    3       -0.000  -0.000   0.000  -0.000
    4        0.000   0.000   0.000   0.000
    5        0.000   0.000   0.000   0.000
    6        0.000   0.000   0.000   0.000
    7        0.000   0.000   0.000   0.000
    8       -0.000  -0.000   0.000  -0.000
    9       -0.000  -0.000   0.000  -0.000
   10       -0.000  -0.000   0.000  -0.000
   11        0.000   0.000   0.000   0.000
   12        0.000   0.000   0.000   0.000
   13        0.000   0.000   0.000   0.000
   14        0.000   0.000   0.000   0.000
   15        0.000   0.000   0.000   0.000
   16       -0.000   0.000   0.000  -0.000
   17       -0.000  -0.000   0.000  -0.000
   18        0.000   0.000   0.000   0.000
   19        0.000   0.000   0.000   0.000
   20        0.000   0.000   0.000   0.000
   21        0.000   0.000   0.000   0.000
   22        0.000   0.000   0.000   0.000
   23        0.000   0.000   0.000   0.000
   24        0.000   0.000   0.000   0.000
   25        0.000   0.000   0.000   0.000
   26        0.000   0.000   0.000   0.000
   27        0.000   0.000   0.000   0.000
   28        0.000   0.000   0.000   0.000
   29        0.000   0.000   0.000   0.000
   30        0.000   0.000   0.000   0.000
   31        0.000   0.000   0.000   0.000
   32        0.000   0.000   0.000   0.000
   33        0.000   0.000   0.000   0.000
   34        0.000   0.000   0.000   0.000
   35        0.000   0.000   0.000   0.000
   36        0.000   0.000   0.000   0.000
   37        0.000   0.000   0.000   0.000
   38       -0.000  -0.000   0.000  -0.000
   39        0.000   0.000   0.000   0.000
   40        0.000   0.000   0.000   0.000
   41       -0.000  -0.000   0.000  -0.000
   42       -0.000  -0.000   0.000  -0.000
   43       -0.000  -0.000   0.000  -0.000
   44        0.000   0.000   0.000   0.000
   45        0.000   0.000   0.000   0.000
   46       -0.000  -0.000   0.000  -0.000
   47       -0.000   0.000   0.000   0.000
   48       -0.000   0.000   0.000   0.000
   49       -0.000  -0.000   0.000  -0.000
   50        0.000   0.000   0.000   0.000
   51       -0.000  -0.000   0.000  -0.000
   52        0.000   0.000   0.000   0.000
   53        0.000   0.000   0.000   0.000
   54       -0.000  -0.000   0.000  -0.000
   55       -0.000   0.000   0.000   0.000
   56       -0.000  -0.000   0.000  -0.000
   57       -0.000  -0.000   0.000  -0.000
   58        0.000   0.000   0.000   0.000
   59       -0.000  -0.000   0.000  -0.000
   60       -0.000  -0.000   0.000  -0.000
   61       -0.000  -0.000   0.000  -0.000
   62       -0.000  -0.000   0.000  -0.000
   63       -0.000  -0.000   0.000  -0.000
   64       -0.000  -0.000   0.000  -0.000
   65       -0.000  -0.000   0.000  -0.000
   66       -0.000   0.000   0.000   0.000
   67       -0.000  -0.000   0.000  -0.000
   68        0.000   0.000   0.000   0.000
   69       -0.000  -0.000   0.000  -0.000
   70       -0.000  -0.000   0.000  -0.000
   71       -0.000  -0.000   0.000  -0.000
   72       -0.000  -0.000   0.000  -0.000
   73       -0.000  -0.000   0.000  -0.000
   74       -0.001  -0.001   0.000  -0.002
   75       -0.002  -0.008   0.000  -0.010
   76        0.000   0.000   0.000   0.000
   77       -0.000  -0.000   0.000  -0.000
   78        0.000   0.000   0.000   0.000
   79        0.000   0.002   0.000   0.002
   80        0.000   0.003   0.000   0.003
   81        0.002   0.116   0.000   0.117
   82        0.001   0.112   0.000   0.113
--------------------------------------------------
tot          0.001   0.223   0.000   0.224
 

 total amount of memory used by VASP MPI-rank0  1757870. kBytes
=======================================================================

   base      :      30000. kBytes
   nonlr-proj:      37382. kBytes
   fftplans  :     102830. kBytes
   grid      :     872370. kBytes
   one-center:        503. kBytes
   wavefun   :     714785. kBytes
 
  
  
 General timing and accounting informations for this job:
 ========================================================
  
                  Total CPU time used (sec):    24206.678
                            User time (sec):    23596.437
                          System time (sec):      610.241
                         Elapsed time (sec):    19635.786
  
                   Maximum memory used (kb):     3584716.
                   Average memory used (kb):           0.
  
                          Minor page faults:     80575052
                          Major page faults:           26
                 Voluntary context switches:       178147
