Job started on bc11u11n1 at Fri Nov 27 23:36:53 CST 2020
SLURM_JOBID=2169576
SLURM_JOB_NODELIST=bc11u11n1,bc11u13n1,bc11u15n1,bc11u17n1,bc11u19n2
 running on   96 total cores
 distrk:  each k-point on   96 cores,    1 groups
 distr:  one band on    1 cores,   96 groups
 using from now: INCAR     
 vasp.5.4.4.18Apr17-6-g9f103f2a35 (build Jun 11 2020 13:42:08) complex          
  
 POSCAR found type information on POSCAR  B  N  C  F  O 
 POSCAR found :  5 types and      42 ions
 scaLAPACK will be used

 ----------------------------------------------------------------------------- 
|                                                                             |
|           W    W    AA    RRRRR   N    N  II  N    N   GGGG   !!!           |
|           W    W   A  A   R    R  NN   N  II  NN   N  G    G  !!!           |
|           W    W  A    A  R    R  N N  N  II  N N  N  G       !!!           |
|           W WW W  AAAAAA  RRRRR   N  N N  II  N  N N  G  GGG   !            |
|           WW  WW  A    A  R   R   N   NN  II  N   NN  G    G                |
|           W    W  A    A  R    R  N    N  II  N    N   GGGG   !!!           |
|                                                                             |
|      For optimal performance we recommend to set                            |
|        NCORE= 4 - approx SQRT( number of cores)                             |
|      NCORE specifies how many cores store one orbital (NPAR=cpu/NCORE).     |
|      This setting can  greatly improve the performance of VASP for DFT.     |
|      The default,   NCORE=1            might be grossly inefficient         |
|      on modern multi-core architectures or massively parallel machines.     |
|      Do your own testing !!!!                                               |
|      Unfortunately you need to use the default for GW and RPA calculations. |
|      (for HF NCORE is supported but not extensively tested yet)             |
|                                                                             |
 ----------------------------------------------------------------------------- 

 LDA part: xc-table for Pade appr. of Perdew
 POSCAR found type information on POSCAR  B  N  C  F  O 
 POSCAR found :  5 types and      42 ions
 POSCAR, INCAR and KPOINTS ok, starting setup
 FFT: planning ...
 WAVECAR not read
 entering main loop
       N       E                     dE             d eps       ncg     rms          rms(c)
SOL:   1  -0.60604E-01    0.00000E+00   -0.60604E-01   110
DAV:   1     0.172604627421E+04    0.17260E+04   -0.67252E+04  7776   0.719E+02
DAV:   2    -0.240222698306E+03   -0.19663E+04   -0.18509E+04 14784   0.172E+02
DAV:   3    -0.448624219218E+03   -0.20840E+03   -0.20677E+03 10752   0.761E+01
DAV:   4    -0.452569681102E+03   -0.39455E+01   -0.39381E+01 11328   0.123E+01
DAV:   5    -0.452636774672E+03   -0.67094E-01   -0.67082E-01  9600   0.144E+00BRMIX: very serious problems
 the old and the new charge density differ
 old charge density:   187.00000 new  186.69999
    0.472E+01
SOL:   2   0.24546E+00    0.00000E+00    0.24546E+00   103
RMM:   6    -0.324035798989E+03    0.12860E+03   -0.12368E+02  7680   0.186E+01    0.234E+01
SOL:   3   0.59824E-01    0.00000E+00    0.59824E-01    98
RMM:   7    -0.343673245169E+03   -0.19637E+02   -0.31446E+01  7680   0.112E+01    0.162E+01
SOL:   4  -0.88464E-01    0.00000E+00   -0.88464E-01    98
RMM:   8    -0.348068652641E+03   -0.43954E+01   -0.57052E+00  7680   0.591E+00    0.120E+01
SOL:   5  -0.31710E+00    0.00000E+00   -0.31710E+00   101
RMM:   9    -0.366512763080E+03   -0.18444E+02   -0.95706E+00  7680   0.576E+00    0.917E+00
SOL:   6  -0.42759E+00    0.00000E+00   -0.42759E+00    98
RMM:  10    -0.372124031699E+03   -0.56113E+01   -0.29163E+00  7680   0.310E+00    0.773E+00
SOL:   7  -0.45861E+00    0.00000E+00   -0.45861E+00    96
RMM:  11    -0.378105553604E+03   -0.59815E+01   -0.17838E+00  7680   0.249E+00    0.691E+00
SOL:   8  -0.41414E+00    0.00000E+00   -0.41414E+00    99
RMM:  12    -0.387644053371E+03   -0.95385E+01   -0.56240E+00  7680   0.396E+00    0.803E+00
SOL:   9  -0.51961E+00    0.00000E+00   -0.51961E+00    99
RMM:  13    -0.393333662280E+03   -0.56896E+01   -0.42832E+00  7680   0.339E+00    0.411E+00
SOL:  10  -0.56860E+00    0.00000E+00   -0.56860E+00    95
RMM:  14    -0.394912567216E+03   -0.15789E+01   -0.15285E+00  7680   0.237E+00    0.338E+00
SOL:  11  -0.50239E+00    0.00000E+00   -0.50239E+00    97
RMM:  15    -0.394161411983E+03    0.75116E+00   -0.58667E-01  7680   0.186E+00    0.263E+00
SOL:  12  -0.39336E+00    0.00000E+00   -0.39336E+00    98
RMM:  16    -0.392620162072E+03    0.15412E+01   -0.38333E-01  7680   0.145E+00    0.211E+00
SOL:  13  -0.32620E+00    0.00000E+00   -0.32620E+00    96
RMM:  17    -0.390284007981E+03    0.23362E+01   -0.16261E-01  7680   0.103E+00    0.263E+00
SOL:  14  -0.35362E+00    0.00000E+00   -0.35362E+00    93
RMM:  18    -0.388834593119E+03    0.14494E+01   -0.14463E-01  7680   0.808E-01    0.173E+00
SOL:  15  -0.34044E+00    0.00000E+00   -0.34044E+00    91
RMM:  19    -0.387111857426E+03    0.17227E+01   -0.10779E-01  7680   0.927E-01    0.138E+00
SOL:  16  -0.33082E+00    0.00000E+00   -0.33082E+00    91
RMM:  20    -0.386359742937E+03    0.75211E+00   -0.40938E-02  7737   0.584E-01    0.104E+00
SOL:  17  -0.31396E+00    0.00000E+00   -0.31396E+00    92
RMM:  21    -0.385841790191E+03    0.51795E+00   -0.38477E-02  8081   0.494E-01    0.105E+00
SOL:  18  -0.32442E+00    0.00000E+00   -0.32442E+00    91
RMM:  22    -0.385287823696E+03    0.55397E+00   -0.58481E-02  7813   0.696E-01    0.301E-01
SOL:  19  -0.32239E+00    0.00000E+00   -0.32239E+00    87
RMM:  23    -0.384948250304E+03    0.33957E+00   -0.41284E-02  7845   0.720E-01    0.586E-01
SOL:  20  -0.30839E+00    0.00000E+00   -0.30839E+00    86
RMM:  24    -0.384827934975E+03    0.12032E+00   -0.35171E-02  8775   0.694E-01    0.342E-01
SOL:  21  -0.30886E+00    0.00000E+00   -0.30886E+00    85
RMM:  25    -0.384793188670E+03    0.34746E-01   -0.24158E-02  7703   0.633E-01    0.990E-02
SOL:  22  -0.30302E+00    0.00000E+00   -0.30302E+00    86
RMM:  26    -0.384786981049E+03    0.62076E-02   -0.63932E-03  7680   0.295E-01    0.158E-01
SOL:  23  -0.29957E+00    0.00000E+00   -0.29957E+00    82
RMM:  27    -0.384785549345E+03    0.14317E-02   -0.14645E-03  7680   0.140E-01    0.188E-02
SOL:  24  -0.29882E+00    0.00000E+00   -0.29882E+00    79
RMM:  28    -0.384785654372E+03   -0.10503E-03   -0.56679E-04  7680   0.754E-02    0.336E-02
SOL:  25  -0.29791E+00    0.00000E+00   -0.29791E+00    77
RMM:  29    -0.384785687086E+03   -0.32713E-04   -0.14509E-04  7483   0.415E-02    0.261E-02
SOL:  26  -0.29731E+00    0.00000E+00   -0.29731E+00    74
RMM:  30    -0.384785829059E+03   -0.14197E-03   -0.10313E-04  6879   0.354E-02    0.735E-03
SOL:  27  -0.29710E+00    0.00000E+00   -0.29710E+00    71
RMM:  31    -0.384785980417E+03   -0.15136E-03   -0.85291E-05  6720   0.322E-02    0.105E-02
SOL:  28  -0.29687E+00    0.00000E+00   -0.29687E+00    68
RMM:  32    -0.384786019286E+03   -0.38869E-04   -0.53629E-05  6670   0.263E-02    0.790E-03
SOL:  29  -0.29668E+00    0.00000E+00   -0.29668E+00    67
RMM:  33    -0.384786105073E+03   -0.85786E-04   -0.41922E-05  6620   0.232E-02    0.553E-03
SOL:  30  -0.29660E+00    0.00000E+00   -0.29660E+00    62
RMM:  34    -0.384786085213E+03    0.19860E-04   -0.28268E-05  6560   0.192E-02    0.597E-03
SOL:  31  -0.29660E+00    0.00000E+00   -0.29660E+00    53
RMM:  35    -0.384786097772E+03   -0.12560E-04   -0.25038E-05  6530   0.187E-02    0.629E-03
SOL:  32  -0.29660E+00    0.00000E+00   -0.29660E+00    58
RMM:  36    -0.384786109084E+03   -0.11311E-04   -0.41253E-05  6570   0.243E-02    0.653E-03
SOL:  33  -0.29660E+00    0.00000E+00   -0.29660E+00    56
RMM:  37    -0.384786103793E+03    0.52906E-05   -0.45522E-05  6560   0.253E-02
SOL:  34  -0.29659E+00    0.00000E+00   -0.29659E+00    54
   1 F= -.38478610E+03 E0= -.38477710E+03  d E =-.180133E-01  mag=     0.9213
 Finite differences POTIM= 0.02000 DOF=  30
 bond charge predicted
       N       E                     dE             d eps       ncg     rms          rms(c)
SOL:  35  -0.29648E+00    0.00000E+00   -0.29648E+00    82
DAV:   1    -0.384776675177E+03    0.94339E-02   -0.75603E-01  8160   0.908E-01    0.297E-01
SOL:  36  -0.29206E+00    0.00000E+00   -0.29206E+00    85
RMM:   2    -0.384777946309E+03   -0.12711E-02   -0.13388E-02  7680   0.193E-01    0.191E-01
SOL:  37  -0.29141E+00    0.00000E+00   -0.29141E+00    79
RMM:   3    -0.384776616142E+03    0.13302E-02   -0.11115E-03  7597   0.714E-02    0.275E-01
SOL:  38  -0.29313E+00    0.00000E+00   -0.29313E+00    80
RMM:   4    -0.384775530215E+03    0.10859E-02   -0.11509E-03  7680   0.839E-02    0.122E-01
SOL:  39  -0.29442E+00    0.00000E+00   -0.29442E+00    82
RMM:   5    -0.384776085520E+03   -0.55530E-03   -0.12466E-03  7680   0.847E-02    0.309E-01
SOL:  40  -0.29151E+00    0.00000E+00   -0.29151E+00    82
RMM:   6    -0.384775438606E+03    0.64691E-03   -0.24603E-03  7680   0.115E-01    0.373E-02
SOL:  41  -0.29095E+00    0.00000E+00   -0.29095E+00    77
RMM:   7    -0.384776209857E+03   -0.77125E-03   -0.10303E-03  7680   0.812E-02    0.429E-02
SOL:  42  -0.29096E+00    0.00000E+00   -0.29096E+00    74
RMM:   8    -0.384776105867E+03    0.10399E-03   -0.23349E-04  7048   0.441E-02    0.206E-02
SOL:  43  -0.29051E+00    0.00000E+00   -0.29051E+00    74
RMM:   9    -0.384776238218E+03   -0.13235E-03   -0.10289E-04  6741   0.347E-02    0.165E-02
SOL:  44  -0.28983E+00    0.00000E+00   -0.28983E+00    75
RMM:  10    -0.384776358228E+03   -0.12001E-03   -0.98972E-05  7003   0.345E-02    0.110E-02
SOL:  45  -0.28961E+00    0.00000E+00   -0.28961E+00    72
RMM:  11    -0.384776356256E+03    0.19710E-05   -0.85487E-05  6747   0.330E-02
SOL:  46  -0.28955E+00    0.00000E+00   -0.28955E+00    63
   2 F= -.38477636E+03 E0= -.38476759E+03  d E =-.175370E-01  mag=     0.9323
 Finite differences progress:
  Degree of freedom:   1/ 30
  Displacement:        1/  2
  Total:               1/ 60
 bond charge predicted
       N       E                     dE             d eps       ncg     rms          rms(c)
SOL:  47  -0.28991E+00    0.00000E+00   -0.28991E+00    85
DAV:   1    -0.384781198805E+03   -0.48406E-02   -0.29420E+00  9696   0.181E+00    0.584E-01
SOL:  48  -0.29799E+00    0.00000E+00   -0.29799E+00    88
RMM:   2    -0.384768553192E+03    0.12646E-01   -0.53051E-02  7680   0.374E-01    0.409E-01
SOL:  49  -0.29804E+00    0.00000E+00   -0.29804E+00    83
RMM:   3    -0.384775184986E+03   -0.66318E-02   -0.43428E-03  7680   0.134E-01    0.470E-01
SOL:  50  -0.29294E+00    0.00000E+00   -0.29294E+00    84
RMM:   4    -0.384775755286E+03   -0.57030E-03   -0.34376E-03  7680   0.109E-01    0.308E-01
SOL:  51  -0.29367E+00    0.00000E+00   -0.29367E+00    83
RMM:   5    -0.384776569636E+03   -0.81435E-03   -0.49108E-03  7680   0.164E-01    0.528E-01
SOL:  52  -0.30056E+00    0.00000E+00   -0.30056E+00    85
RMM:   6    -0.384773110783E+03    0.34589E-02   -0.33555E-03  7680   0.140E-01    0.187E-01
SOL:  53  -0.30006E+00    0.00000E+00   -0.30006E+00    81
RMM:   7    -0.384775386036E+03   -0.22753E-02   -0.52909E-03  7680   0.183E-01    0.988E-02
SOL:  54  -0.30017E+00    0.00000E+00   -0.30017E+00    75
RMM:   8    -0.384775254846E+03    0.13119E-03   -0.26066E-04  6997   0.460E-02    0.206E-02
SOL:  55  -0.30115E+00    0.00000E+00   -0.30115E+00    77
RMM:   9    -0.384775571918E+03   -0.31707E-03   -0.28554E-04  7187   0.495E-02    0.159E-02
SOL:  56  -0.30220E+00    0.00000E+00   -0.30220E+00    77
RMM:  10    -0.384775997571E+03   -0.42565E-03   -0.16379E-04  7149   0.400E-02    0.111E-02
SOL:  57  -0.30286E+00    0.00000E+00   -0.30286E+00    75
RMM:  11    -0.384776163895E+03   -0.16632E-03   -0.13126E-04  7191   0.392E-02    0.133E-02
SOL:  58  -0.30340E+00    0.00000E+00   -0.30340E+00    72
RMM:  12    -0.384776192424E+03   -0.28529E-04   -0.93859E-05  6778   0.337E-02    0.940E-03
SOL:  59  -0.30396E+00    0.00000E+00   -0.30396E+00    72
RMM:  13    -0.384776302151E+03   -0.10973E-03   -0.91854E-05  6759   0.337E-02    0.885E-03
SOL:  60  -0.30432E+00    0.00000E+00   -0.30432E+00    69
RMM:  14    -0.384776346175E+03   -0.44024E-04   -0.77629E-05  6725   0.317E-02    0.969E-03
SOL:  61  -0.30446E+00    0.00000E+00   -0.30446E+00    63
RMM:  15    -0.384776326811E+03    0.19364E-04   -0.44341E-05  6642   0.250E-02    0.994E-03
SOL:  62  -0.30458E+00    0.00000E+00   -0.30458E+00    62
RMM:  16    -0.384776352571E+03   -0.25760E-04   -0.40604E-05  6650   0.238E-02    0.907E-03
SOL:  63  -0.30486E+00    0.00000E+00   -0.30486E+00    66
RMM:  17    -0.384776521151E+03   -0.16858E-03   -0.83403E-05  7494   0.345E-02    0.971E-03
SOL:  64  -0.30497E+00    0.00000E+00   -0.30497E+00    63
RMM:  18    -0.384776544442E+03   -0.23291E-04   -0.59288E-05  6715   0.290E-02    0.817E-03
SOL:  65  -0.30516E+00    0.00000E+00   -0.30516E+00    65
RMM:  19    -0.384776609669E+03   -0.65227E-04   -0.72363E-05  7366   0.315E-02    0.662E-03
SOL:  66  -0.30524E+00    0.00000E+00   -0.30524E+00    66
RMM:  20    -0.384776624648E+03   -0.14979E-04   -0.87313E-05  7654   0.349E-02    0.548E-03
SOL:  67  -0.30515E+00    0.00000E+00   -0.30515E+00    66
RMM:  21    -0.384776648230E+03   -0.23582E-04   -0.73869E-05  7103   0.334E-02    0.459E-03
SOL:  68  -0.30504E+00    0.00000E+00   -0.30504E+00    66
RMM:  22    -0.384776703597E+03   -0.55367E-04   -0.74119E-05  7043   0.337E-02    0.361E-03
SOL:  69  -0.30488E+00    0.00000E+00   -0.30488E+00    65
RMM:  23    -0.384776745200E+03   -0.41603E-04   -0.74934E-05  6992   0.341E-02    0.324E-03
SOL:  70  -0.30481E+00    0.00000E+00   -0.30481E+00    64
RMM:  24    -0.384776774255E+03   -0.29054E-04   -0.59250E-05  6715   0.297E-02    0.344E-03
SOL:  71  -0.30477E+00    0.00000E+00   -0.30477E+00    61
RMM:  25    -0.384776768992E+03    0.52626E-05   -0.46684E-05  6701   0.261E-02
SOL:  72  -0.30477E+00    0.00000E+00   -0.30477E+00    60
   3 F= -.38477677E+03 E0= -.38476819E+03  d E =-.171567E-01  mag=     0.9973
 Finite differences progress:
  Degree of freedom:   1/ 30
  Displacement:        2/  2
  Total:               2/ 60
 bond charge predicted
       N       E                     dE             d eps       ncg     rms          rms(c)
SOL:  73  -0.30464E+00    0.00000E+00   -0.30464E+00    86
DAV:   1    -0.384779146547E+03   -0.23723E-02   -0.14812E+00  9120   0.127E+00    0.445E-01
SOL:  74  -0.29636E+00    0.00000E+00   -0.29636E+00    87
RMM:   2    -0.384779181386E+03   -0.34839E-04   -0.27614E-02  7680   0.276E-01    0.300E-01
SOL:  75  -0.29538E+00    0.00000E+00   -0.29538E+00    81
RMM:   3    -0.384777531237E+03    0.16501E-02   -0.25549E-03  7680   0.105E-01    0.429E-01
SOL:  76  -0.29870E+00    0.00000E+00   -0.29870E+00    82
RMM:   4    -0.384775301361E+03    0.22299E-02   -0.25218E-03  7680   0.121E-01    0.156E-01
SOL:  77  -0.29918E+00    0.00000E+00   -0.29918E+00    83
RMM:   5    -0.384776696252E+03   -0.13949E-02   -0.26667E-03  7680   0.127E-01    0.364E-01
SOL:  78  -0.29470E+00    0.00000E+00   -0.29470E+00    83
RMM:   6    -0.384776054277E+03    0.64197E-03   -0.31183E-03  7680   0.129E-01    0.445E-02
SOL:  79  -0.29400E+00    0.00000E+00   -0.29400E+00    77
RMM:   7    -0.384776844822E+03   -0.79054E-03   -0.16697E-03  7680   0.101E-01    0.563E-02
SOL:  80  -0.29390E+00    0.00000E+00   -0.29390E+00    76
RMM:   8    -0.384776901374E+03   -0.56552E-04   -0.23226E-04  7052   0.442E-02    0.243E-02
SOL:  81  -0.29303E+00    0.00000E+00   -0.29303E+00    77
RMM:   9    -0.384777150717E+03   -0.24934E-03   -0.14720E-04  6883   0.389E-02    0.130E-02
SOL:  82  -0.29194E+00    0.00000E+00   -0.29194E+00    77
RMM:  10    -0.384777347162E+03   -0.19644E-03   -0.12233E-04  6741   0.350E-02    0.762E-03
SOL:  83  -0.29145E+00    0.00000E+00   -0.29145E+00    75
RMM:  11    -0.384777366751E+03   -0.19589E-04   -0.10643E-04  6782   0.355E-02    0.838E-03
SOL:  84  -0.29101E+00    0.00000E+00   -0.29101E+00    71
RMM:  12    -0.384777442584E+03   -0.75833E-04   -0.75206E-05  6724   0.305E-02    0.116E-02
SOL:  85  -0.29056E+00    0.00000E+00   -0.29056E+00    72
RMM:  13    -0.384777468678E+03   -0.26093E-04   -0.59210E-05  6704   0.271E-02    0.614E-03
SOL:  86  -0.29021E+00    0.00000E+00   -0.29021E+00    69
RMM:  14    -0.384777513407E+03   -0.44729E-04   -0.57585E-05  6693   0.275E-02    0.376E-03
SOL:  87  -0.29004E+00    0.00000E+00   -0.29004E+00    65
RMM:  15    -0.384777536449E+03   -0.23042E-04   -0.38693E-05  6630   0.227E-02    0.329E-03
SOL:  88  -0.28993E+00    0.00000E+00   -0.28993E+00    62
RMM:  16    -0.384777537738E+03   -0.12897E-05   -0.30752E-05  6591   0.207E-02
SOL:  89  -0.28976E+00    0.00000E+00   -0.28976E+00    63
   4 F= -.38477754E+03 E0= -.38476917E+03  d E =-.167357E-01  mag=     1.0111
 Finite differences progress:
  Degree of freedom:   2/ 30
  Displacement:        1/  2
  Total:               3/ 60
 bond charge predicted
       N       E                     dE             d eps       ncg     rms          rms(c)
SOL:  90  -0.29016E+00    0.00000E+00   -0.29016E+00    87
DAV:   1    -0.384780129476E+03   -0.25930E-02   -0.29681E+00  8640   0.180E+00    0.566E-01
SOL:  91  -0.29797E+00    0.00000E+00   -0.29797E+00    88
RMM:   2    -0.384768842378E+03    0.11287E-01   -0.48880E-02  7680   0.356E-01    0.420E-01
SOL:  92  -0.29737E+00    0.00000E+00   -0.29737E+00    83
RMM:   3    -0.384774913445E+03   -0.60711E-02   -0.43454E-03  7680   0.131E-01    0.426E-01
SOL:  93  -0.29123E+00    0.00000E+00   -0.29123E+00    85
RMM:   4    -0.384776736883E+03   -0.18234E-02   -0.40831E-03  7680   0.106E-01    0.480E-01
SOL:  94  -0.29335E+00    0.00000E+00   -0.29335E+00    84
RMM:   5    -0.384776422198E+03    0.31469E-03   -0.64290E-03  7680   0.194E-01    0.501E-01
SOL:  95  -0.29948E+00    0.00000E+00   -0.29948E+00    85
RMM:   6    -0.384773339992E+03    0.30822E-02   -0.25475E-03  7680   0.108E-01    0.208E-01
SOL:  96  -0.29874E+00    0.00000E+00   -0.29874E+00    81
RMM:   7    -0.384775674286E+03   -0.23343E-02   -0.55637E-03  7680   0.189E-01    0.877E-02
SOL:  97  -0.29890E+00    0.00000E+00   -0.29890E+00    74
RMM:   8    -0.384775720032E+03   -0.45747E-04   -0.28019E-04  6926   0.469E-02    0.228E-02
SOL:  98  -0.29977E+00    0.00000E+00   -0.29977E+00    78
RMM:   9    -0.384775892070E+03   -0.17204E-03   -0.23542E-04  6901   0.441E-02    0.155E-02
SOL:  99  -0.30076E+00    0.00000E+00   -0.30076E+00    78
RMM:  10    -0.384776383905E+03   -0.49184E-03   -0.16689E-04  6863   0.380E-02    0.108E-02
SOL: 100  -0.30123E+00    0.00000E+00   -0.30123E+00    76
RMM:  11    -0.384776665535E+03   -0.28163E-03   -0.11734E-04  6749   0.350E-02    0.158E-02
SOL: 101  -0.30166E+00    0.00000E+00   -0.30166E+00    72
RMM:  12    -0.384776846323E+03   -0.18079E-03   -0.86129E-05  6723   0.304E-02    0.105E-02
SOL: 102  -0.30207E+00    0.00000E+00   -0.30207E+00    72
RMM:  13    -0.384776957162E+03   -0.11084E-03   -0.10913E-04  6768   0.373E-02    0.454E-03
SOL: 103  -0.30239E+00    0.00000E+00   -0.30239E+00    70
RMM:  14    -0.384777021778E+03   -0.64616E-04   -0.70152E-05  6723   0.290E-02    0.275E-03
SOL: 104  -0.30251E+00    0.00000E+00   -0.30251E+00    64
RMM:  15    -0.384777018912E+03    0.28664E-05   -0.52745E-05  6625   0.269E-02
SOL: 105  -0.30259E+00    0.00000E+00   -0.30259E+00    62
   5 F= -.38477702E+03 E0= -.38476846E+03  d E =-.171159E-01  mag=     1.0036
 Finite differences progress:
  Degree of freedom:   2/ 30
  Displacement:        2/  2
  Total:               4/ 60
 bond charge predicted
       N       E                     dE             d eps       ncg     rms          rms(c)
SOL: 106  -0.30232E+00    0.00000E+00   -0.30232E+00    86
DAV:   1    -0.384777507190E+03   -0.48541E-03   -0.15293E+00  9792   0.128E+00    0.610E-01
SOL: 107  -0.28831E+00    0.00000E+00   -0.28831E+00    88
RMM:   2    -0.384779424463E+03   -0.19173E-02   -0.37824E-02  7680   0.336E-01    0.319E-01
SOL: 108  -0.28308E+00    0.00000E+00   -0.28308E+00    82
RMM:   3    -0.384779393050E+03    0.31413E-04   -0.42665E-03  7680   0.136E-01    0.755E-01
SOL: 109  -0.28935E+00    0.00000E+00   -0.28935E+00    85
RMM:   4    -0.384774765545E+03    0.46275E-02   -0.83609E-03  7680   0.215E-01    0.189E-01
SOL: 110  -0.28780E+00    0.00000E+00   -0.28780E+00    83
RMM:   5    -0.384777106658E+03   -0.23411E-02   -0.59149E-03  7680   0.176E-01    0.411E-01
SOL: 111  -0.28142E+00    0.00000E+00   -0.28142E+00    83
RMM:   6    -0.384776504202E+03    0.60246E-03   -0.43952E-03  7680   0.159E-01    0.925E-02
SOL: 112  -0.27815E+00    0.00000E+00   -0.27815E+00    80
RMM:   7    -0.384777110178E+03   -0.60598E-03   -0.12089E-03  7680   0.871E-02    0.581E-02
SOL: 113  -0.27666E+00    0.00000E+00   -0.27666E+00    78
RMM:   8    -0.384777198212E+03   -0.88034E-04   -0.54133E-04  7615   0.631E-02    0.360E-02
SOL: 114  -0.27432E+00    0.00000E+00   -0.27432E+00    77
RMM:   9    -0.384777482597E+03   -0.28439E-03   -0.17373E-04  6838   0.414E-02    0.376E-02
SOL: 115  -0.26986E+00    0.00000E+00   -0.26986E+00    79
RMM:  10    -0.384777651705E+03   -0.16911E-03   -0.17643E-04  7072   0.421E-02    0.113E-02
SOL: 116  -0.26725E+00    0.00000E+00   -0.26725E+00    76
RMM:  11    -0.384777620749E+03    0.30955E-04   -0.15958E-04  7170   0.431E-02    0.157E-02
SOL: 117  -0.26502E+00    0.00000E+00   -0.26502E+00    74
RMM:  12    -0.384777704331E+03   -0.83582E-04   -0.94391E-05  6723   0.337E-02    0.159E-02
SOL: 118  -0.26319E+00    0.00000E+00   -0.26319E+00    73
RMM:  13    -0.384777777769E+03   -0.73438E-04   -0.81042E-05  6723   0.323E-02    0.873E-03
SOL: 119  -0.26190E+00    0.00000E+00   -0.26190E+00    70
RMM:  14    -0.384777822216E+03   -0.44447E-04   -0.71435E-05  6722   0.307E-02    0.579E-03
SOL: 120  -0.26117E+00    0.00000E+00   -0.26117E+00    67
RMM:  15    -0.384777870245E+03   -0.48029E-04   -0.59764E-05  6722   0.284E-02    0.533E-03
SOL: 121  -0.26056E+00    0.00000E+00   -0.26056E+00    68
RMM:  16    -0.384778003318E+03   -0.13307E-03   -0.63651E-05  6724   0.304E-02    0.471E-03
SOL: 122  -0.26011E+00    0.00000E+00   -0.26011E+00    67
RMM:  17    -0.384778099144E+03   -0.95826E-04   -0.67552E-05  6736   0.319E-02    0.460E-03
SOL: 123  -0.25991E+00    0.00000E+00   -0.25991E+00    66
RMM:  18    -0.384778149380E+03   -0.50236E-04   -0.54847E-05  6713   0.285E-02    0.334E-03
SOL: 124  -0.25990E+00    0.00000E+00   -0.25990E+00    63
RMM:  19    -0.384778138720E+03    0.10661E-04   -0.48994E-05  6696   0.264E-02    0.245E-03
SOL: 125  -0.26000E+00    0.00000E+00   -0.26000E+00    62
RMM:  20    -0.384778159653E+03   -0.20933E-04   -0.45683E-05  6681   0.250E-02    0.202E-03
SOL: 126  -0.26013E+00    0.00000E+00   -0.26013E+00    62
RMM:  21    -0.384778161800E+03   -0.21475E-05   -0.39595E-05  6635   0.236E-02
SOL: 127  -0.26023E+00    0.00000E+00   -0.26023E+00    61
   6 F= -.38477816E+03 E0= -.38477034E+03  d E =-.156428E-01  mag=     1.0553
 Finite differences progress:
  Degree of freedom:   3/ 30
  Displacement:        1/  2
  Total:               5/ 60
 bond charge predicted
       N       E                     dE             d eps       ncg     rms          rms(c)
SOL: 128  -0.26112E+00    0.00000E+00   -0.26112E+00    90
DAV:   1    -0.384774700486E+03    0.34592E-02   -0.31863E+00  9024   0.176E+00    0.113E+00
SOL: 129  -0.28610E+00    0.00000E+00   -0.28610E+00    91
RMM:   2    -0.384741057653E+03    0.33643E-01   -0.10954E-01  7680   0.543E-01    0.769E-01
SOL: 130  -0.28936E+00    0.00000E+00   -0.28936E+00    84
RMM:   3    -0.384769662035E+03   -0.28604E-01   -0.18248E-02  7680   0.280E-01    0.105E+00
SOL: 131  -0.27960E+00    0.00000E+00   -0.27960E+00    87
RMM:   4    -0.384769649396E+03    0.12638E-04   -0.15309E-02  7680   0.239E-01    0.260E-01
SOL: 132  -0.28925E+00    0.00000E+00   -0.28925E+00    85
RMM:   5    -0.384773488156E+03   -0.38388E-02   -0.11865E-02  7680   0.252E-01    0.440E-01
SOL: 133  -0.29812E+00    0.00000E+00   -0.29812E+00    83
RMM:   6    -0.384771209420E+03    0.22787E-02   -0.28095E-03  7680   0.134E-01    0.151E-01
SOL: 134  -0.29949E+00    0.00000E+00   -0.29949E+00    82
RMM:   7    -0.384773211488E+03   -0.20021E-02   -0.32616E-03  7680   0.144E-01    0.331E-02
SOL: 135  -0.30330E+00    0.00000E+00   -0.30330E+00    79
RMM:   8    -0.384773584639E+03   -0.37315E-03   -0.37542E-04  7445   0.566E-02    0.880E-02
SOL: 136  -0.30797E+00    0.00000E+00   -0.30797E+00    78
RMM:   9    -0.384773611112E+03   -0.26473E-04   -0.37465E-04  7631   0.569E-02    0.457E-02
SOL: 137  -0.31671E+00    0.00000E+00   -0.31671E+00    80
RMM:  10    -0.384774517391E+03   -0.90628E-03   -0.29152E-04  7680   0.528E-02    0.340E-02
SOL: 138  -0.32310E+00    0.00000E+00   -0.32310E+00    77
RMM:  11    -0.384774855145E+03   -0.33775E-03   -0.20427E-04  7592   0.481E-02    0.258E-02
SOL: 139  -0.32734E+00    0.00000E+00   -0.32734E+00    75
RMM:  12    -0.384774849765E+03    0.53797E-05   -0.15390E-04  7537   0.453E-02    0.101E-02
SOL: 140  -0.33122E+00    0.00000E+00   -0.33122E+00    74
RMM:  13    -0.384774900214E+03   -0.50449E-04   -0.16755E-04  7609   0.466E-02    0.871E-03
SOL: 141  -0.33319E+00    0.00000E+00   -0.33319E+00    71
RMM:  14    -0.384774919487E+03   -0.19273E-04   -0.11074E-04  7259   0.408E-02    0.544E-03
SOL: 142  -0.33397E+00    0.00000E+00   -0.33397E+00    68
RMM:  15    -0.384774836304E+03    0.83184E-04   -0.84734E-05  6978   0.363E-02    0.464E-03
SOL: 143  -0.33448E+00    0.00000E+00   -0.33448E+00    68
RMM:  16    -0.384774773852E+03    0.62452E-04   -0.76868E-05  7021   0.353E-02    0.409E-03
SOL: 144  -0.33477E+00    0.00000E+00   -0.33477E+00    67
RMM:  17    -0.384774742092E+03    0.31760E-04   -0.66958E-05  6795   0.327E-02    0.356E-03
SOL: 145  -0.33474E+00    0.00000E+00   -0.33474E+00    67
RMM:  18    -0.384774702989E+03    0.39103E-04   -0.52008E-05  6724   0.287E-02    0.254E-03
SOL: 146  -0.33464E+00    0.00000E+00   -0.33464E+00    64
RMM:  19    -0.384774698785E+03    0.42041E-05   -0.57081E-05  6732   0.297E-02
SOL: 147  -0.33450E+00    0.00000E+00   -0.33450E+00    62
   7 F= -.38477470E+03 E0= -.38476565E+03  d E =-.180903E-01  mag=     0.9633
 Finite differences progress:
  Degree of freedom:   3/ 30
  Displacement:        2/  2
  Total:               6/ 60
 bond charge predicted
       N       E                     dE             d eps       ncg     rms          rms(c)
SOL: 148  -0.33441E+00    0.00000E+00   -0.33441E+00    86
DAV:   1    -0.384776833022E+03   -0.21300E-02   -0.15433E+00  8064   0.132E+00    0.486E-01
SOL: 149  -0.34279E+00    0.00000E+00   -0.34279E+00    87
RMM:   2    -0.384768277457E+03    0.85556E-02   -0.31921E-02  7680   0.302E-01    0.546E-01
SOL: 150  -0.33962E+00    0.00000E+00   -0.33962E+00    83
RMM:   3    -0.384774337035E+03   -0.60596E-02   -0.52551E-03  7680   0.150E-01    0.459E-01
SOL: 151  -0.33280E+00    0.00000E+00   -0.33280E+00    84
RMM:   4    -0.384775619354E+03   -0.12823E-02   -0.33257E-03  7680   0.955E-02    0.410E-01
SOL: 152  -0.33429E+00    0.00000E+00   -0.33429E+00    83
RMM:   5    -0.384775506780E+03    0.11257E-03   -0.63874E-03  7680   0.186E-01    0.234E-01
SOL: 153  -0.33560E+00    0.00000E+00   -0.33560E+00    81
RMM:   6    -0.384774808976E+03    0.69780E-03   -0.10418E-03  7676   0.747E-02    0.176E-01
SOL: 154  -0.33384E+00    0.00000E+00   -0.33384E+00    80
RMM:   7    -0.384775649874E+03   -0.84090E-03   -0.23074E-03  7680   0.120E-01    0.423E-02
SOL: 155  -0.33337E+00    0.00000E+00   -0.33337E+00    73
RMM:   8    -0.384775565362E+03    0.84511E-04   -0.23704E-04  6755   0.446E-02    0.143E-02
SOL: 156  -0.33288E+00    0.00000E+00   -0.33288E+00    74
RMM:   9    -0.384775646591E+03   -0.81229E-04   -0.12451E-04  6723   0.346E-02    0.153E-02
SOL: 157  -0.33185E+00    0.00000E+00   -0.33185E+00    76
RMM:  10    -0.384775761374E+03   -0.11478E-03   -0.79341E-05  6720   0.295E-02    0.692E-03
SOL: 158  -0.33075E+00    0.00000E+00   -0.33075E+00    75
RMM:  11    -0.384775893382E+03   -0.13201E-03   -0.88575E-05  6723   0.319E-02    0.537E-03
SOL: 159  -0.32994E+00    0.00000E+00   -0.32994E+00    72
RMM:  12    -0.384775952436E+03   -0.59055E-04   -0.77548E-05  6721   0.302E-02    0.351E-03
SOL: 160  -0.32936E+00    0.00000E+00   -0.32936E+00    69
RMM:  13    -0.384775974922E+03   -0.22485E-04   -0.58649E-05  6680   0.272E-02    0.296E-03
SOL: 161  -0.32865E+00    0.00000E+00   -0.32865E+00    69
RMM:  14    -0.384776005434E+03   -0.30512E-04   -0.51764E-05  6680   0.254E-02    0.332E-03
SOL: 162  -0.32831E+00    0.00000E+00   -0.32831E+00    65
RMM:  15    -0.384776040058E+03   -0.34625E-04   -0.41264E-05  6610   0.229E-02    0.250E-03
SOL: 163  -0.32806E+00    0.00000E+00   -0.32806E+00    63
RMM:  16    -0.384776048305E+03   -0.82469E-05   -0.28130E-05  6560   0.190E-02
SOL: 164  -0.32785E+00    0.00000E+00   -0.32785E+00    63
   8 F= -.38477605E+03 E0= -.38476698E+03  d E =-.181407E-01  mag=     0.9532
 Finite differences progress:
  Degree of freedom:   4/ 30
  Displacement:        1/  2
  Total:               7/ 60
 bond charge predicted
       N       E                     dE             d eps       ncg     rms          rms(c)
SOL: 165  -0.32773E+00    0.00000E+00   -0.32773E+00    85
DAV:   1    -0.384783823240E+03   -0.77832E-02   -0.30747E+00  8352   0.180E+00    0.975E-01
SOL: 166  -0.30557E+00    0.00000E+00   -0.30557E+00    90
RMM:   2    -0.384780177761E+03    0.36455E-02   -0.85200E-02  7680   0.487E-01    0.448E-01
SOL: 167  -0.29051E+00    0.00000E+00   -0.29051E+00    87
RMM:   3    -0.384784191730E+03   -0.40140E-02   -0.10650E-02  7680   0.203E-01    0.153E+00
SOL: 168  -0.30366E+00    0.00000E+00   -0.30366E+00    88
RMM:   4    -0.384775050818E+03    0.91409E-02   -0.30262E-02  7680   0.376E-01    0.484E-01
SOL: 169  -0.30662E+00    0.00000E+00   -0.30662E+00    85
RMM:   5    -0.384776971771E+03   -0.19210E-02   -0.17301E-02  7680   0.270E-01    0.644E-01
SOL: 170  -0.29789E+00    0.00000E+00   -0.29789E+00    85
RMM:   6    -0.384777375078E+03   -0.40331E-03   -0.12303E-02  7680   0.268E-01    0.351E-01
SOL: 171  -0.29107E+00    0.00000E+00   -0.29107E+00    82
RMM:   7    -0.384776945210E+03    0.42987E-03   -0.17352E-03  7680   0.947E-02    0.544E-02
SOL: 172  -0.28792E+00    0.00000E+00   -0.28792E+00    81
RMM:   8    -0.384777992838E+03   -0.10476E-02   -0.20702E-03  7680   0.110E-01    0.336E-02
SOL: 173  -0.28512E+00    0.00000E+00   -0.28512E+00    78
RMM:   9    -0.384778193120E+03   -0.20028E-03   -0.20988E-04  6961   0.439E-02    0.690E-02
SOL: 174  -0.28025E+00    0.00000E+00   -0.28025E+00    80
RMM:  10    -0.384778482687E+03   -0.28957E-03   -0.19941E-04  7629   0.428E-02    0.315E-02
SOL: 175  -0.27555E+00    0.00000E+00   -0.27555E+00    79
RMM:  11    -0.384778451601E+03    0.31086E-04   -0.22227E-04  7680   0.473E-02    0.249E-02
SOL: 176  -0.27268E+00    0.00000E+00   -0.27268E+00    76
RMM:  12    -0.384778791386E+03   -0.33979E-03   -0.16785E-04  7620   0.444E-02    0.260E-02
SOL: 177  -0.27052E+00    0.00000E+00   -0.27052E+00    75
RMM:  13    -0.384779019493E+03   -0.22811E-03   -0.11348E-04  7195   0.375E-02    0.170E-02
SOL: 178  -0.26875E+00    0.00000E+00   -0.26875E+00    73
RMM:  14    -0.384778945483E+03    0.74010E-04   -0.11592E-04  7493   0.386E-02    0.132E-02
SOL: 179  -0.26781E+00    0.00000E+00   -0.26781E+00    69
RMM:  15    -0.384779030284E+03   -0.84801E-04   -0.96441E-05  6967   0.364E-02    0.134E-02
SOL: 180  -0.26694E+00    0.00000E+00   -0.26694E+00    69
RMM:  16    -0.384779183768E+03   -0.15348E-03   -0.96482E-05  7592   0.375E-02    0.126E-02
SOL: 181  -0.26603E+00    0.00000E+00   -0.26603E+00    70
RMM:  17    -0.384779317554E+03   -0.13379E-03   -0.13041E-04  7680   0.432E-02    0.121E-02
SOL: 182  -0.26555E+00    0.00000E+00   -0.26555E+00    69
RMM:  18    -0.384779528016E+03   -0.21046E-03   -0.11932E-04  7680   0.424E-02    0.850E-03
SOL: 183  -0.26543E+00    0.00000E+00   -0.26543E+00    66
RMM:  19    -0.384779538014E+03   -0.99988E-05   -0.97260E-05  7487   0.388E-02
SOL: 184  -0.26572E+00    0.00000E+00   -0.26572E+00    68
   9 F= -.38477954E+03 E0= -.38477181E+03  d E =-.154575E-01  mag=     1.0440
 Finite differences progress:
  Degree of freedom:   4/ 30
  Displacement:        2/  2
  Total:               8/ 60
 bond charge predicted
       N       E                     dE             d eps       ncg     rms          rms(c)
SOL: 185  -0.26577E+00    0.00000E+00   -0.26577E+00    87
DAV:   1    -0.384809243139E+03   -0.29715E-01   -0.17058E+00  8160   0.124E+00    0.263E+00
SOL: 186  -0.32889E+00    0.00000E+00   -0.32889E+00    95
RMM:   2    -0.384664483394E+03    0.14476E+00   -0.45620E-01  7680   0.103E+00    0.285E+00
SOL: 187  -0.31959E+00    0.00000E+00   -0.31959E+00    90
RMM:   3    -0.384773003839E+03   -0.10852E+00   -0.14360E-01  7680   0.734E-01    0.163E+00
SOL: 188  -0.30798E+00    0.00000E+00   -0.30798E+00    89
RMM:   4    -0.384764841344E+03    0.81625E-02   -0.33730E-02  7680   0.287E-01    0.620E-01
SOL: 189  -0.30423E+00    0.00000E+00   -0.30423E+00    87
RMM:   5    -0.384777583226E+03   -0.12742E-01   -0.19041E-02  7680   0.292E-01    0.664E-01
SOL: 190  -0.31703E+00    0.00000E+00   -0.31703E+00    86
RMM:   6    -0.384775695633E+03    0.18876E-02   -0.14116E-02  7680   0.275E-01    0.979E-02
SOL: 191  -0.32007E+00    0.00000E+00   -0.32007E+00    79
RMM:   7    -0.384776622414E+03   -0.92678E-03   -0.33226E-03  7680   0.142E-01    0.189E-01
SOL: 192  -0.32289E+00    0.00000E+00   -0.32289E+00    81
RMM:   8    -0.384777650820E+03   -0.10284E-02   -0.13596E-03  7680   0.954E-02    0.421E-02
SOL: 193  -0.32719E+00    0.00000E+00   -0.32719E+00    80
RMM:   9    -0.384778365189E+03   -0.71437E-03   -0.70717E-04  7680   0.709E-02    0.138E-01
SOL: 194  -0.33293E+00    0.00000E+00   -0.33293E+00    79
RMM:  10    -0.384778355732E+03    0.94568E-05   -0.51645E-04  7680   0.641E-02    0.894E-02
SOL: 195  -0.34004E+00    0.00000E+00   -0.34004E+00    79
RMM:  11    -0.384778981537E+03   -0.62581E-03   -0.30326E-04  7680   0.574E-02    0.712E-02
SOL: 196  -0.34648E+00    0.00000E+00   -0.34648E+00    79
RMM:  12    -0.384779085812E+03   -0.10428E-03   -0.27665E-04  7680   0.567E-02    0.190E-02
SOL: 197  -0.35024E+00    0.00000E+00   -0.35024E+00    75
RMM:  13    -0.384779277178E+03   -0.19137E-03   -0.26782E-04  7673   0.563E-02    0.153E-02
SOL: 198  -0.35304E+00    0.00000E+00   -0.35304E+00    74
RMM:  14    -0.384779329658E+03   -0.52480E-04   -0.17029E-04  7655   0.487E-02    0.123E-02
SOL: 199  -0.35484E+00    0.00000E+00   -0.35484E+00    72
RMM:  15    -0.384779277141E+03    0.52517E-04   -0.13194E-04  7638   0.450E-02    0.153E-02
SOL: 200  -0.35520E+00    0.00000E+00   -0.35520E+00    70
RMM:  16    -0.384779306609E+03   -0.29469E-04   -0.11450E-04  7629   0.431E-02    0.767E-03
SOL: 201  -0.35539E+00    0.00000E+00   -0.35539E+00    69
RMM:  17    -0.384779207551E+03    0.99059E-04   -0.98967E-05  7494   0.402E-02    0.106E-02
SOL: 202  -0.35526E+00    0.00000E+00   -0.35526E+00    68
RMM:  18    -0.384779212809E+03   -0.52585E-05   -0.86336E-05  7358   0.380E-02
SOL: 203  -0.35501E+00    0.00000E+00   -0.35501E+00    69
  10 F= -.38477921E+03 E0= -.38476972E+03  d E =-.189955E-01  mag=     0.9187
 Finite differences progress:
  Degree of freedom:   5/ 30
  Displacement:        1/  2
  Total:               9/ 60
 bond charge predicted
       N       E                     dE             d eps       ncg     rms          rms(c)
SOL: 204  -0.35531E+00    0.00000E+00   -0.35531E+00    87
DAV:   1    -0.384794448843E+03   -0.15241E-01   -0.33153E+00  8544   0.175E+00    0.105E+00
SOL: 205  -0.32988E+00    0.00000E+00   -0.32988E+00    91
RMM:   2    -0.384790591700E+03    0.38571E-02   -0.87682E-02  7680   0.496E-01    0.504E-01
SOL: 206  -0.30678E+00    0.00000E+00   -0.30678E+00    89
RMM:   3    -0.384781199396E+03    0.93923E-02   -0.15502E-02  7680   0.233E-01    0.842E-01
SOL: 207  -0.31681E+00    0.00000E+00   -0.31681E+00    88
RMM:   4    -0.384781457570E+03   -0.25817E-03   -0.18980E-02  7680   0.271E-01    0.376E-01
SOL: 208  -0.30007E+00    0.00000E+00   -0.30007E+00    87
RMM:   5    -0.384783046656E+03   -0.15891E-02   -0.80910E-03  7680   0.217E-01    0.203E-01
SOL: 209  -0.28621E+00    0.00000E+00   -0.28621E+00    85
RMM:   6    -0.384783754203E+03   -0.70755E-03   -0.15606E-03  7680   0.913E-02    0.303E-01
SOL: 210  -0.28466E+00    0.00000E+00   -0.28466E+00    83
RMM:   7    -0.384782993374E+03    0.76083E-03   -0.31422E-03  7680   0.138E-01    0.544E-02
SOL: 211  -0.27773E+00    0.00000E+00   -0.27773E+00    81
RMM:   8    -0.384784005311E+03   -0.10119E-02   -0.11967E-03  7680   0.892E-02    0.121E-01
SOL: 212  -0.27028E+00    0.00000E+00   -0.27028E+00    81
RMM:   9    -0.384784196806E+03   -0.19149E-03   -0.55695E-04  7680   0.657E-02    0.659E-02
SOL: 213  -0.26182E+00    0.00000E+00   -0.26182E+00    82
RMM:  10    -0.384784475484E+03   -0.27868E-03   -0.32099E-04  7680   0.524E-02    0.466E-02
SOL: 214  -0.25495E+00    0.00000E+00   -0.25495E+00    80
RMM:  11    -0.384784924413E+03   -0.44893E-03   -0.27826E-04  7680   0.522E-02    0.310E-02
SOL: 215  -0.25131E+00    0.00000E+00   -0.25131E+00    77
RMM:  12    -0.384785309434E+03   -0.38502E-03   -0.19783E-04  7680   0.483E-02    0.209E-02
SOL: 216  -0.24839E+00    0.00000E+00   -0.24839E+00    75
RMM:  13    -0.384785481717E+03   -0.17228E-03   -0.22793E-04  7680   0.529E-02    0.194E-02
SOL: 217  -0.24654E+00    0.00000E+00   -0.24654E+00    72
RMM:  14    -0.384785681922E+03   -0.20020E-03   -0.17755E-04  7680   0.493E-02    0.195E-02
SOL: 218  -0.24514E+00    0.00000E+00   -0.24514E+00    71
RMM:  15    -0.384785943438E+03   -0.26152E-03   -0.15026E-04  7680   0.461E-02    0.181E-02
SOL: 219  -0.24401E+00    0.00000E+00   -0.24401E+00    72
RMM:  16    -0.384786247913E+03   -0.30448E-03   -0.18999E-04  7680   0.535E-02    0.141E-02
SOL: 220  -0.24347E+00    0.00000E+00   -0.24347E+00    72
RMM:  17    -0.384786487599E+03   -0.23969E-03   -0.20867E-04  7680   0.578E-02    0.116E-02
SOL: 221  -0.24368E+00    0.00000E+00   -0.24368E+00    70
RMM:  18    -0.384786792634E+03   -0.30504E-03   -0.16184E-04  7680   0.506E-02    0.894E-03
SOL: 222  -0.24417E+00    0.00000E+00   -0.24417E+00    70
RMM:  19    -0.384786736382E+03    0.56252E-04   -0.14299E-04  7679   0.478E-02    0.927E-03
SOL: 223  -0.24449E+00    0.00000E+00   -0.24449E+00    70
RMM:  20    -0.384786680889E+03    0.55493E-04   -0.13967E-04  7679   0.471E-02    0.817E-03
SOL: 224  -0.24452E+00    0.00000E+00   -0.24452E+00    70
RMM:  21    -0.384786650321E+03    0.30568E-04   -0.10311E-04  7426   0.407E-02    0.461E-03
SOL: 225  -0.24457E+00    0.00000E+00   -0.24457E+00    68
RMM:  22    -0.384786651711E+03   -0.13897E-05   -0.80374E-05  7095   0.355E-02
SOL: 226  -0.24451E+00    0.00000E+00   -0.24451E+00    66
  11 F= -.38478665E+03 E0= -.38477944E+03  d E =-.144300E-01  mag=     1.0831
 Finite differences progress:
  Degree of freedom:   5/ 30
  Displacement:        2/  2
  Total:              10/ 60
 bond charge predicted
       N       E                     dE             d eps       ncg     rms          rms(c)
SOL: 227  -0.24544E+00    0.00000E+00   -0.24544E+00    87
DAV:   1    -0.384796036654E+03   -0.93863E-02   -0.16415E+00  8256   0.126E+00    0.211E+00
SOL: 228  -0.28986E+00    0.00000E+00   -0.28986E+00    94
RMM:   2    -0.384686213476E+03    0.10982E+00   -0.31225E-01  7680   0.863E-01    0.203E+00
SOL: 229  -0.28540E+00    0.00000E+00   -0.28540E+00    89
RMM:   3    -0.384767298878E+03   -0.81085E-01   -0.84123E-02  7680   0.571E-01    0.136E+00
SOL: 230  -0.27534E+00    0.00000E+00   -0.27534E+00    88
RMM:   4    -0.384764174950E+03    0.31239E-02   -0.25439E-02  7680   0.262E-01    0.447E-01
SOL: 231  -0.27252E+00    0.00000E+00   -0.27252E+00    86
RMM:   5    -0.384774737668E+03   -0.10563E-01   -0.17108E-02  7680   0.284E-01    0.657E-01
SOL: 232  -0.28360E+00    0.00000E+00   -0.28360E+00    86
RMM:   6    -0.384772264897E+03    0.24728E-02   -0.11310E-02  7680   0.249E-01    0.971E-02
SOL: 233  -0.28448E+00    0.00000E+00   -0.28448E+00    80
RMM:   7    -0.384773835509E+03   -0.15706E-02   -0.46765E-03  7680   0.169E-01    0.212E-01
SOL: 234  -0.28523E+00    0.00000E+00   -0.28523E+00    81
RMM:   8    -0.384774756243E+03   -0.92073E-03   -0.96166E-04  7680   0.814E-02    0.331E-02
SOL: 235  -0.28755E+00    0.00000E+00   -0.28755E+00    79
RMM:   9    -0.384775548888E+03   -0.79264E-03   -0.76923E-04  7680   0.750E-02    0.861E-02
SOL: 236  -0.29111E+00    0.00000E+00   -0.29111E+00    79
RMM:  10    -0.384775885657E+03   -0.33677E-03   -0.48873E-04  7680   0.660E-02    0.643E-02
SOL: 237  -0.29449E+00    0.00000E+00   -0.29449E+00    79
RMM:  11    -0.384776611560E+03   -0.72590E-03   -0.26685E-04  7680   0.548E-02    0.596E-02
SOL: 238  -0.29801E+00    0.00000E+00   -0.29801E+00    78
RMM:  12    -0.384776743592E+03   -0.13203E-03   -0.22181E-04  7680   0.527E-02    0.157E-02
SOL: 239  -0.30013E+00    0.00000E+00   -0.30013E+00    75
RMM:  13    -0.384776764503E+03   -0.20912E-04   -0.22574E-04  7675   0.538E-02    0.119E-02
SOL: 240  -0.30137E+00    0.00000E+00   -0.30137E+00    72
RMM:  14    -0.384776693275E+03    0.71229E-04   -0.12947E-04  7430   0.429E-02    0.178E-02
SOL: 241  -0.30225E+00    0.00000E+00   -0.30225E+00    70
RMM:  15    -0.384776605384E+03    0.87891E-04   -0.11640E-04  7448   0.419E-02    0.131E-02
SOL: 242  -0.30266E+00    0.00000E+00   -0.30266E+00    68
RMM:  16    -0.384776622427E+03   -0.17043E-04   -0.97651E-05  7297   0.394E-02    0.443E-03
SOL: 243  -0.30288E+00    0.00000E+00   -0.30288E+00    66
RMM:  17    -0.384776598952E+03    0.23475E-04   -0.67587E-05  6841   0.326E-02    0.402E-03
SOL: 244  -0.30289E+00    0.00000E+00   -0.30289E+00    65
RMM:  18    -0.384776575113E+03    0.23840E-04   -0.59113E-05  6729   0.306E-02    0.455E-03
SOL: 245  -0.30287E+00    0.00000E+00   -0.30287E+00    67
RMM:  19    -0.384776603676E+03   -0.28563E-04   -0.60502E-05  6733   0.311E-02    0.479E-03
SOL: 246  -0.30289E+00    0.00000E+00   -0.30289E+00    65
RMM:  20    -0.384776561672E+03    0.42004E-04   -0.53978E-05  6732   0.291E-02    0.350E-03
SOL: 247  -0.30293E+00    0.00000E+00   -0.30293E+00    61
RMM:  21    -0.384776552404E+03    0.92676E-05   -0.41732E-05  6642   0.246E-02
SOL: 248  -0.30294E+00    0.00000E+00   -0.30294E+00    57
  12 F= -.38477655E+03 E0= -.38476780E+03  d E =-.175010E-01  mag=     0.9893
 Finite differences progress:
  Degree of freedom:   6/ 30
  Displacement:        1/  2
  Total:              11/ 60
 bond charge predicted
       N       E                     dE             d eps       ncg     rms          rms(c)
SOL: 249  -0.30144E+00    0.00000E+00   -0.30144E+00    89
DAV:   1    -0.384772417392E+03    0.41443E-02   -0.33250E+00 10560   0.175E+00    0.596E-01
SOL: 250  -0.29337E+00    0.00000E+00   -0.29337E+00    87
RMM:   2    -0.384780097582E+03   -0.76802E-02   -0.47361E-02  7680   0.357E-01    0.344E-01
SOL: 251  -0.29145E+00    0.00000E+00   -0.29145E+00    81
RMM:   3    -0.384778610078E+03    0.14875E-02   -0.43424E-03  7680   0.137E-01    0.505E-01
SOL: 252  -0.29458E+00    0.00000E+00   -0.29458E+00    82
RMM:   4    -0.384776595130E+03    0.20149E-02   -0.37016E-03  7680   0.148E-01    0.252E-01
SOL: 253  -0.29856E+00    0.00000E+00   -0.29856E+00    85
RMM:   5    -0.384778006220E+03   -0.14111E-02   -0.48300E-03  7680   0.142E-01    0.545E-01
SOL: 254  -0.29387E+00    0.00000E+00   -0.29387E+00    84
RMM:   6    -0.384777153839E+03    0.85238E-03   -0.62276E-03  7680   0.183E-01    0.106E-01
SOL: 255  -0.29285E+00    0.00000E+00   -0.29285E+00    79
RMM:   7    -0.384777610982E+03   -0.45714E-03   -0.18869E-03  7680   0.106E-01    0.795E-02
SOL: 256  -0.29328E+00    0.00000E+00   -0.29328E+00    79
RMM:   8    -0.384777929480E+03   -0.31850E-03   -0.78176E-04  7680   0.712E-02    0.268E-02
SOL: 257  -0.29280E+00    0.00000E+00   -0.29280E+00    76
RMM:   9    -0.384777996123E+03   -0.66643E-04   -0.16337E-04  6820   0.394E-02    0.280E-02
SOL: 258  -0.29219E+00    0.00000E+00   -0.29219E+00    77
RMM:  10    -0.384778021877E+03   -0.25753E-04   -0.10604E-04  6944   0.352E-02    0.102E-02
SOL: 259  -0.29176E+00    0.00000E+00   -0.29176E+00    76
RMM:  11    -0.384778046381E+03   -0.24504E-04   -0.10941E-04  7037   0.364E-02    0.134E-02
SOL: 260  -0.29126E+00    0.00000E+00   -0.29126E+00    75
RMM:  12    -0.384778100921E+03   -0.54540E-04   -0.80415E-05  6801   0.315E-02    0.139E-02
SOL: 261  -0.29075E+00    0.00000E+00   -0.29075E+00    74
RMM:  13    -0.384778147816E+03   -0.46895E-04   -0.64760E-05  6710   0.287E-02    0.752E-03
SOL: 262  -0.29028E+00    0.00000E+00   -0.29028E+00    73
RMM:  14    -0.384778185718E+03   -0.37902E-04   -0.63375E-05  6716   0.288E-02    0.621E-03
SOL: 263  -0.29002E+00    0.00000E+00   -0.29002E+00    68
RMM:  15    -0.384778207500E+03   -0.21782E-04   -0.60865E-05  6718   0.287E-02    0.470E-03
SOL: 264  -0.28982E+00    0.00000E+00   -0.28982E+00    68
RMM:  16    -0.384778258953E+03   -0.51453E-04   -0.57693E-05  6708   0.286E-02    0.501E-03
SOL: 265  -0.28969E+00    0.00000E+00   -0.28969E+00    67
RMM:  17    -0.384778357362E+03   -0.98408E-04   -0.60056E-05  6718   0.293E-02    0.681E-03
SOL: 266  -0.28959E+00    0.00000E+00   -0.28959E+00    65
RMM:  18    -0.384778369464E+03   -0.12103E-04   -0.47837E-05  6703   0.263E-02    0.473E-03
SOL: 267  -0.28954E+00    0.00000E+00   -0.28954E+00    65
RMM:  19    -0.384778362870E+03    0.65942E-05   -0.45682E-05  6689   0.258E-02
SOL: 268  -0.28952E+00    0.00000E+00   -0.28952E+00    64
  13 F= -.38477836E+03 E0= -.38477021E+03  d E =-.163084E-01  mag=     1.0299
 Finite differences progress:
  Degree of freedom:   6/ 30
  Displacement:        2/  2
  Total:              12/ 60
 bond charge predicted
       N       E                     dE             d eps       ncg     rms          rms(c)
SOL: 269  -0.29070E+00    0.00000E+00   -0.29070E+00    88
DAV:   1    -0.384762933587E+03    0.15436E-01   -0.18125E+00  7680   0.154E+00    0.567E-01
SOL: 270  -0.28281E+00    0.00000E+00   -0.28281E+00    86
RMM:   2    -0.384771211803E+03   -0.82782E-02   -0.34518E-02  7680   0.316E-01    0.377E-01
SOL: 271  -0.27002E+00    0.00000E+00   -0.27002E+00    87
RMM:   3    -0.384775875526E+03   -0.46637E-02   -0.10046E-02  7680   0.159E-01    0.113E+00
SOL: 272  -0.27467E+00    0.00000E+00   -0.27467E+00    85
RMM:   4    -0.384770734393E+03    0.51411E-02   -0.15171E-02  7680   0.287E-01    0.879E-01
SOL: 273  -0.28170E+00    0.00000E+00   -0.28170E+00    86
RMM:   5    -0.384764859657E+03    0.58747E-02   -0.76961E-03  7680   0.152E-01    0.443E-01
SOL: 274  -0.27763E+00    0.00000E+00   -0.27763E+00    84
RMM:   6    -0.384769817811E+03   -0.49582E-02   -0.16402E-02  7680   0.302E-01    0.345E-01
SOL: 275  -0.27536E+00    0.00000E+00   -0.27536E+00    79
RMM:   7    -0.384768579850E+03    0.12380E-02   -0.81536E-04  7680   0.677E-02    0.149E-01
SOL: 276  -0.27359E+00    0.00000E+00   -0.27359E+00    78
RMM:   8    -0.384768995995E+03   -0.41614E-03   -0.68008E-04  7606   0.681E-02    0.791E-02
SOL: 277  -0.27191E+00    0.00000E+00   -0.27191E+00    77
RMM:   9    -0.384769412161E+03   -0.41617E-03   -0.22035E-04  7059   0.429E-02    0.456E-02
SOL: 278  -0.27024E+00    0.00000E+00   -0.27024E+00    76
RMM:  10    -0.384769645489E+03   -0.23333E-03   -0.12976E-04  6849   0.367E-02    0.312E-02
SOL: 279  -0.26890E+00    0.00000E+00   -0.26890E+00    74
RMM:  11    -0.384769677409E+03   -0.31919E-04   -0.90342E-05  6814   0.335E-02    0.236E-02
SOL: 280  -0.26696E+00    0.00000E+00   -0.26696E+00    76
RMM:  12    -0.384769791317E+03   -0.11391E-03   -0.85278E-05  6731   0.321E-02    0.112E-02
SOL: 281  -0.26553E+00    0.00000E+00   -0.26553E+00    73
RMM:  13    -0.384769811103E+03   -0.19786E-04   -0.93764E-05  6876   0.344E-02    0.959E-03
SOL: 282  -0.26447E+00    0.00000E+00   -0.26447E+00    71
RMM:  14    -0.384769807809E+03    0.32942E-05   -0.63768E-05  6706   0.289E-02
SOL: 283  -0.26368E+00    0.00000E+00   -0.26368E+00    69
  14 F= -.38476981E+03 E0= -.38476198E+03  d E =-.156559E-01  mag=     1.0402
 Finite differences progress:
  Degree of freedom:   7/ 30
  Displacement:        1/  2
  Total:              13/ 60
 bond charge predicted
       N       E                     dE             d eps       ncg     rms          rms(c)
SOL: 284  -0.26356E+00    0.00000E+00   -0.26356E+00    89
DAV:   1    -0.384770951128E+03   -0.11400E-02   -0.39035E+00  7680   0.190E+00    0.179E+00
SOL: 285  -0.30063E+00    0.00000E+00   -0.30063E+00    93
RMM:   2    -0.384708689391E+03    0.62262E-01   -0.21715E-01  7680   0.748E-01    0.146E+00
SOL: 286  -0.30048E+00    0.00000E+00   -0.30048E+00    87
RMM:   3    -0.384762847024E+03   -0.54158E-01   -0.49631E-02  7680   0.433E-01    0.131E+00
SOL: 287  -0.28641E+00    0.00000E+00   -0.28641E+00    89
RMM:   4    -0.384762467147E+03    0.37988E-03   -0.31129E-02  7680   0.292E-01    0.593E-01
SOL: 288  -0.30026E+00    0.00000E+00   -0.30026E+00    87
RMM:   5    -0.384763801309E+03   -0.13342E-02   -0.20735E-02  7680   0.331E-01    0.222E-01
SOL: 289  -0.30567E+00    0.00000E+00   -0.30567E+00    82
RMM:   6    -0.384764166527E+03   -0.36522E-03   -0.27966E-03  7680   0.122E-01    0.352E-01
SOL: 290  -0.30496E+00    0.00000E+00   -0.30496E+00    83
RMM:   7    -0.384765257765E+03   -0.10912E-02   -0.37702E-03  7680   0.145E-01    0.892E-02
SOL: 291  -0.30791E+00    0.00000E+00   -0.30791E+00    80
RMM:   8    -0.384765755174E+03   -0.49741E-03   -0.17100E-03  7680   0.103E-01    0.527E-02
SOL: 292  -0.31101E+00    0.00000E+00   -0.31101E+00    78
RMM:   9    -0.384766049723E+03   -0.29455E-03   -0.26136E-04  7407   0.508E-02    0.223E-02
SOL: 293  -0.31486E+00    0.00000E+00   -0.31486E+00    78
RMM:  10    -0.384766747867E+03   -0.69814E-03   -0.23284E-04  7680   0.489E-02    0.316E-02
SOL: 294  -0.31780E+00    0.00000E+00   -0.31780E+00    76
RMM:  11    -0.384766956628E+03   -0.20876E-03   -0.16582E-04  7610   0.445E-02    0.384E-02
SOL: 295  -0.32193E+00    0.00000E+00   -0.32193E+00    78
RMM:  12    -0.384767127301E+03   -0.17067E-03   -0.17890E-04  7676   0.480E-02    0.125E-02
SOL: 296  -0.32529E+00    0.00000E+00   -0.32529E+00    76
RMM:  13    -0.384767214080E+03   -0.86779E-04   -0.18166E-04  7679   0.484E-02    0.824E-03
SOL: 297  -0.32624E+00    0.00000E+00   -0.32624E+00    69
RMM:  14    -0.384767196931E+03    0.17150E-04   -0.12223E-04  7349   0.421E-02    0.642E-03
SOL: 298  -0.32679E+00    0.00000E+00   -0.32679E+00    69
RMM:  15    -0.384767187753E+03    0.91775E-05   -0.88817E-05  7094   0.372E-02
SOL: 299  -0.32699E+00    0.00000E+00   -0.32699E+00    68
  15 F= -.38476719E+03 E0= -.38475807E+03  d E =-.182373E-01  mag=     0.9595
 Finite differences progress:
  Degree of freedom:   7/ 30
  Displacement:        2/  2
  Total:              14/ 60
 bond charge predicted
       N       E                     dE             d eps       ncg     rms          rms(c)
SOL: 300  -0.32729E+00    0.00000E+00   -0.32729E+00    89
DAV:   1    -0.384785847668E+03   -0.18651E-01   -0.17346E+00  8448   0.130E+00    0.910E-01
SOL: 301  -0.30454E+00    0.00000E+00   -0.30454E+00    90
RMM:   2    -0.384793873230E+03   -0.80256E-02   -0.74687E-02  7680   0.455E-01    0.422E-01
SOL: 302  -0.28359E+00    0.00000E+00   -0.28359E+00    88
RMM:   3    -0.384786017371E+03    0.78559E-02   -0.13039E-02  7680   0.201E-01    0.667E-01
SOL: 303  -0.29206E+00    0.00000E+00   -0.29206E+00    88
RMM:   4    -0.384786266592E+03   -0.24922E-03   -0.15288E-02  7680   0.234E-01    0.336E-01
SOL: 304  -0.27369E+00    0.00000E+00   -0.27369E+00    87
RMM:   5    -0.384787590800E+03   -0.13242E-02   -0.61876E-03  7680   0.177E-01    0.889E-02
SOL: 305  -0.26393E+00    0.00000E+00   -0.26393E+00    83
RMM:   6    -0.384787697000E+03   -0.10620E-03   -0.11975E-03  7680   0.898E-02    0.246E-01
SOL: 306  -0.26194E+00    0.00000E+00   -0.26194E+00    83
RMM:   7    -0.384786892710E+03    0.80429E-03   -0.17573E-03  7680   0.107E-01    0.961E-02
SOL: 307  -0.25430E+00    0.00000E+00   -0.25430E+00    82
RMM:   8    -0.384787783990E+03   -0.89128E-03   -0.13577E-03  7680   0.946E-02    0.893E-02
SOL: 308  -0.24739E+00    0.00000E+00   -0.24739E+00    81
RMM:   9    -0.384787868134E+03   -0.84144E-04   -0.34791E-04  7680   0.541E-02    0.727E-02
SOL: 309  -0.24092E+00    0.00000E+00   -0.24092E+00    80
RMM:  10    -0.384788092500E+03   -0.22437E-03   -0.20358E-04  7680   0.437E-02    0.365E-02
SOL: 310  -0.23497E+00    0.00000E+00   -0.23497E+00    79
RMM:  11    -0.384788453423E+03   -0.36092E-03   -0.22684E-04  7680   0.472E-02    0.338E-02
SOL: 311  -0.23120E+00    0.00000E+00   -0.23120E+00    77
RMM:  12    -0.384788952004E+03   -0.49858E-03   -0.17066E-04  7680   0.448E-02    0.220E-02
SOL: 312  -0.22825E+00    0.00000E+00   -0.22825E+00    75
RMM:  13    -0.384789279426E+03   -0.32742E-03   -0.21534E-04  7680   0.516E-02    0.159E-02
SOL: 313  -0.22642E+00    0.00000E+00   -0.22642E+00    73
RMM:  14    -0.384789566887E+03   -0.28746E-03   -0.19224E-04  7680   0.511E-02    0.148E-02
SOL: 314  -0.22505E+00    0.00000E+00   -0.22505E+00    73
RMM:  15    -0.384789931378E+03   -0.36449E-03   -0.17362E-04  7680   0.507E-02    0.116E-02
SOL: 315  -0.22453E+00    0.00000E+00   -0.22453E+00    71
RMM:  16    -0.384790172013E+03   -0.24063E-03   -0.16535E-04  7680   0.504E-02    0.964E-03
SOL: 316  -0.22502E+00    0.00000E+00   -0.22502E+00    72
RMM:  17    -0.384790152732E+03    0.19281E-04   -0.13973E-04  7679   0.470E-02    0.705E-03
SOL: 317  -0.22562E+00    0.00000E+00   -0.22562E+00    71
RMM:  18    -0.384790173374E+03   -0.20642E-04   -0.12174E-04  7634   0.438E-02    0.776E-03
SOL: 318  -0.22586E+00    0.00000E+00   -0.22586E+00    66
RMM:  19    -0.384790096348E+03    0.77026E-04   -0.93777E-05  7201   0.385E-02    0.650E-03
SOL: 319  -0.22590E+00    0.00000E+00   -0.22590E+00    68
RMM:  20    -0.384790052487E+03    0.43861E-04   -0.78755E-05  6915   0.350E-02    0.371E-03
SOL: 320  -0.22593E+00    0.00000E+00   -0.22593E+00    67
RMM:  21    -0.384790083436E+03   -0.30948E-04   -0.64499E-05  6766   0.316E-02    0.306E-03
SOL: 321  -0.22596E+00    0.00000E+00   -0.22596E+00    65
RMM:  22    -0.384790050939E+03    0.32497E-04   -0.53665E-05  6728   0.289E-02    0.238E-03
SOL: 322  -0.22597E+00    0.00000E+00   -0.22597E+00    65
RMM:  23    -0.384790053222E+03   -0.22835E-05   -0.44870E-05  6716   0.260E-02
SOL: 323  -0.22591E+00    0.00000E+00   -0.22591E+00    64
  16 F= -.38479005E+03 E0= -.38478310E+03  d E =-.139128E-01  mag=     1.1013
 Finite differences progress:
  Degree of freedom:   8/ 30
  Displacement:        1/  2
  Total:              15/ 60
 bond charge predicted
       N       E                     dE             d eps       ncg     rms          rms(c)
SOL: 324  -0.22584E+00    0.00000E+00   -0.22584E+00    91
DAV:   1    -0.384824141194E+03   -0.34090E-01   -0.36516E+00  7680   0.180E+00    0.347E+00
SOL: 325  -0.30374E+00    0.00000E+00   -0.30374E+00    97
RMM:   2    -0.384588981496E+03    0.23516E+00   -0.81623E-01  7680   0.136E+00    0.332E+00
SOL: 326  -0.29858E+00    0.00000E+00   -0.29858E+00    91
RMM:   3    -0.384768419546E+03   -0.17944E+00   -0.22024E-01  7680   0.905E-01    0.187E+00
SOL: 327  -0.28761E+00    0.00000E+00   -0.28761E+00    90
RMM:   4    -0.384758971306E+03    0.94482E-02   -0.56839E-02  7680   0.375E-01    0.632E-01
SOL: 328  -0.28916E+00    0.00000E+00   -0.28916E+00    89
RMM:   5    -0.384779004989E+03   -0.20034E-01   -0.31815E-02  7680   0.371E-01    0.105E+00
SOL: 329  -0.30721E+00    0.00000E+00   -0.30721E+00    87
RMM:   6    -0.384773062621E+03    0.59424E-02   -0.20956E-02  7680   0.337E-01    0.235E-01
SOL: 330  -0.31532E+00    0.00000E+00   -0.31532E+00    83
RMM:   7    -0.384774383710E+03   -0.13211E-02   -0.66199E-03  7680   0.198E-01    0.302E-01
SOL: 331  -0.32013E+00    0.00000E+00   -0.32013E+00    84
RMM:   8    -0.384775619900E+03   -0.12362E-02   -0.40183E-03  7680   0.166E-01    0.797E-02
SOL: 332  -0.32735E+00    0.00000E+00   -0.32735E+00    82
RMM:   9    -0.384777212244E+03   -0.15923E-02   -0.16952E-03  7680   0.112E-01    0.191E-01
SOL: 333  -0.33875E+00    0.00000E+00   -0.33875E+00    82
RMM:  10    -0.384778146493E+03   -0.93425E-03   -0.10232E-03  7680   0.933E-02    0.151E-01
SOL: 334  -0.35159E+00    0.00000E+00   -0.35159E+00    81
RMM:  11    -0.384779027200E+03   -0.88071E-03   -0.59644E-04  7680   0.774E-02    0.105E-01
SOL: 335  -0.36315E+00    0.00000E+00   -0.36315E+00    81
RMM:  12    -0.384779356118E+03   -0.32892E-03   -0.48262E-04  7680   0.726E-02    0.363E-02
SOL: 336  -0.37009E+00    0.00000E+00   -0.37009E+00    78
RMM:  13    -0.384779459609E+03   -0.10349E-03   -0.41714E-04  7680   0.686E-02    0.219E-02
SOL: 337  -0.37568E+00    0.00000E+00   -0.37568E+00    76
RMM:  14    -0.384779314122E+03    0.14549E-03   -0.31326E-04  7680   0.652E-02    0.293E-02
SOL: 338  -0.37733E+00    0.00000E+00   -0.37733E+00    72
RMM:  15    -0.384779308505E+03    0.56166E-05   -0.22144E-04  7680   0.594E-02    0.261E-02
SOL: 339  -0.37786E+00    0.00000E+00   -0.37786E+00    74
RMM:  16    -0.384779314318E+03   -0.58127E-05   -0.20400E-04  7680   0.589E-02    0.115E-02
SOL: 340  -0.37785E+00    0.00000E+00   -0.37785E+00    73
RMM:  17    -0.384779030344E+03    0.28397E-03   -0.19894E-04  7680   0.593E-02    0.211E-02
SOL: 341  -0.37750E+00    0.00000E+00   -0.37750E+00    70
RMM:  18    -0.384778926430E+03    0.10391E-03   -0.17088E-04  7680   0.560E-02    0.237E-02
SOL: 342  -0.37714E+00    0.00000E+00   -0.37714E+00    72
RMM:  19    -0.384778697742E+03    0.22869E-03   -0.16847E-04  7680   0.546E-02    0.134E-02
SOL: 343  -0.37697E+00    0.00000E+00   -0.37697E+00    69
RMM:  20    -0.384778657045E+03    0.40697E-04   -0.11627E-04  7673   0.432E-02    0.546E-03
SOL: 344  -0.37657E+00    0.00000E+00   -0.37657E+00    67
RMM:  21    -0.384778581740E+03    0.75305E-04   -0.74791E-05  6741   0.327E-02    0.501E-03
SOL: 345  -0.37629E+00    0.00000E+00   -0.37629E+00    65
RMM:  22    -0.384778603784E+03   -0.22044E-04   -0.66509E-05  6731   0.308E-02    0.517E-03
SOL: 346  -0.37572E+00    0.00000E+00   -0.37572E+00    68
RMM:  23    -0.384778655194E+03   -0.51410E-04   -0.58270E-05  6713   0.280E-02    0.328E-03
SOL: 347  -0.37547E+00    0.00000E+00   -0.37547E+00    68
RMM:  24    -0.384778743027E+03   -0.87833E-04   -0.51227E-05  6653   0.260E-02    0.303E-03
SOL: 348  -0.37532E+00    0.00000E+00   -0.37532E+00    65
RMM:  25    -0.384778790915E+03   -0.47888E-04   -0.36735E-05  6583   0.217E-02    0.223E-03
SOL: 349  -0.37526E+00    0.00000E+00   -0.37526E+00    65
RMM:  26    -0.384778787482E+03    0.34335E-05   -0.30522E-05  6573   0.197E-02
SOL: 350  -0.37524E+00    0.00000E+00   -0.37524E+00    62
  17 F= -.38477879E+03 E0= -.38476910E+03  d E =-.193687E-01  mag=     0.8598
 Finite differences progress:
  Degree of freedom:   8/ 30
  Displacement:        2/  2
  Total:              16/ 60
 bond charge predicted
       N       E                     dE             d eps       ncg     rms          rms(c)
SOL: 351  -0.37595E+00    0.00000E+00   -0.37595E+00    90
DAV:   1    -0.384778038101E+03    0.75281E-03   -0.16997E+00  8928   0.127E+00    0.965E-01
SOL: 352  -0.34886E+00    0.00000E+00   -0.34886E+00    90
RMM:   2    -0.384781030814E+03   -0.29927E-02   -0.76881E-02  7680   0.464E-01    0.476E-01
SOL: 353  -0.33927E+00    0.00000E+00   -0.33927E+00    84
RMM:   3    -0.384787737170E+03   -0.67064E-02   -0.10722E-02  7680   0.211E-01    0.148E+00
SOL: 354  -0.35546E+00    0.00000E+00   -0.35546E+00    88
RMM:   4    -0.384776972547E+03    0.10765E-01   -0.28654E-02  7680   0.354E-01    0.178E-01
SOL: 355  -0.35046E+00    0.00000E+00   -0.35046E+00    83
RMM:   5    -0.384782148480E+03   -0.51759E-02   -0.19176E-02  7680   0.301E-01    0.575E-01
SOL: 356  -0.34285E+00    0.00000E+00   -0.34285E+00    84
RMM:   6    -0.384780867810E+03    0.12807E-02   -0.55003E-03  7680   0.174E-01    0.170E-01
SOL: 357  -0.33953E+00    0.00000E+00   -0.33953E+00    78
RMM:   7    -0.384780886489E+03   -0.18679E-04   -0.15917E-03  7680   0.972E-02    0.378E-02
SOL: 358  -0.33602E+00    0.00000E+00   -0.33602E+00    79
RMM:   8    -0.384781374858E+03   -0.48837E-03   -0.51884E-04  7675   0.620E-02    0.661E-02
SOL: 359  -0.33280E+00    0.00000E+00   -0.33280E+00    78
RMM:   9    -0.384781467356E+03   -0.92498E-04   -0.14248E-04  6872   0.385E-02    0.582E-02
SOL: 360  -0.32755E+00    0.00000E+00   -0.32755E+00    79
RMM:  10    -0.384781576269E+03   -0.10891E-03   -0.15259E-04  6922   0.392E-02    0.226E-02
SOL: 361  -0.32378E+00    0.00000E+00   -0.32378E+00    76
RMM:  11    -0.384781654728E+03   -0.78458E-04   -0.14792E-04  6918   0.412E-02    0.176E-02
SOL: 362  -0.32066E+00    0.00000E+00   -0.32066E+00    75
RMM:  12    -0.384781698399E+03   -0.43671E-04   -0.10848E-04  6793   0.363E-02    0.134E-02
SOL: 363  -0.31816E+00    0.00000E+00   -0.31816E+00    74
RMM:  13    -0.384781843069E+03   -0.14467E-03   -0.96026E-05  6765   0.347E-02    0.102E-02
SOL: 364  -0.31624E+00    0.00000E+00   -0.31624E+00    72
RMM:  14    -0.384781867638E+03   -0.24569E-04   -0.75159E-05  6726   0.314E-02    0.845E-03
SOL: 365  -0.31585E+00    0.00000E+00   -0.31585E+00    64
RMM:  15    -0.384781897136E+03   -0.29498E-04   -0.55039E-05  6684   0.278E-02    0.886E-03
SOL: 366  -0.31584E+00    0.00000E+00   -0.31584E+00    54
RMM:  16    -0.384781868237E+03    0.28900E-04   -0.37158E-05  6620   0.237E-02    0.913E-03
SOL: 367  -0.31583E+00    0.00000E+00   -0.31583E+00    59
RMM:  17    -0.384781906082E+03   -0.37845E-04   -0.68808E-05  6814   0.318E-02    0.974E-03
SOL: 368  -0.31584E+00    0.00000E+00   -0.31584E+00    56
RMM:  18    -0.384781925390E+03   -0.19308E-04   -0.30347E-05  6598   0.214E-02    0.972E-03
SOL: 369  -0.31590E+00    0.00000E+00   -0.31590E+00    63
RMM:  19    -0.384781917067E+03    0.83230E-05   -0.76164E-05  6793   0.333E-02
SOL: 370  -0.31609E+00    0.00000E+00   -0.31609E+00    69
  18 F= -.38478192E+03 E0= -.38477276E+03  d E =-.183211E-01  mag=     0.8924
 Finite differences progress:
  Degree of freedom:   9/ 30
  Displacement:        1/  2
  Total:              17/ 60
 bond charge predicted
       N       E                     dE             d eps       ncg     rms          rms(c)
SOL: 371  -0.31585E+00    0.00000E+00   -0.31585E+00    92
DAV:   1    -0.384769756846E+03    0.12169E-01   -0.32688E+00  7680   0.170E+00    0.754E-01
SOL: 372  -0.29835E+00    0.00000E+00   -0.29835E+00    89
RMM:   2    -0.384784107311E+03   -0.14350E-01   -0.67762E-02  7680   0.460E-01    0.384E-01
SOL: 373  -0.29250E+00    0.00000E+00   -0.29250E+00    83
RMM:   3    -0.384785619146E+03   -0.15118E-02   -0.70679E-03  7680   0.176E-01    0.987E-01
SOL: 374  -0.30078E+00    0.00000E+00   -0.30078E+00    86
RMM:   4    -0.384780088149E+03    0.55310E-02   -0.13791E-02  7680   0.268E-01    0.236E-01
SOL: 375  -0.30011E+00    0.00000E+00   -0.30011E+00    84
RMM:   5    -0.384783354951E+03   -0.32668E-02   -0.10038E-02  7680   0.218E-01    0.538E-01
SOL: 376  -0.29400E+00    0.00000E+00   -0.29400E+00    84
RMM:   6    -0.384782829410E+03    0.52554E-03   -0.66230E-03  7680   0.194E-01    0.171E-01
SOL: 377  -0.29143E+00    0.00000E+00   -0.29143E+00    79
RMM:   7    -0.384783042076E+03   -0.21267E-03   -0.14887E-03  7680   0.940E-02    0.366E-02
SOL: 378  -0.28971E+00    0.00000E+00   -0.28971E+00    78
RMM:   8    -0.384783361330E+03   -0.31925E-03   -0.74210E-04  7680   0.744E-02    0.442E-02
SOL: 379  -0.28794E+00    0.00000E+00   -0.28794E+00    77
RMM:   9    -0.384783615130E+03   -0.25380E-03   -0.17730E-04  7517   0.461E-02    0.473E-02
SOL: 380  -0.28566E+00    0.00000E+00   -0.28566E+00    78
RMM:  10    -0.384783644551E+03   -0.29421E-04   -0.14132E-04  7485   0.415E-02    0.215E-02
SOL: 381  -0.28386E+00    0.00000E+00   -0.28386E+00    76
RMM:  11    -0.384783684974E+03   -0.40423E-04   -0.14630E-04  7634   0.423E-02    0.253E-02
SOL: 382  -0.28261E+00    0.00000E+00   -0.28261E+00    74
RMM:  12    -0.384783849282E+03   -0.16431E-03   -0.88248E-05  7102   0.352E-02    0.235E-02
SOL: 383  -0.28113E+00    0.00000E+00   -0.28113E+00    74
RMM:  13    -0.384783877114E+03   -0.27833E-04   -0.96706E-05  7651   0.366E-02    0.196E-02
SOL: 384  -0.27995E+00    0.00000E+00   -0.27995E+00    73
RMM:  14    -0.384783872752E+03    0.43622E-05   -0.10385E-04  7680   0.383E-02    0.170E-02
SOL: 385  -0.27922E+00    0.00000E+00   -0.27922E+00    69
RMM:  15    -0.384783968218E+03   -0.95466E-04   -0.10653E-04  7680   0.395E-02    0.177E-02
SOL: 386  -0.27856E+00    0.00000E+00   -0.27856E+00    70
RMM:  16    -0.384784049456E+03   -0.81238E-04   -0.14594E-04  7680   0.450E-02    0.207E-02
SOL: 387  -0.27788E+00    0.00000E+00   -0.27788E+00    72
RMM:  17    -0.384784106323E+03   -0.56867E-04   -0.24150E-04  7680   0.558E-02    0.187E-02
SOL: 388  -0.27775E+00    0.00000E+00   -0.27775E+00    70
RMM:  18    -0.384784303957E+03   -0.19763E-03   -0.16218E-04  7680   0.464E-02    0.127E-02
SOL: 389  -0.27758E+00    0.00000E+00   -0.27758E+00    70
RMM:  19    -0.384784625285E+03   -0.32133E-03   -0.16486E-04  7680   0.507E-02    0.800E-03
SOL: 390  -0.27785E+00    0.00000E+00   -0.27785E+00    73
RMM:  20    -0.384784601119E+03    0.24166E-04   -0.21217E-04  7680   0.566E-02    0.654E-03
SOL: 391  -0.27742E+00    0.00000E+00   -0.27742E+00    71
RMM:  21    -0.384784634666E+03   -0.33547E-04   -0.14776E-04  7659   0.484E-02    0.659E-03
SOL: 392  -0.27757E+00    0.00000E+00   -0.27757E+00    67
RMM:  22    -0.384784688035E+03   -0.53369E-04   -0.83357E-05  7616   0.363E-02    0.435E-03
SOL: 393  -0.27746E+00    0.00000E+00   -0.27746E+00    65
RMM:  23    -0.384784654883E+03    0.33151E-04   -0.81384E-05  7136   0.355E-02    0.387E-03
SOL: 394  -0.27751E+00    0.00000E+00   -0.27751E+00    63
RMM:  24    -0.384784625229E+03    0.29654E-04   -0.68520E-05  6824   0.327E-02    0.371E-03
SOL: 395  -0.27747E+00    0.00000E+00   -0.27747E+00    63
RMM:  25    -0.384784616919E+03    0.83101E-05   -0.55479E-05  6726   0.294E-02
SOL: 396  -0.27743E+00    0.00000E+00   -0.27743E+00    64
  19 F= -.38478462E+03 E0= -.38477657E+03  d E =-.160854E-01  mag=     1.0392
 Finite differences progress:
  Degree of freedom:   9/ 30
  Displacement:        2/  2
  Total:              18/ 60
 bond charge predicted
       N       E                     dE             d eps       ncg     rms          rms(c)
SOL: 397  -0.27830E+00    0.00000E+00   -0.27830E+00    89
DAV:   1    -0.384772469375E+03    0.12156E-01   -0.38489E+00  9120   0.258E+00    0.572E-01
SOL: 398  -0.28758E+00    0.00000E+00   -0.28758E+00    87
RMM:   2    -0.384770949164E+03    0.15202E-02   -0.55399E-02  7680   0.424E-01    0.310E-01
SOL: 399  -0.29139E+00    0.00000E+00   -0.29139E+00    81
RMM:   3    -0.384777463457E+03   -0.65143E-02   -0.36779E-03  7680   0.130E-01    0.593E-01
SOL: 400  -0.28766E+00    0.00000E+00   -0.28766E+00    83
RMM:   4    -0.384777624771E+03   -0.16131E-03   -0.49510E-03  7680   0.156E-01    0.259E-01
SOL: 401  -0.28723E+00    0.00000E+00   -0.28723E+00    84
RMM:   5    -0.384779476769E+03   -0.18520E-02   -0.37673E-03  7680   0.133E-01    0.470E-01
SOL: 402  -0.29176E+00    0.00000E+00   -0.29176E+00    83
RMM:   6    -0.384778288562E+03    0.11882E-02   -0.65707E-03  7680   0.193E-01    0.642E-02
SOL: 403  -0.29269E+00    0.00000E+00   -0.29269E+00    77
RMM:   7    -0.384778946276E+03   -0.65771E-03   -0.17572E-03  7680   0.105E-01    0.568E-02
SOL: 404  -0.29316E+00    0.00000E+00   -0.29316E+00    77
RMM:   8    -0.384779195407E+03   -0.24913E-03   -0.49779E-04  7642   0.629E-02    0.438E-02
SOL: 405  -0.29434E+00    0.00000E+00   -0.29434E+00    75
RMM:   9    -0.384779082447E+03    0.11296E-03   -0.18860E-04  6962   0.422E-02    0.277E-02
SOL: 406  -0.29579E+00    0.00000E+00   -0.29579E+00    75
RMM:  10    -0.384779348449E+03   -0.26600E-03   -0.89026E-05  6728   0.321E-02    0.139E-02
SOL: 407  -0.29710E+00    0.00000E+00   -0.29710E+00    74
RMM:  11    -0.384779367564E+03   -0.19115E-04   -0.89940E-05  6811   0.333E-02    0.116E-02
SOL: 408  -0.29818E+00    0.00000E+00   -0.29818E+00    73
RMM:  12    -0.384779308988E+03    0.58576E-04   -0.67898E-05  6725   0.294E-02    0.713E-03
SOL: 409  -0.29934E+00    0.00000E+00   -0.29934E+00    72
RMM:  13    -0.384779404903E+03   -0.95916E-04   -0.68416E-05  6724   0.294E-02    0.385E-03
SOL: 410  -0.30050E+00    0.00000E+00   -0.30050E+00    71
RMM:  14    -0.384779386079E+03    0.18824E-04   -0.65475E-05  6723   0.287E-02    0.277E-03
SOL: 411  -0.30102E+00    0.00000E+00   -0.30102E+00    67
RMM:  15    -0.384779350434E+03    0.35645E-04   -0.50647E-05  6703   0.261E-02    0.240E-03
SOL: 412  -0.30130E+00    0.00000E+00   -0.30130E+00    64
RMM:  16    -0.384779404573E+03   -0.54139E-04   -0.40300E-05  6593   0.237E-02    0.193E-03
SOL: 413  -0.30147E+00    0.00000E+00   -0.30147E+00    64
RMM:  17    -0.384779394206E+03    0.10367E-04   -0.34902E-05  6580   0.216E-02    0.206E-03
SOL: 414  -0.30158E+00    0.00000E+00   -0.30158E+00    63
RMM:  18    -0.384779419864E+03   -0.25658E-04   -0.31568E-05  6560   0.210E-02    0.181E-03
SOL: 415  -0.30163E+00    0.00000E+00   -0.30163E+00    63
RMM:  19    -0.384779377042E+03    0.42822E-04   -0.27885E-05  6560   0.199E-02    0.145E-03
SOL: 416  -0.30164E+00    0.00000E+00   -0.30164E+00    63
RMM:  20    -0.384779410093E+03   -0.33051E-04   -0.26761E-05  6559   0.189E-02    0.137E-03
SOL: 417  -0.30165E+00    0.00000E+00   -0.30165E+00    62
RMM:  21    -0.384779386152E+03    0.23941E-04   -0.26314E-05  6560   0.185E-02    0.926E-04
SOL: 418  -0.30163E+00    0.00000E+00   -0.30163E+00    59
RMM:  22    -0.384779383367E+03    0.27844E-05   -0.24477E-05  6544   0.177E-02
SOL: 419  -0.30162E+00    0.00000E+00   -0.30162E+00    56
  20 F= -.38477938E+03 E0= -.38477086E+03  d E =-.170540E-01  mag=     1.0111
 Finite differences progress:
  Degree of freedom:  10/ 30
  Displacement:        1/  2
  Total:              19/ 60
 bond charge predicted
       N       E                     dE             d eps       ncg     rms          rms(c)
SOL: 420  -0.30148E+00    0.00000E+00   -0.30148E+00    87
DAV:   1    -0.384738933343E+03    0.40453E-01   -0.12176E+01  9792   0.424E+00    0.783E-01
SOL: 421  -0.30137E+00    0.00000E+00   -0.30137E+00    83
RMM:   2    -0.384776732643E+03   -0.37799E-01   -0.11608E-01  6912   0.403E-01    0.422E-01
SOL: 422  -0.29794E+00    0.00000E+00   -0.29794E+00    84
RMM:   3    -0.384778562922E+03   -0.18303E-02   -0.55714E-03  7680   0.114E-01    0.189E-01
SOL: 423  -0.29345E+00    0.00000E+00   -0.29345E+00    83
RMM:   4    -0.384778939326E+03   -0.37640E-03   -0.17842E-03  7624   0.853E-02    0.412E-01
SOL: 424  -0.29341E+00    0.00000E+00   -0.29341E+00    76
RMM:   5    -0.384778203221E+03    0.73610E-03   -0.34058E-03  7680   0.146E-01    0.475E-01
SOL: 425  -0.29316E+00    0.00000E+00   -0.29316E+00    76
RMM:   6    -0.384778266565E+03   -0.63344E-04   -0.72464E-04  7680   0.804E-02    0.499E-01
SOL: 426  -0.29297E+00    0.00000E+00   -0.29297E+00    78
RMM:   7    -0.384778460977E+03   -0.19441E-03   -0.42222E-04  7678   0.584E-02    0.451E-01
SOL: 427  -0.29273E+00    0.00000E+00   -0.29273E+00    79
RMM:   8    -0.384778351662E+03    0.10932E-03   -0.52674E-04  7680   0.692E-02    0.351E-01
SOL: 428  -0.29262E+00    0.00000E+00   -0.29262E+00    75
RMM:   9    -0.384778164214E+03    0.18745E-03   -0.44742E-04  7575   0.618E-02    0.277E-01
SOL: 429  -0.29258E+00    0.00000E+00   -0.29258E+00    74
RMM:  10    -0.384778175900E+03   -0.11685E-04   -0.23809E-04  7334   0.477E-02    0.220E-01
SOL: 430  -0.29247E+00    0.00000E+00   -0.29247E+00    75
RMM:  11    -0.384778058913E+03    0.11699E-03   -0.33935E-04  7503   0.539E-02    0.117E-01
SOL: 431  -0.29223E+00    0.00000E+00   -0.29223E+00    74
RMM:  12    -0.384778043578E+03    0.15335E-04   -0.34973E-04  7493   0.539E-02    0.352E-02
SOL: 432  -0.29165E+00    0.00000E+00   -0.29165E+00    74
RMM:  13    -0.384778309612E+03   -0.26603E-03   -0.30050E-04  7531   0.530E-02    0.259E-02
SOL: 433  -0.29120E+00    0.00000E+00   -0.29120E+00    71
RMM:  14    -0.384778370070E+03   -0.60458E-04   -0.15580E-04  7122   0.411E-02    0.285E-02
SOL: 434  -0.29102E+00    0.00000E+00   -0.29102E+00    67
RMM:  15    -0.384778304230E+03    0.65840E-04   -0.70339E-05  6732   0.300E-02    0.146E-02
SOL: 435  -0.29084E+00    0.00000E+00   -0.29084E+00    69
RMM:  16    -0.384778345068E+03   -0.40839E-04   -0.59066E-05  6727   0.271E-02    0.730E-03
SOL: 436  -0.29056E+00    0.00000E+00   -0.29056E+00    68
RMM:  17    -0.384778327224E+03    0.17844E-04   -0.50951E-05  6716   0.257E-02    0.590E-03
SOL: 437  -0.29039E+00    0.00000E+00   -0.29039E+00    64
RMM:  18    -0.384778350548E+03   -0.23324E-04   -0.37833E-05  6621   0.225E-02    0.418E-03
SOL: 438  -0.29025E+00    0.00000E+00   -0.29025E+00    63
RMM:  19    -0.384778377580E+03   -0.27032E-04   -0.29249E-05  6571   0.195E-02    0.295E-03
SOL: 439  -0.29011E+00    0.00000E+00   -0.29011E+00    63
RMM:  20    -0.384778402999E+03   -0.25419E-04   -0.27358E-05  6561   0.188E-02    0.410E-03
SOL: 440  -0.29000E+00    0.00000E+00   -0.29000E+00    61
RMM:  21    -0.384778430312E+03   -0.27313E-04   -0.25440E-05  6551   0.182E-02    0.392E-03
SOL: 441  -0.28991E+00    0.00000E+00   -0.28991E+00    60
RMM:  22    -0.384778409167E+03    0.21145E-04   -0.22087E-05  6550   0.170E-02    0.418E-03
SOL: 442  -0.28982E+00    0.00000E+00   -0.28982E+00    59
RMM:  23    -0.384778458900E+03   -0.49733E-04   -0.19704E-05  6537   0.159E-02    0.442E-03
SOL: 443  -0.28976E+00    0.00000E+00   -0.28976E+00    57
RMM:  24    -0.384778449307E+03    0.95931E-05   -0.19585E-05  6498   0.153E-02
SOL: 444  -0.28971E+00    0.00000E+00   -0.28971E+00    55
  21 F= -.38477845E+03 E0= -.38477009E+03  d E =-.167166E-01  mag=     1.0240
 Finite differences progress:
  Degree of freedom:  10/ 30
  Displacement:        2/  2
  Total:              20/ 60
 bond charge predicted
       N       E                     dE             d eps       ncg     rms          rms(c)
SOL: 445  -0.28974E+00    0.00000E+00   -0.28974E+00    85
DAV:   1    -0.384795092898E+03   -0.16634E-01   -0.63753E+00  8928   0.304E+00    0.418E-01
SOL: 446  -0.29014E+00    0.00000E+00   -0.29014E+00    82
RMM:   2    -0.384785172336E+03    0.99206E-02   -0.41279E-02  6862   0.325E-01    0.234E-01
SOL: 447  -0.29183E+00    0.00000E+00   -0.29183E+00    82
RMM:   3    -0.384784577011E+03    0.59533E-03   -0.20404E-03  7101   0.733E-02    0.936E-02
SOL: 448  -0.29169E+00    0.00000E+00   -0.29169E+00    78
RMM:   4    -0.384785686010E+03   -0.11090E-02   -0.44662E-04  6823   0.485E-02    0.538E-02
SOL: 449  -0.29051E+00    0.00000E+00   -0.29051E+00    79
RMM:   5    -0.384786047768E+03   -0.36176E-03   -0.31507E-04  7442   0.413E-02    0.185E-01
SOL: 450  -0.29157E+00    0.00000E+00   -0.29157E+00    78
RMM:   6    -0.384785309323E+03    0.73845E-03   -0.71592E-04  7679   0.711E-02    0.775E-02
SOL: 451  -0.29230E+00    0.00000E+00   -0.29230E+00    74
RMM:   7    -0.384785279496E+03    0.29827E-04   -0.21132E-04  6948   0.418E-02    0.297E-02
SOL: 452  -0.29237E+00    0.00000E+00   -0.29237E+00    73
RMM:   8    -0.384785406364E+03   -0.12687E-03   -0.30383E-04  7062   0.486E-02    0.829E-03
SOL: 453  -0.29263E+00    0.00000E+00   -0.29263E+00    70
RMM:   9    -0.384785389399E+03    0.16965E-04   -0.55790E-05  6687   0.254E-02    0.823E-03
SOL: 454  -0.29308E+00    0.00000E+00   -0.29308E+00    72
RMM:  10    -0.384785415804E+03   -0.26406E-04   -0.54826E-05  6728   0.253E-02    0.345E-03
SOL: 455  -0.29339E+00    0.00000E+00   -0.29339E+00    69
RMM:  11    -0.384785410222E+03    0.55827E-05   -0.57191E-05  6728   0.265E-02
SOL: 456  -0.29367E+00    0.00000E+00   -0.29367E+00    68
  22 F= -.38478541E+03 E0= -.38477699E+03  d E =-.168385E-01  mag=     1.0213
 Finite differences progress:
  Degree of freedom:  11/ 30
  Displacement:        1/  2
  Total:              21/ 60
 bond charge predicted
       N       E                     dE             d eps       ncg     rms          rms(c)
SOL: 457  -0.29382E+00    0.00000E+00   -0.29382E+00    86
DAV:   1    -0.384789848481E+03   -0.44327E-02   -0.13114E+01  7680   0.431E+00    0.382E-01
SOL: 458  -0.29334E+00    0.00000E+00   -0.29334E+00    83
RMM:   2    -0.384783986859E+03    0.58616E-02   -0.66802E-02  6912   0.349E-01    0.212E-01
SOL: 459  -0.29444E+00    0.00000E+00   -0.29444E+00    81
RMM:   3    -0.384782967516E+03    0.10193E-02   -0.21263E-03  7363   0.794E-02    0.102E-01
SOL: 460  -0.29621E+00    0.00000E+00   -0.29621E+00    80
RMM:   4    -0.384784015766E+03   -0.10483E-02   -0.78353E-04  6982   0.661E-02    0.218E-01
SOL: 461  -0.29612E+00    0.00000E+00   -0.29612E+00    74
RMM:   5    -0.384783722346E+03    0.29342E-03   -0.10043E-03  7680   0.754E-02    0.213E-01
SOL: 462  -0.29612E+00    0.00000E+00   -0.29612E+00    66
RMM:   6    -0.384783444673E+03    0.27767E-03   -0.97847E-05  6721   0.328E-02    0.204E-01
SOL: 463  -0.29692E+00    0.00000E+00   -0.29692E+00    74
RMM:   7    -0.384783261317E+03    0.18336E-03   -0.73004E-04  7680   0.925E-02    0.233E-01
SOL: 464  -0.29845E+00    0.00000E+00   -0.29845E+00    76
RMM:   8    -0.384783350682E+03   -0.89365E-04   -0.45167E-04  7679   0.653E-02    0.344E-01
SOL: 465  -0.29435E+00    0.00000E+00   -0.29435E+00    81
RMM:   9    -0.384783114379E+03    0.23630E-03   -0.26726E-03  7680   0.151E-01    0.526E-02
SOL: 466  -0.29490E+00    0.00000E+00   -0.29490E+00    75
RMM:  10    -0.384784194622E+03   -0.10802E-02   -0.19285E-03  7680   0.111E-01    0.656E-02
SOL: 467  -0.29588E+00    0.00000E+00   -0.29588E+00    75
RMM:  11    -0.384784094730E+03    0.99892E-04   -0.25552E-04  7226   0.483E-02    0.329E-02
SOL: 468  -0.29596E+00    0.00000E+00   -0.29596E+00    72
RMM:  12    -0.384784182201E+03   -0.87471E-04   -0.17723E-04  7024   0.433E-02    0.194E-02
SOL: 469  -0.29615E+00    0.00000E+00   -0.29615E+00    68
RMM:  13    -0.384784239409E+03   -0.57208E-04   -0.66548E-05  6734   0.290E-02    0.147E-02
SOL: 470  -0.29628E+00    0.00000E+00   -0.29628E+00    68
RMM:  14    -0.384784253563E+03   -0.14154E-04   -0.54716E-05  6692   0.261E-02    0.138E-02
SOL: 471  -0.29635E+00    0.00000E+00   -0.29635E+00    70
RMM:  15    -0.384784310319E+03   -0.56756E-04   -0.47375E-05  6667   0.246E-02    0.908E-03
SOL: 472  -0.29640E+00    0.00000E+00   -0.29640E+00    68
RMM:  16    -0.384784311504E+03   -0.11849E-05   -0.41511E-05  6621   0.228E-02
SOL: 473  -0.29642E+00    0.00000E+00   -0.29642E+00    66
  23 F= -.38478431E+03 E0= -.38477589E+03  d E =-.168434E-01  mag=     1.0182
 Finite differences progress:
  Degree of freedom:  11/ 30
  Displacement:        2/  2
  Total:              22/ 60
 bond charge predicted
       N       E                     dE             d eps       ncg     rms          rms(c)
SOL: 474  -0.29621E+00    0.00000E+00   -0.29621E+00    85
DAV:   1    -0.384777528638E+03    0.67817E-02   -0.65398E+00  7680   0.304E+00    0.276E-01
SOL: 475  -0.29666E+00    0.00000E+00   -0.29666E+00    81
RMM:   2    -0.384783806863E+03   -0.62782E-02   -0.39433E-02  6885   0.277E-01    0.158E-01
SOL: 476  -0.29847E+00    0.00000E+00   -0.29847E+00    80
RMM:   3    -0.384783100915E+03    0.70595E-03   -0.11968E-03  7411   0.619E-02    0.976E-02
SOL: 477  -0.29861E+00    0.00000E+00   -0.29861E+00    77
[...]
SOL: 932  -0.29680E+00    0.00000E+00   -0.29680E+00    82
RMM:   3    -0.384784341149E+03   -0.77433E-02   -0.55389E-03  7680   0.157E-01    0.480E-01
SOL: 933  -0.29327E+00    0.00000E+00   -0.29327E+00    83
RMM:   4    -0.384784548521E+03   -0.20737E-03   -0.26548E-03  7680   0.105E-01    0.148E-01
SOL: 934  -0.29265E+00    0.00000E+00   -0.29265E+00    82
RMM:   5    -0.384786148701E+03   -0.16002E-02   -0.32319E-03  7680   0.124E-01    0.453E-01
SOL: 935  -0.29786E+00    0.00000E+00   -0.29786E+00    83
RMM:   6    -0.384783612512E+03    0.25362E-02   -0.39819E-03  7680   0.154E-01    0.573E-02
SOL: 936  -0.29799E+00    0.00000E+00   -0.29799E+00    78
RMM:   7    -0.384784941584E+03   -0.13291E-02   -0.24622E-03  7680   0.127E-01    0.743E-02
SOL: 937  -0.29807E+00    0.00000E+00   -0.29807E+00    75
RMM:   8    -0.384784962537E+03   -0.20953E-04   -0.27957E-04  7232   0.460E-02    0.180E-02
SOL: 938  -0.29876E+00    0.00000E+00   -0.29876E+00    74
RMM:   9    -0.384784901599E+03    0.60938E-04   -0.16107E-04  6887   0.388E-02    0.134E-02
SOL: 939  -0.29977E+00    0.00000E+00   -0.29977E+00    75
RMM:  10    -0.384785046487E+03   -0.14489E-03   -0.87810E-05  6728   0.321E-02    0.121E-02
SOL: 940  -0.30022E+00    0.00000E+00   -0.30022E+00    70
RMM:  11    -0.384785093772E+03   -0.47285E-04   -0.76979E-05  6731   0.315E-02    0.121E-02
SOL: 941  -0.30065E+00    0.00000E+00   -0.30065E+00    69
RMM:  12    -0.384785134724E+03   -0.40951E-04   -0.48131E-05  6702   0.247E-02    0.103E-02
SOL: 942  -0.30121E+00    0.00000E+00   -0.30121E+00    70
RMM:  13    -0.384785143363E+03   -0.86394E-05   -0.49421E-05  6692   0.255E-02
SOL: 943  -0.30182E+00    0.00000E+00   -0.30182E+00    70
  55 F= -.38478514E+03 E0= -.38477648E+03  d E =-.173303E-01  mag=     1.0008
 Finite differences progress:
  Degree of freedom:  27/ 30
  Displacement:        2/  2
  Total:              54/ 60
 bond charge predicted
       N       E                     dE             d eps       ncg     rms          rms(c)
SOL: 944  -0.30271E+00    0.00000E+00   -0.30271E+00    87
DAV:   1    -0.384772181549E+03    0.12953E-01   -0.48190E+00  7680   0.207E+00    0.609E-01
SOL: 945  -0.31152E+00    0.00000E+00   -0.31152E+00    87
RMM:   2    -0.384769424524E+03    0.27570E-02   -0.63809E-02  7680   0.390E-01    0.713E-01
SOL: 946  -0.30676E+00    0.00000E+00   -0.30676E+00    84
RMM:   3    -0.384777206044E+03   -0.77815E-02   -0.90968E-03  7680   0.194E-01    0.525E-01
SOL: 947  -0.29800E+00    0.00000E+00   -0.29800E+00    86
RMM:   4    -0.384777857241E+03   -0.65120E-03   -0.54106E-03  7680   0.118E-01    0.498E-01
SOL: 948  -0.30026E+00    0.00000E+00   -0.30026E+00    83
RMM:   5    -0.384777147990E+03    0.70925E-03   -0.91532E-03  7680   0.217E-01    0.176E-01
SOL: 949  -0.30037E+00    0.00000E+00   -0.30037E+00    78
RMM:   6    -0.384776868046E+03    0.27994E-03   -0.17670E-03  7680   0.940E-02    0.191E-01
SOL: 950  -0.29820E+00    0.00000E+00   -0.29820E+00    80
RMM:   7    -0.384777273075E+03   -0.40503E-03   -0.19677E-03  7680   0.109E-01    0.282E-02
SOL: 951  -0.29795E+00    0.00000E+00   -0.29795E+00    74
RMM:   8    -0.384777239253E+03    0.33822E-04   -0.33043E-04  6966   0.492E-02    0.176E-02
SOL: 952  -0.29753E+00    0.00000E+00   -0.29753E+00    73
RMM:   9    -0.384777295705E+03   -0.56452E-04   -0.11605E-04  6726   0.340E-02    0.140E-02
SOL: 953  -0.29683E+00    0.00000E+00   -0.29683E+00    73
RMM:  10    -0.384777270602E+03    0.25102E-04   -0.69464E-05  6702   0.289E-02    0.119E-02
SOL: 954  -0.29625E+00    0.00000E+00   -0.29625E+00    72
RMM:  11    -0.384777317656E+03   -0.47054E-04   -0.53674E-05  6712   0.263E-02    0.433E-03
SOL: 955  -0.29576E+00    0.00000E+00   -0.29576E+00    71
RMM:  12    -0.384777257262E+03    0.60394E-04   -0.51792E-05  6682   0.258E-02    0.767E-03
SOL: 956  -0.29529E+00    0.00000E+00   -0.29529E+00    69
RMM:  13    -0.384777253614E+03    0.36489E-05   -0.45508E-05  6631   0.243E-02
SOL: 957  -0.29485E+00    0.00000E+00   -0.29485E+00    69
  56 F= -.38477725E+03 E0= -.38476881E+03  d E =-.168867E-01  mag=     1.0027
 Finite differences progress:
  Degree of freedom:  28/ 30
  Displacement:        1/  2
  Total:              55/ 60
 bond charge predicted
       N       E                     dE             d eps       ncg     rms          rms(c)
SOL: 958  -0.29368E+00    0.00000E+00   -0.29368E+00    88
DAV:   1    -0.384820130603E+03   -0.42873E-01   -0.96473E+00  7680   0.287E+00    0.107E+00
SOL: 959  -0.27854E+00    0.00000E+00   -0.27854E+00    90
RMM:   2    -0.384780824487E+03    0.39306E-01   -0.11732E-01  7680   0.499E-01    0.956E-01
SOL: 960  -0.28369E+00    0.00000E+00   -0.28369E+00    86
RMM:   3    -0.384779158565E+03    0.16659E-02   -0.20821E-02  7680   0.289E-01    0.102E+00
SOL: 961  -0.29331E+00    0.00000E+00   -0.29331E+00    86
RMM:   4    -0.384770429492E+03    0.87291E-02   -0.97211E-03  7680   0.176E-01    0.296E-01
SOL: 962  -0.29473E+00    0.00000E+00   -0.29473E+00    83
RMM:   5    -0.384775894319E+03   -0.54648E-02   -0.11931E-02  7680   0.261E-01    0.393E-01
SOL: 963  -0.29225E+00    0.00000E+00   -0.29225E+00    82
RMM:   6    -0.384775543849E+03    0.35047E-03   -0.33832E-03  7680   0.127E-01    0.137E-01
SOL: 964  -0.29384E+00    0.00000E+00   -0.29384E+00    80
RMM:   7    -0.384776225735E+03   -0.68189E-03   -0.28057E-03  7680   0.124E-01    0.773E-02
SOL: 965  -0.29464E+00    0.00000E+00   -0.29464E+00    76
RMM:   8    -0.384776325806E+03   -0.10007E-03   -0.21385E-04  6975   0.431E-02    0.478E-02
SOL: 966  -0.29460E+00    0.00000E+00   -0.29460E+00    77
RMM:   9    -0.384776633045E+03   -0.30724E-03   -0.34350E-04  7334   0.545E-02    0.124E-02
SOL: 967  -0.29495E+00    0.00000E+00   -0.29495E+00    73
RMM:  10    -0.384776593591E+03    0.39454E-04   -0.91441E-05  6726   0.322E-02    0.877E-03
SOL: 968  -0.29534E+00    0.00000E+00   -0.29534E+00    72
RMM:  11    -0.384776678562E+03   -0.84971E-04   -0.81380E-05  6724   0.311E-02    0.412E-03
SOL: 969  -0.29565E+00    0.00000E+00   -0.29565E+00    71
RMM:  12    -0.384776779689E+03   -0.10113E-03   -0.63843E-05  6721   0.283E-02    0.618E-03
SOL: 970  -0.29595E+00    0.00000E+00   -0.29595E+00    70
RMM:  13    -0.384776811215E+03   -0.31526E-04   -0.50953E-05  6690   0.253E-02    0.593E-03
SOL: 971  -0.29627E+00    0.00000E+00   -0.29627E+00    69
RMM:  14    -0.384776765598E+03    0.45617E-04   -0.44165E-05  6648   0.237E-02    0.367E-03
SOL: 972  -0.29648E+00    0.00000E+00   -0.29648E+00    66
RMM:  15    -0.384776793645E+03   -0.28047E-04   -0.39700E-05  6570   0.227E-02    0.282E-03
SOL: 973  -0.29661E+00    0.00000E+00   -0.29661E+00    63
RMM:  16    -0.384776761495E+03    0.32151E-04   -0.28651E-05  6560   0.193E-02    0.265E-03
SOL: 974  -0.29672E+00    0.00000E+00   -0.29672E+00    60
RMM:  17    -0.384776733196E+03    0.28299E-04   -0.28670E-05  6560   0.192E-02    0.253E-03
SOL: 975  -0.29682E+00    0.00000E+00   -0.29682E+00    60
RMM:  18    -0.384776744394E+03   -0.11198E-04   -0.28650E-05  6560   0.191E-02    0.237E-03
SOL: 976  -0.29695E+00    0.00000E+00   -0.29695E+00    60
RMM:  19    -0.384776752936E+03   -0.85425E-05   -0.30757E-05  6560   0.198E-02
SOL: 977  -0.29703E+00    0.00000E+00   -0.29703E+00    60
  57 F= -.38477675E+03 E0= -.38476820E+03  d E =-.170973E-01  mag=     1.0000
 Finite differences progress:
  Degree of freedom:  28/ 30
  Displacement:        2/  2
  Total:              56/ 60
 bond charge predicted
       N       E                     dE             d eps       ncg     rms          rms(c)
SOL: 978  -0.29712E+00    0.00000E+00   -0.29712E+00    86
DAV:   1    -0.384783152724E+03   -0.64083E-02   -0.48846E+00  7968   0.203E+00    0.952E-01
SOL: 979  -0.32022E+00    0.00000E+00   -0.32022E+00    90
RMM:   2    -0.384753322048E+03    0.29831E-01   -0.93441E-02  7680   0.483E-01    0.876E-01
SOL: 980  -0.31851E+00    0.00000E+00   -0.31851E+00    85
RMM:   3    -0.384775682035E+03   -0.22360E-01   -0.17549E-02  7680   0.274E-01    0.891E-01
SOL: 981  -0.31070E+00    0.00000E+00   -0.31070E+00    86
RMM:   4    -0.384774513145E+03    0.11689E-02   -0.81366E-03  7680   0.172E-01    0.123E-01
SOL: 982  -0.31365E+00    0.00000E+00   -0.31365E+00    82
RMM:   5    -0.384776627889E+03   -0.21147E-02   -0.76000E-03  7680   0.211E-01    0.259E-01
SOL: 983  -0.31899E+00    0.00000E+00   -0.31899E+00    81
RMM:   6    -0.384776360078E+03    0.26781E-03   -0.18403E-03  7680   0.103E-01    0.112E-01
SOL: 984  -0.31948E+00    0.00000E+00   -0.31948E+00    79
RMM:   7    -0.384777241082E+03   -0.88100E-03   -0.14911E-03  7680   0.967E-02    0.234E-02
SOL: 985  -0.32121E+00    0.00000E+00   -0.32121E+00    75
RMM:   8    -0.384777246813E+03   -0.57313E-05   -0.19563E-04  6845   0.441E-02    0.340E-02
SOL: 986  -0.32303E+00    0.00000E+00   -0.32303E+00    74
RMM:   9    -0.384777263962E+03   -0.17149E-04   -0.17889E-04  6932   0.425E-02    0.166E-02
SOL: 987  -0.32542E+00    0.00000E+00   -0.32542E+00    75
RMM:  10    -0.384777448449E+03   -0.18449E-03   -0.12103E-04  6870   0.385E-02    0.228E-02
SOL: 988  -0.32710E+00    0.00000E+00   -0.32710E+00    72
RMM:  11    -0.384777439990E+03    0.84588E-05   -0.10825E-04  6821   0.376E-02    0.163E-02
SOL: 989  -0.32922E+00    0.00000E+00   -0.32922E+00    73
RMM:  12    -0.384777665736E+03   -0.22575E-03   -0.96343E-05  6757   0.356E-02    0.868E-03
SOL: 990  -0.33109E+00    0.00000E+00   -0.33109E+00    72
RMM:  13    -0.384777698109E+03   -0.32373E-04   -0.94180E-05  6862   0.356E-02    0.438E-03
SOL: 991  -0.33212E+00    0.00000E+00   -0.33212E+00    69
RMM:  14    -0.384777698258E+03   -0.14848E-06   -0.71296E-05  6723   0.311E-02
SOL: 992  -0.33245E+00    0.00000E+00   -0.33245E+00    64
  58 F= -.38477770E+03 E0= -.38476859E+03  d E =-.182231E-01  mag=     0.9601
 Finite differences progress:
  Degree of freedom:  29/ 30
  Displacement:        1/  2
  Total:              57/ 60
 bond charge predicted
       N       E                     dE             d eps       ncg     rms          rms(c)
SOL: 993  -0.33387E+00    0.00000E+00   -0.33387E+00    88
DAV:   1    -0.384758382337E+03    0.19316E-01   -0.96944E+00  7872   0.292E+00    0.999E-01
SOL: 994  -0.31098E+00    0.00000E+00   -0.31098E+00    90
RMM:   2    -0.384785813127E+03   -0.27431E-01   -0.10108E-01  7680   0.521E-01    0.464E-01
SOL: 995  -0.29558E+00    0.00000E+00   -0.29558E+00    87
RMM:   3    -0.384785654500E+03    0.15863E-03   -0.11271E-02  7680   0.214E-01    0.132E+00
SOL: 996  -0.30411E+00    0.00000E+00   -0.30411E+00    87
RMM:   4    -0.384780235947E+03    0.54186E-02   -0.23550E-02  7680   0.344E-01    0.765E-01
SOL: 997  -0.31087E+00    0.00000E+00   -0.31087E+00    87
RMM:   5    -0.384780246071E+03   -0.10124E-04   -0.20398E-02  7680   0.250E-01    0.763E-01
SOL: 998  -0.30055E+00    0.00000E+00   -0.30055E+00    86
RMM:   6    -0.384781584935E+03   -0.13389E-02   -0.19497E-02  7680   0.335E-01    0.550E-01
SOL: 999  -0.29476E+00    0.00000E+00   -0.29476E+00    81
RMM:   7    -0.384779606018E+03    0.19789E-02   -0.12828E-03  7680   0.749E-02    0.239E-01
SOL: ***  -0.28843E+00    0.00000E+00   -0.28843E+00    81
RMM:   8    -0.384780137465E+03   -0.53145E-03   -0.15268E-03  7680   0.946E-02    0.543E-02
SOL: ***  -0.28472E+00    0.00000E+00   -0.28472E+00    79
RMM:   9    -0.384781042055E+03   -0.90459E-03   -0.68346E-04  7680   0.708E-02    0.903E-02
SOL: ***  -0.28041E+00    0.00000E+00   -0.28041E+00    79
RMM:  10    -0.384781168580E+03   -0.12653E-03   -0.15604E-04  7046   0.385E-02    0.716E-02
SOL: ***  -0.27328E+00    0.00000E+00   -0.27328E+00    81
RMM:  11    -0.384781355220E+03   -0.18664E-03   -0.22439E-04  7680   0.441E-02    0.163E-02
SOL: ***  -0.27014E+00    0.00000E+00   -0.27014E+00    77
RMM:  12    -0.384781564389E+03   -0.20917E-03   -0.22013E-04  7654   0.472E-02    0.166E-02
SOL: ***  -0.26663E+00    0.00000E+00   -0.26663E+00    76
RMM:  13    -0.384781726794E+03   -0.16241E-03   -0.13106E-04  7680   0.392E-02    0.256E-02
SOL: ***  -0.26435E+00    0.00000E+00   -0.26435E+00    74
RMM:  14    -0.384781867660E+03   -0.14087E-03   -0.10389E-04  7032   0.363E-02    0.198E-02
SOL: ***  -0.26242E+00    0.00000E+00   -0.26242E+00    73
RMM:  15    -0.384781966313E+03   -0.98653E-04   -0.10531E-04  7312   0.368E-02    0.144E-02
SOL: ***  -0.26156E+00    0.00000E+00   -0.26156E+00    68
RMM:  16    -0.384782157061E+03   -0.19075E-03   -0.10815E-04  7235   0.388E-02    0.156E-02
SOL: ***  -0.26095E+00    0.00000E+00   -0.26095E+00    71
RMM:  17    -0.384782295719E+03   -0.13866E-03   -0.12217E-04  7678   0.420E-02    0.156E-02
SOL: ***  -0.26049E+00    0.00000E+00   -0.26049E+00    71
RMM:  18    -0.384782464761E+03   -0.16904E-03   -0.12707E-04  7680   0.436E-02    0.983E-03
SOL: ***  -0.26034E+00    0.00000E+00   -0.26034E+00    67
RMM:  19    -0.384782510846E+03   -0.46085E-04   -0.10838E-04  7520   0.406E-02    0.684E-03
SOL: ***  -0.26029E+00    0.00000E+00   -0.26029E+00    67
RMM:  20    -0.384782542224E+03   -0.31379E-04   -0.91203E-05  7198   0.376E-02    0.540E-03
SOL: ***  -0.26042E+00    0.00000E+00   -0.26042E+00    69
RMM:  21    -0.384782599921E+03   -0.57697E-04   -0.86194E-05  7129   0.365E-02    0.464E-03
SOL: ***  -0.26042E+00    0.00000E+00   -0.26042E+00    69
RMM:  22    -0.384782555025E+03    0.44896E-04   -0.76314E-05  6870   0.341E-02    0.362E-03
SOL: ***  -0.26041E+00    0.00000E+00   -0.26041E+00    67
RMM:  23    -0.384782584084E+03   -0.29059E-04   -0.69274E-05  6765   0.326E-02    0.280E-03
SOL: ***  -0.26036E+00    0.00000E+00   -0.26036E+00    65
RMM:  24    -0.384782590937E+03   -0.68531E-05   -0.50611E-05  6720   0.274E-02
SOL: ***  -0.26034E+00    0.00000E+00   -0.26034E+00    62
  59 F= -.38478259E+03 E0= -.38477486E+03  d E =-.154550E-01  mag=     1.0599
 Finite differences progress:
  Degree of freedom:  29/ 30
  Displacement:        2/  2
  Total:              58/ 60
 bond charge predicted
       N       E                     dE             d eps       ncg     rms          rms(c)
SOL: ***  -0.26009E+00    0.00000E+00   -0.26009E+00    86
DAV:   1    -0.384798117422E+03   -0.15533E-01   -0.48262E+00  8928   0.207E+00    0.451E-01
SOL: ***  -0.26689E+00    0.00000E+00   -0.26689E+00    86
RMM:   2    -0.384782680415E+03    0.15437E-01   -0.43356E-02  7680   0.343E-01    0.246E-01
SOL: ***  -0.27511E+00    0.00000E+00   -0.27511E+00    85
RMM:   3    -0.384782696772E+03   -0.16357E-04   -0.43453E-03  7680   0.133E-01    0.573E-01
SOL: ***  -0.27233E+00    0.00000E+00   -0.27233E+00    83
RMM:   4    -0.384784393925E+03   -0.16972E-02   -0.46584E-03  7680   0.156E-01    0.339E-01
SOL: ***  -0.27040E+00    0.00000E+00   -0.27040E+00    84
RMM:   5    -0.384786285822E+03   -0.18919E-02   -0.39964E-03  7680   0.119E-01    0.504E-01
SOL: ***  -0.27624E+00    0.00000E+00   -0.27624E+00    84
RMM:   6    -0.384785040434E+03    0.12454E-02   -0.82973E-03  7680   0.213E-01    0.111E-01
SOL: ***  -0.27725E+00    0.00000E+00   -0.27725E+00    75
RMM:   7    -0.384785605869E+03   -0.56544E-03   -0.15882E-03  7680   0.995E-02    0.472E-02
SOL: ***  -0.27817E+00    0.00000E+00   -0.27817E+00    77
RMM:   8    -0.384786191038E+03   -0.58517E-03   -0.57653E-04  7655   0.664E-02    0.341E-02
SOL: ***  -0.27973E+00    0.00000E+00   -0.27973E+00    75
RMM:   9    -0.384786155069E+03    0.35968E-04   -0.13160E-04  6742   0.371E-02    0.327E-02
SOL: ***  -0.28206E+00    0.00000E+00   -0.28206E+00    75
RMM:  10    -0.384786405640E+03   -0.25057E-03   -0.11395E-04  6771   0.364E-02    0.176E-02
SOL: ***  -0.28415E+00    0.00000E+00   -0.28415E+00    75
RMM:  11    -0.384786460258E+03   -0.54619E-04   -0.12096E-04  6927   0.382E-02    0.166E-02
SOL: ***  -0.28603E+00    0.00000E+00   -0.28603E+00    73
RMM:  12    -0.384786500262E+03   -0.40004E-04   -0.92725E-05  6769   0.341E-02    0.103E-02
SOL: ***  -0.28801E+00    0.00000E+00   -0.28801E+00    74
RMM:  13    -0.384786605672E+03   -0.10541E-03   -0.75802E-05  6731   0.303E-02    0.536E-03
SOL: ***  -0.28927E+00    0.00000E+00   -0.28927E+00    71
RMM:  14    -0.384786490672E+03    0.11500E-03   -0.63812E-05  6720   0.283E-02    0.858E-03
SOL: ***  -0.28991E+00    0.00000E+00   -0.28991E+00    66
RMM:  15    -0.384786478897E+03    0.11776E-04   -0.48575E-05  6717   0.250E-02    0.585E-03
SOL: ***  -0.29021E+00    0.00000E+00   -0.29021E+00    64
RMM:  16    -0.384786483966E+03   -0.50694E-05   -0.44206E-05  6699   0.246E-02
SOL: ***  -0.29034E+00    0.00000E+00   -0.29034E+00    64
  60 F= -.38478648E+03 E0= -.38477819E+03  d E =-.165893E-01  mag=     1.0346
 Finite differences progress:
  Degree of freedom:  30/ 30
  Displacement:        1/  2
  Total:              59/ 60
 bond charge predicted
       N       E                     dE             d eps       ncg     rms          rms(c)
SOL: ***  -0.28995E+00    0.00000E+00   -0.28995E+00    87
DAV:   1    -0.384790475404E+03   -0.39965E-02   -0.97032E+00  7680   0.293E+00    0.618E-01
SOL: ***  -0.30072E+00    0.00000E+00   -0.30072E+00    88
RMM:   2    -0.384774454726E+03    0.16021E-01   -0.76993E-02  7680   0.437E-01    0.525E-01
SOL: ***  -0.29914E+00    0.00000E+00   -0.29914E+00    83
RMM:   3    -0.384784243003E+03   -0.97883E-02   -0.72401E-03  7680   0.177E-01    0.519E-01
SOL: ***  -0.29438E+00    0.00000E+00   -0.29438E+00    84
RMM:   4    -0.384784663879E+03   -0.42088E-03   -0.31033E-03  7680   0.104E-01    0.167E-01
SOL: ***  -0.29440E+00    0.00000E+00   -0.29440E+00    81
RMM:   5    -0.384785938009E+03   -0.12741E-02   -0.41293E-03  7680   0.146E-01    0.365E-01
SOL: ***  -0.29863E+00    0.00000E+00   -0.29863E+00    82
RMM:   6    -0.384783962316E+03    0.19757E-02   -0.23002E-03  7680   0.116E-01    0.101E-01
SOL: ***  -0.29816E+00    0.00000E+00   -0.29816E+00    79
RMM:   7    -0.384784998297E+03   -0.10360E-02   -0.22407E-03  7680   0.119E-01    0.571E-02
SOL: ***  -0.29816E+00    0.00000E+00   -0.29816E+00    73
RMM:   8    -0.384785034637E+03   -0.36340E-04   -0.16826E-04  6779   0.400E-02    0.212E-02
SOL: ***  -0.29863E+00    0.00000E+00   -0.29863E+00    74
RMM:   9    -0.384785027008E+03    0.76284E-05   -0.16487E-04  6978   0.405E-02    0.111E-02
SOL: ***  -0.29914E+00    0.00000E+00   -0.29914E+00    74
RMM:  10    -0.384785114706E+03   -0.87698E-04   -0.94414E-05  6912   0.354E-02    0.113E-02
SOL: ***  -0.29935E+00    0.00000E+00   -0.29935E+00    69
RMM:  11    -0.384785200590E+03   -0.85884E-04   -0.71323E-05  6725   0.314E-02    0.111E-02
SOL: ***  -0.29961E+00    0.00000E+00   -0.29961E+00    69
RMM:  12    -0.384785240181E+03   -0.39591E-04   -0.54027E-05  6723   0.274E-02    0.890E-03
SOL: ***  -0.30005E+00    0.00000E+00   -0.30005E+00    71
RMM:  13    -0.384785227439E+03    0.12742E-04   -0.60955E-05  6723   0.287E-02    0.342E-03
SOL: ***  -0.30045E+00    0.00000E+00   -0.30045E+00    70
RMM:  14    -0.384785247394E+03   -0.19955E-04   -0.58390E-05  6713   0.280E-02    0.349E-03
SOL: ***  -0.30060E+00    0.00000E+00   -0.30060E+00    65
RMM:  15    -0.384785206463E+03    0.40931E-04   -0.44657E-05  6692   0.253E-02    0.352E-03
SOL: ***  -0.30070E+00    0.00000E+00   -0.30070E+00    63
RMM:  16    -0.384785216958E+03   -0.10495E-04   -0.36199E-05  6634   0.227E-02    0.273E-03
SOL: ***  -0.30080E+00    0.00000E+00   -0.30080E+00    63
RMM:  17    -0.384785227017E+03   -0.10059E-04   -0.33669E-05  6636   0.218E-02    0.195E-03
SOL: ***  -0.30085E+00    0.00000E+00   -0.30085E+00    61
RMM:  18    -0.384785232794E+03   -0.57768E-05   -0.33302E-05  6583   0.220E-02
SOL: ***  -0.30086E+00    0.00000E+00   -0.30086E+00    60
  61 F= -.38478523E+03 E0= -.38477664E+03  d E =-.171952E-01  mag=     1.0057
 Finite differences progress:
  Degree of freedom:  30/ 30
  Displacement:        2/  2
  Total:              60/ 60
 Finite differences POTIM=  2.000000000000000E-002
Job finished on bc11u11n1 at Sat Nov 28 13:37:54 CST 2020
