 vasp.5.4.4.18Apr17-6-g9f103f2a35 (build May 01 2020 14:57:12) complex          
  
 executed on             LinuxIFC date 2020.10.24  14:23:43
 running on   48 total cores
 distrk:  each k-point on   12 cores,    4 groups
 distr:  one band on NCORES_PER_BAND=   1 cores,   12 groups


--------------------------------------------------------------------------------------------------------


 INCAR:
 POTCAR:    PAW_PBE B 06Sep2000                   
 POTCAR:    PAW_PBE N 08Apr2002                   
 POTCAR:    PAW_PBE C 08Apr2002                   
 POTCAR:    PAW_PBE F 08Apr2002                   
 POTCAR:    PAW_PBE O 08Apr2002                   

 ----------------------------------------------------------------------------- 
|                                                                             |
|           W    W    AA    RRRRR   N    N  II  N    N   GGGG   !!!           |
|           W    W   A  A   R    R  NN   N  II  NN   N  G    G  !!!           |
|           W    W  A    A  R    R  N N  N  II  N N  N  G       !!!           |
|           W WW W  AAAAAA  RRRRR   N  N N  II  N  N N  G  GGG   !            |
|           WW  WW  A    A  R   R   N   NN  II  N   NN  G    G                |
|           W    W  A    A  R    R  N    N  II  N    N   GGGG   !!!           |
|                                                                             |
|      For optimal performance we recommend to set                            |
|        NCORE= 4 - approx SQRT( number of cores)                             |
|      NCORE specifies how many cores store one orbital (NPAR=cpu/NCORE).     |
|      This setting can  greatly improve the performance of VASP for DFT.     |
|      The default,   NCORE=1            might be grossly inefficient         |
|      on modern multi-core architectures or massively parallel machines.     |
|      Do your own testing !!!!                                               |
|      Unfortunately you need to use the default for GW and RPA calculations. |
|      (for HF NCORE is supported but not extensively tested yet)             |
|                                                                             |
 ----------------------------------------------------------------------------- 


 ----------------------------------------------------------------------------- 
|                                                                             |
|           W    W    AA    RRRRR   N    N  II  N    N   GGGG   !!!           |
|           W    W   A  A   R    R  NN   N  II  NN   N  G    G  !!!           |
|           W    W  A    A  R    R  N N  N  II  N N  N  G       !!!           |
|           W WW W  AAAAAA  RRRRR   N  N N  II  N  N N  G  GGG   !            |
|           WW  WW  A    A  R   R   N   NN  II  N   NN  G    G                |
|           W    W  A    A  R    R  N    N  II  N    N   GGGG   !!!           |
|                                                                             |
|      You have enabled k-point parallelism (KPAR>1).                         |
|      This developmental code was originally  written by Paul Kent at ORNL,  |
|      and carefully double checked in Vienna.                                |
|      GW as well as linear response parallelism added by Martijn Marsman     |
|      and Georg Kresse.                                                      |
|      Carefully verify results versus KPAR=1.                                |
|      Report problems to Paul Kent and Vienna.                               |
|                                                                             |
 ----------------------------------------------------------------------------- 

 POTCAR:    PAW_PBE B 06Sep2000                   
   VRHFIN =B: s2p1                                                              
   LEXCH  = PE                                                                  
   EATOM  =    71.1703 eV,    5.2309 Ry                                         
                                                                                
   TITEL  = PAW_PBE B 06Sep2000                                                 
   LULTRA =        F    use ultrasoft PP ?                                      
   IUNSCR =        1    unscreen: 0-lin 1-nonlin 2-no                           
   RPACOR =    1.200    partial core radius                                     
   POMASS =   10.811; ZVAL   =    3.000    mass and valenz                      
   RCORE  =    1.700    outmost cutoff radius                                   
   RWIGS  =    1.710; RWIGS  =    0.905    wigner-seitz radius (au A)           
   ENMAX  =  318.614; ENMIN  =  238.960 eV                                      
   ICORE  =        2    local potential                                         
   LCOR   =        T    correct aug charges                                     
   LPAW   =        T    paw PP                                                  
   EAUG   =  535.514                                                            
   DEXC   =    0.000                                                            
   RMAX   =    1.732    core radius for proj-oper                               
   RAUG   =    1.300    factor for augmentation sphere                          
   RDEP   =    1.757    radius for radial grids                                 
   RDEPT  =    1.436    core radius for aug-charge                              
                                                                                
   Atomic configuration                                                         
    4 entries                                                                   
     n  l   j            E        occ.                                          
     1  0  0.50      -180.5896   2.0000                                         
     2  0  0.50        -9.4431   2.0000                                         
     2  1  0.50        -3.6068   1.0000                                         
     3  2  1.50        -4.0817   0.0000                                         
   Description                                                                  
     l       E           TYP  RCUT    TYP  RCUT                                 
     0     -9.4430752     23  1.500                                             
     0      0.8675899     23  1.500                                             
     1     -3.6067955     23  1.700                                             
     1      6.1086146     23  1.700                                             
     2     -4.0817478      7  1.700                                             
  local pseudopotential read in
  partial core-charges read in
  partial kinetic energy density read in
  atomic valenz-charges read in
  non local Contribution for L=           0  read in
    real space projection operators read in
  non local Contribution for L=           0  read in
    real space projection operators read in
  non local Contribution for L=           1  read in
    real space projection operators read in
  non local Contribution for L=           1  read in
    real space projection operators read in
    PAW grid and wavefunctions read in
 
   number of l-projection  operators is LMAX  =           4
   number of lm-projection operators is LMMAX =           8
 
 POTCAR:    PAW_PBE N 08Apr2002                   
   VRHFIN =N: s2p3                                                              
   LEXCH  = PE                                                                  
   EATOM  =   264.5486 eV,   19.4438 Ry                                         
                                                                                
   TITEL  = PAW_PBE N 08Apr2002                                                 
   LULTRA =        F    use ultrasoft PP ?                                      
   IUNSCR =        1    unscreen: 0-lin 1-nonlin 2-no                           
   RPACOR =    1.200    partial core radius                                     
   POMASS =   14.001; ZVAL   =    5.000    mass and valenz                      
   RCORE  =    1.500    outmost cutoff radius                                   
   RWIGS  =    1.400; RWIGS  =    0.741    wigner-seitz radius (au A)           
   ENMAX  =  400.000; ENMIN  =  300.000 eV                                      
   ICORE  =        2    local potential                                         
   LCOR   =        T    correct aug charges                                     
   LPAW   =        T    paw PP                                                  
   EAUG   =  627.112                                                            
   DEXC   =    0.000                                                            
   RMAX   =    1.529    core radius for proj-oper                               
   RAUG   =    1.300    factor for augmentation sphere                          
   RDEP   =    1.514    radius for radial grids                                 
   RDEPT  =    1.338    core radius for aug-charge                              
                                                                                
   Atomic configuration                                                         
    4 entries                                                                   
     n  l   j            E        occ.                                          
     1  0  0.50      -384.7179   2.0000                                         
     2  0  0.50       -18.5828   2.0000                                         
     2  1  0.50        -7.0898   3.0000                                         
     3  2  1.50        -6.8029   0.0000                                         
   Description                                                                  
     l       E           TYP  RCUT    TYP  RCUT                                 
     0    -18.5828119     23  1.200                                             
     0    -13.5018863     23  1.200                                             
     1     -7.0897853     23  1.500                                             
     1      9.5240782     23  1.500                                             
     2     -6.8029130      7  1.500                                             
  local pseudopotential read in
  partial core-charges read in
  partial kinetic energy density read in
  atomic valenz-charges read in
  non local Contribution for L=           0  read in
    real space projection operators read in
  non local Contribution for L=           0  read in
    real space projection operators read in
  non local Contribution for L=           1  read in
    real space projection operators read in
  non local Contribution for L=           1  read in
    real space projection operators read in
    PAW grid and wavefunctions read in
 
   number of l-projection  operators is LMAX  =           4
   number of lm-projection operators is LMMAX =           8
 
 POTCAR:    PAW_PBE C 08Apr2002                   
   VRHFIN =C: s2p2                                                              
   LEXCH  = PE                                                                  
   EATOM  =   147.1560 eV,   10.8157 Ry                                         
                                                                                
   TITEL  = PAW_PBE C 08Apr2002                                                 
   LULTRA =        F    use ultrasoft PP ?                                      
   IUNSCR =        1    unscreen: 0-lin 1-nonlin 2-no                           
   RPACOR =    1.200    partial core radius                                     
   POMASS =   12.011; ZVAL   =    4.000    mass and valenz                      
   RCORE  =    1.500    outmost cutoff radius                                   
   RWIGS  =    1.630; RWIGS  =    0.863    wigner-seitz radius (au A)           
   ENMAX  =  400.000; ENMIN  =  300.000 eV                                      
   ICORE  =        2    local potential                                         
   LCOR   =        T    correct aug charges                                     
   LPAW   =        T    paw PP                                                  
   EAUG   =  644.873                                                            
   DEXC   =    0.000                                                            
   RMAX   =    1.529    core radius for proj-oper                               
   RAUG   =    1.300    factor for augmentation sphere                          
   RDEP   =    1.501    radius for radial grids                                 
   RDEPT  =    1.300    core radius for aug-charge                              
                                                                                
   Atomic configuration                                                         
    4 entries                                                                   
     n  l   j            E        occ.                                          
     1  0  0.50      -273.3789   2.0000                                         
     2  0  0.50       -13.7508   2.0000                                         
     2  1  0.50        -5.2854   2.0000                                         
     3  2  1.50        -5.4423   0.0000                                         
   Description                                                                  
     l       E           TYP  RCUT    TYP  RCUT                                 
     0    -13.7508458     23  1.200                                             
     0     -8.2022199     23  1.200                                             
     1     -5.2854383     23  1.500                                             
     1     34.0145650     23  1.500                                             
     2     -5.4423304      7  1.500                                             
  local pseudopotential read in
  partial core-charges read in
  partial kinetic energy density read in
  atomic valenz-charges read in
  non local Contribution for L=           0  read in
    real space projection operators read in
  non local Contribution for L=           0  read in
    real space projection operators read in
  non local Contribution for L=           1  read in
    real space projection operators read in
  non local Contribution for L=           1  read in
    real space projection operators read in
    PAW grid and wavefunctions read in
 
   number of l-projection  operators is LMAX  =           4
   number of lm-projection operators is LMMAX =           8
 
 POTCAR:    PAW_PBE F 08Apr2002                   
   VRHFIN =F: s2p5                                                              
   LEXCH  = PE                                                                  
   EATOM  =   659.6475 eV,   48.4827 Ry                                         
                                                                                
   TITEL  = PAW_PBE F 08Apr2002                                                 
   LULTRA =        F    use ultrasoft PP ?                                      
   IUNSCR =        1    unscreen: 0-lin 1-nonlin 2-no                           
   RPACOR =    1.200    partial core radius                                     
   POMASS =   18.998; ZVAL   =    7.000    mass and valenz                      
   RCORE  =    1.520    outmost cutoff radius                                   
   RWIGS  =    1.500; RWIGS  =    0.794    wigner-seitz radius (au A)           
   ENMAX  =  400.000; ENMIN  =  300.000 eV                                      
   ICORE  =        2    local potential                                         
   LCOR   =        T    correct aug charges                                     
   LPAW   =        T    paw PP                                                  
   EAUG   =  613.614                                                            
   RMAX   =    1.555    core radius for proj-oper                               
   RAUG   =    1.300    factor for augmentation sphere                          
   RDEP   =    1.539    radius for radial grids                                 
   RDEPT  =    1.299    core radius for aug-charge                              
                                                                                
   Atomic configuration                                                         
    4 entries                                                                   
     n  l   j            E        occ.                                          
     1  0  0.50      -663.3661   2.0000                                         
     2  0  0.50       -29.8995   2.0000                                         
     2  1  0.50       -11.1114   5.0000                                         
     3  2  1.50       -10.8847   0.0000                                         
   Description                                                                  
     l       E           TYP  RCUT    TYP  RCUT                                 
     0    -29.8995018     23  1.200                                             
     0     -9.5240782     23  1.200                                             
     1    -11.1113914     23  1.520                                             
     1      1.3605826     23  1.520                                             
     2    -10.8846608      7  1.500                                             
  local pseudopotential read in
  partial core-charges read in
  partial kinetic energy density read in
  atomic valenz-charges read in
  non local Contribution for L=           0  read in
    real space projection operators read in
  non local Contribution for L=           0  read in
    real space projection operators read in
  non local Contribution for L=           1  read in
    real space projection operators read in
  non local Contribution for L=           1  read in
    real space projection operators read in
    PAW grid and wavefunctions read in
 
   number of l-projection  operators is LMAX  =           4
   number of lm-projection operators is LMMAX =           8
 
 POTCAR:    PAW_PBE O 08Apr2002                   
   VRHFIN =O: s2p4                                                              
   LEXCH  = PE                                                                  
   EATOM  =   432.3788 eV,   31.7789 Ry                                         
                                                                                
   TITEL  = PAW_PBE O 08Apr2002                                                 
   LULTRA =        F    use ultrasoft PP ?                                      
   IUNSCR =        1    unscreen: 0-lin 1-nonlin 2-no                           
   RPACOR =    1.200    partial core radius                                     
   POMASS =   16.000; ZVAL   =    6.000    mass and valenz                      
   RCORE  =    1.520    outmost cutoff radius                                   
   RWIGS  =    1.550; RWIGS  =    0.820    wigner-seitz radius (au A)           
   ENMAX  =  400.000; ENMIN  =  300.000 eV                                      
   ICORE  =        2    local potential                                         
   LCOR   =        T    correct aug charges                                     
   LPAW   =        T    paw PP                                                  
   EAUG   =  605.392                                                            
   DEXC   =    0.000                                                            
   RMAX   =    1.553    core radius for proj-oper                               
   RAUG   =    1.300    factor for augmentation sphere                          
   RDEP   =    1.550    radius for radial grids                                 
   RDEPT  =    1.329    core radius for aug-charge                              
                                                                                
   Atomic configuration                                                         
    4 entries                                                                   
     n  l   j            E        occ.                                          
     1  0  0.50      -514.6923   2.0000                                         
     2  0  0.50       -23.9615   2.0000                                         
     2  1  0.50        -9.0305   4.0000                                         
     3  2  1.50        -9.5241   0.0000                                         
   Description                                                                  
     l       E           TYP  RCUT    TYP  RCUT                                 
     0    -23.9615318     23  1.200                                             
     0     -9.5240782     23  1.200                                             
     1     -9.0304911     23  1.520                                             
     1      8.1634956     23  1.520                                             
     2     -9.5240782      7  1.500                                             
  local pseudopotential read in
  partial core-charges read in
  partial kinetic energy density read in
  kinetic energy density of atom read in
  atomic valenz-charges read in
  non local Contribution for L=           0  read in
    real space projection operators read in
  non local Contribution for L=           0  read in
    real space projection operators read in
  non local Contribution for L=           1  read in
    real space projection operators read in
  non local Contribution for L=           1  read in
    real space projection operators read in
    PAW grid and wavefunctions read in
 
   number of l-projection  operators is LMAX  =           4
   number of lm-projection operators is LMMAX =           8
 
 Optimization of the real space projectors (new method)

 maximal supplied QI-value         = 22.11
 optimisation between [QCUT,QGAM] = [ 11.94, 23.88] = [ 39.92,159.67] Ry 
 Optimized for a Real-space Cutoff    1.18 Angstroem

   l    n(q)    QCUT    max X(q) W(low)/X(q) W(high)/X(q)  e(spline) 
   0      8    11.939    53.033    0.11E-03    0.34E-03    0.60E-07
   0      8    11.939    34.740    0.11E-03    0.34E-03    0.59E-07
   1      8    11.939    30.949    0.22E-03    0.20E-03    0.17E-06
   1      8    11.939    19.518    0.20E-03    0.18E-03    0.16E-06
 Optimization of the real space projectors (new method)

 maximal supplied QI-value         = 25.13
 optimisation between [QCUT,QGAM] = [ 11.81, 23.88] = [ 39.08,159.64] Ry 
 Optimized for a Real-space Cutoff    1.41 Angstroem

   l    n(q)    QCUT    max X(q) W(low)/X(q) W(high)/X(q)  e(spline) 
   0     10    11.813    79.467    0.48E-04    0.30E-04    0.67E-06
   0     10    11.813    66.151    0.47E-04    0.30E-04    0.67E-06
   1     10    11.813    20.169    0.11E-03    0.17E-03    0.11E-05
   1     10    11.813    14.454    0.11E-03    0.17E-03    0.11E-05
 Optimization of the real space projectors (new method)

 maximal supplied QI-value         = 25.13
 optimisation between [QCUT,QGAM] = [ 11.81, 23.88] = [ 39.08,159.64] Ry 
 Optimized for a Real-space Cutoff    1.18 Angstroem

   l    n(q)    QCUT    max X(q) W(low)/X(q) W(high)/X(q)  e(spline) 
   0      8    11.813   115.676    0.10E-03    0.16E-03    0.35E-06
   0      8    11.813    87.132    0.10E-03    0.16E-03    0.35E-06
   1      8    11.813     4.429    0.16E-03    0.13E-04    0.22E-06
   1      8    11.813     2.733    0.13E-03    0.10E-04    0.18E-06
 Optimization of the real space projectors (new method)

 maximal supplied QI-value         = 24.76
 optimisation between [QCUT,QGAM] = [ 11.88, 24.01] = [ 39.54,161.47] Ry 
 Optimized for a Real-space Cutoff    1.18 Angstroem

   l    n(q)    QCUT    max X(q) W(low)/X(q) W(high)/X(q)  e(spline) 
   0      8    11.883    14.049    0.56E-04    0.86E-04    0.22E-06
   0      8    11.883     8.945    0.81E-04    0.11E-03    0.30E-06
   1      8    11.883     7.086    0.16E-03    0.15E-04    0.31E-06
   1      8    11.883     6.747    0.15E-03    0.14E-04    0.28E-06
 Optimization of the real space projectors (new method)

 maximal supplied QI-value         = 24.76
 optimisation between [QCUT,QGAM] = [ 11.88, 24.01] = [ 39.54,161.47] Ry 
 Optimized for a Real-space Cutoff    1.18 Angstroem

   l    n(q)    QCUT    max X(q) W(low)/X(q) W(high)/X(q)  e(spline) 
   0      8    11.883    20.381    0.86E-04    0.11E-03    0.31E-06
   0      8    11.883    15.268    0.94E-04    0.12E-03    0.33E-06
   1      8    11.883     5.964    0.19E-03    0.18E-04    0.33E-06
   1      8    11.883     5.382    0.17E-03    0.20E-04    0.29E-06
  PAW_PBE B 06Sep2000                   :
 energy of atom  1       EATOM=  -71.1703
 kinetic energy error for atom=    0.0009 (will be added to EATOM!!)
  PAW_PBE N 08Apr2002                   :
 energy of atom  2       EATOM= -264.5486
 kinetic energy error for atom=    0.0116 (will be added to EATOM!!)
  PAW_PBE C 08Apr2002                   :
 energy of atom  3       EATOM= -147.1560
 kinetic energy error for atom=    0.0066 (will be added to EATOM!!)
  PAW_PBE F 08Apr2002                   :
 energy of atom  4       EATOM= -659.6475
 kinetic energy error for atom=    0.0296 (will be added to EATOM!!)
  PAW_PBE O 08Apr2002                   :
 energy of atom  5       EATOM= -432.3788
 kinetic energy error for atom=    0.0194 (will be added to EATOM!!)
 
 
 POSCAR: B N C F O                               
  positions in direct lattice
  velocities in cartesian coordinates

 METAGGA = SCAN     LMAXTAU =  6    LMIXTAU =  F

 exchange correlation table for  LEXCH =        8
   RHO(1)=    0.500       N(1)  =     2000
   RHO(2)=  100.500       N(2)  =     4000
 


--------------------------------------------------------------------------------------------------------


 ion  position               nearest neighbor table
   1  0.167  0.083  0.502-  17 1.45  20 1.45  21 1.45
   2  0.167  0.333  0.502-  17 1.45  18 1.45  22 1.45
   3  0.167  0.583  0.502-  18 1.45  19 1.45  23 1.45
   4  0.167  0.833  0.502-  20 1.45  19 1.45  24 1.45
   5  0.417  0.083  0.502-  21 1.45  25 1.45  24 1.45
   6  0.417  0.333  0.502-  21 1.45  22 1.45  26 1.45
   7  0.417  0.583  0.502-  22 1.45  27 1.45  23 1.45
   8  0.417  0.834  0.502-  28 1.45  24 1.45  23 1.45
   9  0.667  0.083  0.502-  29 1.45  28 1.45  25 1.45
  10  0.667  0.333  0.502-  30 1.45  25 1.45  26 1.45
  11  0.667  0.583  0.502-  31 1.45  26 1.45  27 1.45
  12  0.667  0.834  0.502-  32 1.45  28 1.45  27 1.45
  13  0.917  0.083  0.502-  17 1.45  29 1.45  32 1.45
  14  0.917  0.333  0.502-  29 1.45  30 1.45  18 1.45
  15  0.917  0.583  0.502-  30 1.45  19 1.45  31 1.45
  16  0.917  0.833  0.502-  20 1.45  32 1.45  31 1.45
  17  0.083  0.167  0.502-   2 1.45   1 1.45  13 1.45
  18  0.083  0.417  0.502-   3 1.45   2 1.45  14 1.45
  19  0.083  0.667  0.502-   3 1.45   4 1.45  15 1.45
  20  0.083  0.917  0.502-   4 1.45  16 1.45   1 1.45
  21  0.333  0.167  0.502-   6 1.45   5 1.45   1 1.45
  22  0.333  0.417  0.502-   7 1.45   6 1.45   2 1.45
  23  0.333  0.667  0.502-   7 1.45   8 1.45   3 1.45
  24  0.333  0.917  0.502-   8 1.45   5 1.45   4 1.45
  25  0.583  0.167  0.502-  10 1.45   5 1.45   9 1.45
  26  0.583  0.417  0.502-   6 1.45  11 1.45  10 1.45
  27  0.583  0.667  0.502-   7 1.45  11 1.45  12 1.45
  28  0.583  0.917  0.502-   8 1.45  12 1.45   9 1.45
  29  0.833  0.167  0.502-   9 1.45  14 1.45  13 1.45
  30  0.833  0.417  0.502-  10 1.45  15 1.45  14 1.45
  31  0.833  0.667  0.502-  11 1.45  15 1.45  16 1.45
  32  0.833  0.917  0.502-  12 1.45  16 1.45  13 1.45
  33  0.564  0.447  0.653-  36 1.34  38 1.34  37 1.35  34 1.51
  34  0.547  0.398  0.612-  39 1.33  40 1.33  33 1.51
  35  0.472  0.787  0.606-  41 1.16  42 1.16
  36  0.699  0.577  0.659-  33 1.34
  37  0.560  0.339  0.677-  33 1.35
  38  0.450  0.473  0.663-  33 1.34
  39  0.662  0.382  0.599-  34 1.33
  40  0.411  0.278  0.604-  34 1.33
  41  0.603  0.868  0.602-  35 1.16
  42  0.340  0.707  0.611-  35 1.16
 

IMPORTANT INFORMATION: All symmetrisations will be switched off!
NOSYMM: (Re-)initialisation of all symmetry stuff for point group C_1.

 
 
 KPOINTS: K-Point Grid                            

Automatic generation of k-mesh.
Space group operators:
 irot       det(A)        alpha          n_x          n_y          n_z        tau_x        tau_y        tau_z
    1     1.000000     0.000000     1.000000     0.000000     0.000000     0.000000     0.000000     0.000000
 
 Subroutine IBZKPT returns following result:
 ===========================================
 
 Found     24 irreducible k-points:
 
 Following reciprocal coordinates:
            Coordinates               Weight
  0.125000  0.125000  0.000000     16.000000
  0.250000 -0.125000  0.000000     16.000000
  0.125000 -0.250000  0.000000     16.000000
  0.375000  0.125000  0.000000     16.000000
  0.500000 -0.375000  0.000000     16.000000
  0.125000  0.500000  0.000000     16.000000
 -0.125000 -0.375000  0.000000     16.000000
  0.375000  0.500000  0.000000     16.000000
  0.500000 -0.125000  0.000000     16.000000
 -0.375000  0.125000  0.000000     16.000000
 -0.250000  0.375000  0.000000     16.000000
  0.125000  0.250000  0.000000     16.000000
 -0.125000  0.375000  0.000000     16.000000
 -0.375000  0.250000  0.000000     16.000000
 -0.250000 -0.125000  0.000000     16.000000
 -0.125000  0.125000  0.000000     16.000000
  0.000000  0.125000  0.000000     16.000000
  0.125000  0.000000  0.000000     16.000000
  0.375000  0.375000  0.000000     16.000000
 -0.250000 -0.375000  0.000000     16.000000
  0.375000  0.250000  0.000000     16.000000
 -0.375000  0.375000  0.000000     16.000000
  0.000000  0.375000  0.000000     16.000000
  0.375000  0.000000  0.000000     16.000000
 
 Following cartesian coordinates:
            Coordinates               Weight
  0.024879  0.000000  0.000000     16.000000
  0.012439 -0.021546  0.000000     16.000000
 -0.012439 -0.021546  0.000000     16.000000
  0.049758 -0.014364  0.000000     16.000000
  0.012439 -0.050273  0.000000     16.000000
  0.062197  0.021546  0.000000     16.000000
 -0.049758 -0.014364  0.000000     16.000000
  0.087076  0.007182  0.000000     16.000000
  0.037318 -0.035909  0.000000     16.000000
 -0.024879  0.028727  0.000000     16.000000
  0.012439  0.035909  0.000000     16.000000
  0.037318  0.007182  0.000000     16.000000
  0.024879  0.028727  0.000000     16.000000
 -0.012439  0.035909  0.000000     16.000000
 -0.037318  0.007182  0.000000     16.000000
  0.000000  0.014364  0.000000     16.000000
  0.012439  0.007182  0.000000     16.000000
  0.012439 -0.007182  0.000000     16.000000
  0.074636  0.000000  0.000000     16.000000
 -0.062197 -0.007182  0.000000     16.000000
  0.062197 -0.007182  0.000000     16.000000
  0.000000  0.043091  0.000000     16.000000
  0.037318  0.021546  0.000000     16.000000
  0.037318 -0.021546  0.000000     16.000000
 


--------------------------------------------------------------------------------------------------------




 Dimension of arrays:
   k-points           NKPTS =     24   k-points in BZ     NKDIM =     24   number of bands    NBANDS=    144
   number of dos      NEDOS =   1200   number of ions     NIONS =     42
   non local maximal  LDIM  =      4   non local SUM 2l+1 LMDIM =      8
   total plane-waves  NPLWV = ******
   max r-space proj   IRMAX =   6598   max aug-charges    IRDMAX=   8974
   dimension x,y,z NGX =    80 NGY =   80 NGZ =  270
   dimension x,y,z NGXF=   160 NGYF=  160 NGZF=  540
   support grid    NGXF=   160 NGYF=  160 NGZF=  540
   ions per type =              16  16   3   5   2
   NGX,Y,Z   is equivalent  to a cutoff of  13.24, 13.24, 12.78 a.u.
   NGXF,Y,Z  is equivalent  to a cutoff of  26.47, 26.47, 25.57 a.u.

 SYSTEM =  SiC                                     
 POSCAR =  B N C F O                               

 Startparameter for this run:
   NWRITE =      2    write-flag & timer
   PREC   = accura    normal or accurate (medium, high low for compatibility)
   ISTART =      1    job   : 0-new  1-cont  2-samecut
   ICHARG =      0    charge: 1-file 2-atom 10-const
   ISPIN  =      2    spin polarized calculation?
   LNONCOLLINEAR =      F non collinear calculations
   LSORBIT =      F    spin-orbit coupling
   INIWAV =      1    electr: 0-lowe 1-rand  2-diag
   LASPH  =      T    aspherical Exc in radial PAW
   METAGGA=      F    non-selfconsistent MetaGGA calc.

 Electronic Relaxation 1
   ENCUT  =  550.0 eV  40.42 Ry    6.36 a.u.  19.22 19.22 67.15*2*pi/ulx,y,z
   ENINI  =  550.0     initial cutoff
   ENAUG  =  644.9 eV  augmentation charge cutoff
   NELM   =    100;   NELMIN=  2; NELMDL=  0     # of ELM steps 
   EDIFF  = 0.1E-04   stopping-criterion for ELM
   LREAL  =      T    real-space projection
   NLSPLINE    = F    spline interpolate recip. space projectors
   LCOMPAT=      F    compatible to vasp.4.4
   GGA_COMPAT  = T    GGA compatible to vasp.4.4-vasp.4.6
   LMAXPAW     = -100 max onsite density
   LMAXMIX     =    2 max onsite mixed and CHGCAR
   VOSKOWN=      0    Vosko Wilk Nusair interpolation
   ROPT   =   -0.00025  -0.00025  -0.00025  -0.00025
   ROPT   =   -0.00025
 Ionic relaxation
   EDIFFG = -.2E-01   stopping-criterion for IOM
   NSW    =    500    number of steps for IOM
   NBLOCK =      1;   KBLOCK =    500    inner block; outer block 
   IBRION =      2    ionic relax: 0-MD 1-quasi-New 2-CG
   NFREE  =      1    steps in history (QN), initial steepest desc. (CG)
   ISIF   =      2    stress and relaxation
   IWAVPR =     11    prediction:  0-non 1-charg 2-wave 3-comb
   ISYM   =      0    0-nonsym 1-usesym 2-fastsym
   LCORR  =      T    Harris-Foulkes like correction to forces

   POTIM  = 0.5000    time-step for ionic-motion
   TEIN   =    0.0    initial temperature
   TEBEG  =    0.0;   TEEND  =   0.0 temperature during run
   SMASS  =  -3.00    Nose mass-parameter (am)
   estimated Nose-frequenzy (Omega)   =  0.10E-29 period in steps =****** mass=  -0.231E-26a.u.
   SCALEE = 1.0000    scale energy and forces
   NPACO  =    256;   APACO  = 16.0  distance and # of slots for P.C.
   PSTRESS=    0.0 pullay stress

  Mass of Ions in am
   POMASS =  10.81 14.00 12.01 19.00 16.00
  Ionic Valenz
   ZVAL   =   3.00  5.00  4.00  7.00  6.00
  Atomic Wigner-Seitz radii
   RWIGS  =  -1.00 -1.00 -1.00 -1.00 -1.00
  virtual crystal weights 
   VCA    =   1.00  1.00  1.00  1.00  1.00
   NELECT =     186.7000    total number of electrons
   NUPDOWN=      -1.0000    fix difference up-down

 DOS related values:
   EMIN   =  10.00;   EMAX   =-10.00  energy-range for DOS
   EFERMI =   0.00
   ISMEAR =     0;   SIGMA  =   0.05  broadening in eV -4-tet -1-fermi 0-gaus

 Electronic relaxation 2 (details)
   IALGO  =     68    algorithm
   LDIAG  =      T    sub-space diagonalisation (order eigenvalues)
   LSUBROT=      F    optimize rotation matrix (better conditioning)
   TURBO    =      0    0=normal 1=particle mesh
   IRESTART =      0    0=no restart 2=restart with 2 vectors
   NREBOOT  =      0    no. of reboots
   NMIN     =      0    reboot dimension
   EREF     =   0.00    reference energy to select bands
   IMIX   =      4    mixing-type and parameters
     AMIX     =   0.40;   BMIX     =  1.00
     AMIX_MAG =   1.60;   BMIX_MAG =  1.00
     AMIN     =   0.10
     WC   =   100.;   INIMIX=   1;  MIXPRE=   1;  MAXMIX= -45

 Intra band minimization:
   WEIMIN = 0.0010     energy-eigenvalue tresh-hold
   EBREAK =  0.17E-07  absolut break condition
   DEPER  =   0.30     relativ break condition  

   TIME   =   0.40     timestep for ELM

  volume/ion in A,a.u.               =      73.11       493.39
  Fermi-wavevector in a.u.,A,eV,Ry     =   0.643737  1.216486  5.638215  0.414397
  Thomas-Fermi vector in A             =   1.710835
 
 Write flags
   LWAVE        =      T    write WAVECAR
   LDOWNSAMPLE  =      F    k-point downsampling of WAVECAR
   LCHARG       =      F    write CHGCAR
   LVTOT        =      F    write LOCPOT, total local potential
   LVHAR        =      T    write LOCPOT, Hartree potential only
   LELF         =      F    write electronic localiz. function (ELF)
   LORBIT       =     11    0 simple, 1 ext, 2 COOP (PROOUT), +10 PAW based schemes


 Dipole corrections
   LMONO  =      F    monopole corrections only (constant potential shift)
   LDIPOL =      F    correct potential (dipole corrections)
   IDIPOL =      0    1-x, 2-y, 3-z, 4-all directions 
   EPSILON=  1.0000000 bulk dielectric constant

 Exchange correlation treatment:
   GGA     =    --    GGA type
   LEXCH   =     8    internal setting for exchange type
   VOSKOWN=      0    Vosko Wilk Nusair interpolation
   LHFCALC =     F    Hartree Fock is set to
   LHFONE  =     F    Hartree Fock one center treatment
   AEXX    =    0.0000 exact exchange contribution

 Linear response parameters
   LEPSILON=     F    determine dielectric tensor
   LRPA    =     F    only Hartree local field effects (RPA)
   LNABLA  =     F    use nabla operator in PAW spheres
   LVEL    =     F    velocity operator in full k-point grid
   LINTERFAST=   F  fast interpolation
   KINTER  =     0    interpolate to denser k-point grid
   CSHIFT  =0.1000    complex shift for real part using Kramers Kronig
   OMEGAMAX=  -1.0    maximum frequency
   DEG_THRESHOLD= 0.2000000E-02 threshold for treating states as degnerate
   RTIME   =   -0.100 relaxation time in fs
  (WPLASMAI=    0.000 imaginary part of plasma frequency in eV, 0.658/RTIME)
   DFIELD  = 0.0000000 0.0000000 0.0000000 field for delta impulse in time
 
 Orbital magnetization related:
   ORBITALMAG=     F  switch on orbital magnetization
   LCHIMAG   =     F  perturbation theory with respect to B field
   DQ        =  0.001000  dq finite difference perturbation B field
   LLRAUG    =     F  two centre corrections for induced B field

 Solvation model:
   LSOL    =     T         switch on solvation model
   EB_K    = 78.400000     relative permittivity of the bulk solvent
   SIGMA_K =  0.600000     width of the dielectric cavity
   NC_K    =  0.002500     cutoff charge density
   TAU     =  0.000000     cavity surface tension
   LAMBDA_D_K    =  3.040000     Debye length in Angstroms
   LRHOB     =     F     write boundcharge  density
   LRHOION     =     F     write ioniccharge density



--------------------------------------------------------------------------------------------------------


 conjugate gradient relaxation of ions
   using selective dynamics as specified on POSCAR
 charge density and potential will be updated during run
 spin polarized calculation
 RMM-DIIS sequential band-by-band and
  variant of blocked Davidson during initial phase
 perform sub-space diagonalisation
    before iterative eigenvector-optimisation
 modified Broyden-mixing scheme, WC =      100.0
 initial mixing is a Kerker type mixing with AMIX =  0.4000 and BMIX =      1.0000
 Hartree-type preconditioning will be used
 using additional bands           50
 real space projection scheme for non local part
 use partial core corrections
 calculate Harris-corrections to forces 
   (improved forces if not selfconsistent)
 use gradient corrections 
 use of overlap-Matrix (Vanderbilt PP)
 Gauss-broadening in eV      SIGMA  =   0.05


--------------------------------------------------------------------------------------------------------


  energy-cutoff  :      550.00
  volume of cell :     3070.74
      direct lattice vectors                 reciprocal lattice vectors
     5.024366704 -8.702497373  0.000000000     0.099515029 -0.057454772  0.000000000
     5.024366704  8.702497373  0.000000000     0.099515029  0.057454772  0.000000000
     0.000000000  0.000000000 35.114664386     0.000000000  0.000000000  0.028478131

  length of vectors
    10.048767154 10.048767154 35.114664386     0.114909929  0.114909929  0.028478131


 
 old parameters found on file WAVECAR:
  energy-cutoff  :      550.00
  volume of cell :     3070.74
      direct lattice vectors                 reciprocal lattice vectors
     5.024366704 -8.702497373  0.000000000     0.099515029 -0.057454772  0.000000000
     5.024366704  8.702497373  0.000000000     0.099515029  0.057454772  0.000000000
     0.000000000  0.000000000 35.114664386     0.000000000  0.000000000  0.028478131

  length of vectors

 
 k-points in units of 2pi/SCALE and weight: K-Point Grid                            
   0.02487876  0.00000000  0.00000000       0.042
   0.01243938 -0.02154554  0.00000000       0.042
  -0.01243938 -0.02154554  0.00000000       0.042
   0.04975751 -0.01436369  0.00000000       0.042
   0.01243938 -0.05027293  0.00000000       0.042
   0.06219689  0.02154554  0.00000000       0.042
  -0.04975751 -0.01436369  0.00000000       0.042
   0.08707565  0.00718185  0.00000000       0.042
   0.03731814 -0.03590923  0.00000000       0.042
  -0.02487876  0.02872739  0.00000000       0.042
   0.01243938  0.03590923  0.00000000       0.042
   0.03731814  0.00718185  0.00000000       0.042
   0.02487876  0.02872739  0.00000000       0.042
  -0.01243938  0.03590923  0.00000000       0.042
  -0.03731814  0.00718185  0.00000000       0.042
   0.00000000  0.01436369  0.00000000       0.042
   0.01243938  0.00718185  0.00000000       0.042
   0.01243938 -0.00718185  0.00000000       0.042
   0.07463627  0.00000000  0.00000000       0.042
  -0.06219689 -0.00718185  0.00000000       0.042
   0.06219689 -0.00718185  0.00000000       0.042
   0.00000000  0.04309108  0.00000000       0.042
   0.03731814  0.02154554  0.00000000       0.042
   0.03731814 -0.02154554  0.00000000       0.042
 
 k-points in reciprocal lattice and weights: K-Point Grid                            
   0.12500000  0.12500000  0.00000000       0.042
   0.25000000 -0.12500000  0.00000000       0.042
   0.12500000 -0.25000000  0.00000000       0.042
   0.37500000  0.12500000  0.00000000       0.042
   0.50000000 -0.37500000  0.00000000       0.042
   0.12500000  0.50000000  0.00000000       0.042
  -0.12500000 -0.37500000  0.00000000       0.042
   0.37500000  0.50000000  0.00000000       0.042
   0.50000000 -0.12500000  0.00000000       0.042
  -0.37500000  0.12500000  0.00000000       0.042
  -0.25000000  0.37500000  0.00000000       0.042
   0.12500000  0.25000000  0.00000000       0.042
  -0.12500000  0.37500000  0.00000000       0.042
  -0.37500000  0.25000000  0.00000000       0.042
  -0.25000000 -0.12500000  0.00000000       0.042
  -0.12500000  0.12500000  0.00000000       0.042
   0.00000000  0.12500000  0.00000000       0.042
   0.12500000  0.00000000  0.00000000       0.042
   0.37500000  0.37500000  0.00000000       0.042
  -0.25000000 -0.37500000  0.00000000       0.042
   0.37500000  0.25000000  0.00000000       0.042
  -0.37500000  0.37500000  0.00000000       0.042
   0.00000000  0.37500000  0.00000000       0.042
   0.37500000  0.00000000  0.00000000       0.042
 
 position of ions in fractional coordinates (direct lattice) 
   0.16655320  0.08346530  0.50211956
   0.16654213  0.33344862  0.50215970
   0.16656106  0.58346857  0.50213908
   0.16656179  0.83347596  0.50211104
   0.41657984  0.08348919  0.50209023
   0.41654565  0.33344200  0.50213768
   0.41657139  0.58346114  0.50209421
   0.41658510  0.83352721  0.50193338
   0.66659490  0.08348255  0.50208607
   0.66660865  0.33347264  0.50217969
   0.66660975  0.58348780  0.50219644
   0.66660176  0.83352347  0.50207502
   0.91657931  0.08348105  0.50212890
   0.91657509  0.33347176  0.50214656
   0.91657467  0.58346416  0.50215890
   0.91657513  0.83347603  0.50213984
   0.08323871  0.16680640  0.50215286
   0.08325134  0.41681355  0.50216935
   0.08324576  0.66680806  0.50214259
   0.08323460  0.91680430  0.50213987
   0.33323729  0.16680615  0.50208919
   0.33324196  0.41680610  0.50215599
   0.33328301  0.66684501  0.50206709
   0.33324604  0.91681868  0.50203524
   0.58324914  0.16682299  0.50216122
   0.58322868  0.41680018  0.50223740
   0.58324134  0.66681288  0.50218811
   0.58321460  0.91680350  0.50195391
   0.83324011  0.16680679  0.50211227
   0.83323414  0.41680443  0.50216032
   0.83323070  0.66679339  0.50216118
   0.83323257  0.91680574  0.50211555
   0.56449292  0.44723378  0.65339058
   0.54717971  0.39807511  0.61227153
   0.47194225  0.78745357  0.60636639
   0.69945064  0.57650797  0.65858387
   0.56010887  0.33940049  0.67729556
   0.45017735  0.47271189  0.66326955
   0.66178313  0.38159945  0.59908163
   0.41127207  0.27822500  0.60380379
   0.60338040  0.86776621  0.60192430
   0.34043436  0.70666170  0.61061710
 
 position of ions in cartesian coordinates  (Angst):
   1.25618463 -0.72307220 17.63175989
   2.51213687  1.45250333 17.63316947
   3.76842387  3.62813650 17.63244523
   5.02455640  5.80381885 17.63146059
   2.51253018 -2.89872049 17.63072995
   3.76821295 -0.72320930 17.63239613
   5.02453015  1.45235768 17.63086980
   6.28102270  3.62843763 17.62522207
   3.76866417 -5.07453367 17.63058379
   5.02477516 -2.89911524 17.63387111
   6.28094853 -0.72336858 17.63445935
   7.53717930  1.45263575 17.63019586
   5.02466999 -7.25003538 17.63208767
   6.28069380 -5.07445520 17.63270790
   7.53674513 -2.89889332 17.63314131
   8.79289880 -0.72316975 17.63247209
   1.25631832  0.72724766 17.63292905
   2.51250939  2.90282421 17.63350811
   3.76854544  5.07844943 17.63256840
   5.02456215  7.25413809 17.63247286
   2.51240159 -1.44836657 17.63069324
   3.76851649  0.72721667 17.63303897
   5.02500995  2.90282240 17.62991736
   6.28078354  5.07853940 17.62879885
   3.76863744 -3.62394749 17.63322285
   5.02451171 -1.44834360 17.63589784
   6.28073084  0.72728110 17.63416689
   7.53664103  2.90305650 17.62594292
   5.02460235 -5.79963419 17.63150383
   6.28065219 -3.62397843 17.63319104
   7.53667109 -1.44842025 17.63322121
   8.79283420  0.72729531 17.63161913
   5.08328593 -1.02044738 22.94359080
   4.74930684 -1.29758238 21.49970942
   6.32766644  2.74573638 21.29235232
   6.41088396 -1.06990826 23.12595164
   4.51946488 -1.92071411 23.78300628
   4.63693400  0.19610679 23.29048762
   5.24233667 -2.43829769 21.03655022
   3.46428614 -1.15784182 21.20236749
   7.39158002  2.30081678 21.13636983
   5.26099460  3.18709242 21.44161456
 


--------------------------------------------------------------------------------------------------------


 k-point  1 :   0.1250 0.1250 0.0000  plane waves:   89921
 k-point  2 :   0.2500-0.1250 0.0000  plane waves:   89921
 k-point  3 :   0.1250-0.2500 0.0000  plane waves:   89921
 k-point  4 :   0.3750 0.1250 0.0000  plane waves:   89970
 k-point  5 :   0.5000-0.3750 0.0000  plane waves:   89970
 k-point  6 :   0.1250 0.5000 0.0000  plane waves:   89970
 k-point  7 :  -0.1250-0.3750 0.0000  plane waves:   89970
 k-point  8 :   0.3750 0.5000 0.0000  plane waves:   89970
 k-point  9 :   0.5000-0.1250 0.0000  plane waves:   89970
 k-point 10 :  -0.3750 0.1250 0.0000  plane waves:   89943
 k-point 11 :  -0.2500 0.3750 0.0000  plane waves:   89943
 k-point 12 :   0.1250 0.2500 0.0000  plane waves:   89943
 k-point 13 :  -0.1250 0.3750 0.0000  plane waves:   89943
 k-point 14 :  -0.3750 0.2500 0.0000  plane waves:   89943
 k-point 15 :  -0.2500-0.1250 0.0000  plane waves:   89943
 k-point 16 :  -0.1250 0.1250 0.0000  plane waves:   89893
 k-point 17 :   0.0000 0.1250 0.0000  plane waves:   89893
 k-point 18 :   0.1250 0.0000 0.0000  plane waves:   89893
 k-point 19 :   0.3750 0.3750 0.0000  plane waves:   89957
 k-point 20 :  -0.2500-0.3750 0.0000  plane waves:   89957
 k-point 21 :   0.3750 0.2500 0.0000  plane waves:   89957
 k-point 22 :  -0.3750 0.3750 0.0000  plane waves:   89980
 k-point 23 :   0.0000 0.3750 0.0000  plane waves:   89980
 k-point 24 :   0.3750 0.0000 0.0000  plane waves:   89980

 maximum and minimum number of plane-waves per node :     89980    89893

 maximum number of plane-waves:     89980
 maximum index in each direction: 
   IXMAX=   19   IYMAX=   19   IZMAX=   67
   IXMIN=  -19   IYMIN=  -19   IZMIN=  -67


 serial   3D FFT for wavefunctions
 parallel 3D FFT for charge:
    minimum data exchange during FFTs selected (reduces bandwidth)


 total amount of memory used by VASP MPI-rank0  1323170. kBytes
=======================================================================

   base      :      30000. kBytes
   nonlr-proj:      18684. kBytes
   fftplans  :      47149. kBytes
   grid      :     394654. kBytes
   one-center:        258. kBytes
   wavefun   :     832425. kBytes
 
     INWAV:  cpu time   23.1584: real time   32.7553
 Broyden mixing: mesh for mixing (old mesh)
   NGX = 39   NGY = 39   NGZ =135
  (NGX  =160   NGY  =160   NGZ  =540)
  gives a total of 205335 points

 charge density for first step will be calculated from the start-wavefunctions


--------------------------------------------------------------------------------------------------------


 Maximum index for non-local projection operator         6369
 Maximum index for augmentation-charges          741 (set IRDMAX)


--------------------------------------------------------------------------------------------------------


 initial charge from wavefunction
 First call to EWALD:  gamma=   0.122
 Maximum number of real-space cells 4x 4x 1
 Maximum number of reciprocal cells 2x 2x 6

    FEWALD:  cpu time    0.0526: real time    0.0492


--------------------------------------- Iteration      1(   1)  ---------------------------------------


    POTLOK:  cpu time   55.7217: real time   90.9719
    SETDIJ:  cpu time    0.5812: real time    0.3844
     EDDAV:  cpu time  281.4877: real time  156.0617
       DOS:  cpu time    0.1083: real time    0.1055
    CHARGE:  cpu time   33.0872: real time   32.2800
    MIXING:  cpu time    0.1997: real time    0.1623
    --------------------------------------------
      LOOP:  cpu time  371.1858: real time  279.9659

 eigenvalue-minimisations  : 10932
 total energy-change (2. order) :-0.3855919E+03  (-0.9216608E-06)
 number of electron     186.6999986 magnetization       0.9999989
 augmentation part       11.5030328 magnetization       0.1189210

 Broyden mixing:
  rms(total) = 0.47026E-01    rms(broyden)= 0.46649E-01
  rms(prec ) = 0.62074E-01
  weight for this iteration     100.00

 Free energy of the ion-electron system (eV)
  ---------------------------------------------------
  alpha Z        PSCENC =        57.55240194
  Ewald energy   TEWEN  =     64930.29934826
  -Hartree energ DENC   =    -73528.66062783
  -exchange      EXHF   =         0.00000000
  -V(xc)+E(xc)   XCENC  =       896.43375345
  PAW double counting   =     21167.67383457   -21264.03248575
  entropy T*S    EENTRO =        -0.00538809
  eigenvalues    EBANDS =     -2806.14638770
  atomic energy  EATOM  =      9975.55785330
  Solvation  Ediel_sol  =       185.73577981
  ---------------------------------------------------
  free energy    TOTEN  =      -385.59191805 eV

  energy without entropy =     -385.58652996  energy(sigma->0) =     -385.58922400


--------------------------------------------------------------------------------------------------------




--------------------------------------- Iteration      1(   2)  ---------------------------------------


    POTLOK:  cpu time   47.9468: real time   48.0626
    SETDIJ:  cpu time    1.2042: real time    0.8114
    EDDIAG:  cpu time   55.8570: real time   40.7146
  RMM-DIIS:  cpu time  383.1544: real time  235.1432
    ORTHCH:  cpu time    1.5534: real time    0.7793
       DOS:  cpu time    0.0205: real time    0.0103
    CHARGE:  cpu time   33.2912: real time   32.4178
    MIXING:  cpu time    0.1686: real time    0.1047
    --------------------------------------------
      LOOP:  cpu time  523.1962: real time  358.0439

 eigenvalue-minimisations  : 13824
 total energy-change (2. order) : 0.2744876E-01  (-0.2461092E-02)
 number of electron     186.6999986 magnetization       0.9999968
 augmentation part       11.5178849 magnetization       0.1189676

 Broyden mixing:
  rms(total) = 0.21752E-01    rms(broyden)= 0.21749E-01
  rms(prec ) = 0.41209E-01
  weight for this iteration     100.00

 eigenvalues of (default mixing * dielectric matrix)
  average eigenvalue GAMMA=   1.1666
  1.1666

 Free energy of the ion-electron system (eV)
  ---------------------------------------------------
  alpha Z        PSCENC =        57.55240194
  Ewald energy   TEWEN  =     64930.29934826
  -Hartree energ DENC   =    -73501.23674901
  -exchange      EXHF   =         0.00000000
  -V(xc)+E(xc)   XCENC  =       895.88402693
  PAW double counting   =     21149.09414653   -21245.40588095
  entropy T*S    EENTRO =        -0.00542948
  eigenvalues    EBANDS =     -2819.13423349
  atomic energy  EATOM  =      9975.55785330
  Solvation  Ediel_sol  =       171.83004669
  ---------------------------------------------------
  free energy    TOTEN  =      -385.56446928 eV

  energy without entropy =     -385.55903980  energy(sigma->0) =     -385.56175454


--------------------------------------------------------------------------------------------------------




--------------------------------------- Iteration      1(   3)  ---------------------------------------


    POTLOK:  cpu time   46.5692: real time   46.6709
    SETDIJ:  cpu time    0.6536: real time    0.4198
    EDDIAG:  cpu time   55.8959: real time   40.6544
  RMM-DIIS:  cpu time  383.5202: real time  235.0808
    ORTHCH:  cpu time    1.5626: real time    0.7839
       DOS:  cpu time    0.0113: real time    0.0056
    CHARGE:  cpu time   33.1710: real time   32.2960
    MIXING:  cpu time    0.1342: real time    0.0672
    --------------------------------------------
      LOOP:  cpu time  521.5181: real time  355.9787

 eigenvalue-minimisations  : 13824
 total energy-change (2. order) : 0.6765010E-02  (-0.4918159E-03)
 number of electron     186.6999986 magnetization       0.9999835
 augmentation part       11.5217302 magnetization       0.1189881

 Broyden mixing:
  rms(total) = 0.15285E-01    rms(broyden)= 0.15284E-01
  rms(prec ) = 0.33652E-01
  weight for this iteration     100.00

 eigenvalues of (default mixing * dielectric matrix)
  average eigenvalue GAMMA=   1.8291
  1.3388  2.3194

 Free energy of the ion-electron system (eV)
  ---------------------------------------------------
  alpha Z        PSCENC =        57.55240194
  Ewald energy   TEWEN  =     64930.29934826
  -Hartree energ DENC   =    -73472.76234883
  -exchange      EXHF   =         0.00000000
  -V(xc)+E(xc)   XCENC  =       895.79492230
  PAW double counting   =     21134.23532535   -21230.52772455
  entropy T*S    EENTRO =        -0.00543990
  eigenvalues    EBANDS =     -2824.77265294
  atomic energy  EATOM  =      9975.55785330
  Solvation  Ediel_sol  =       149.07061080
  ---------------------------------------------------
  free energy    TOTEN  =      -385.55770427 eV

  energy without entropy =     -385.55226438  energy(sigma->0) =     -385.55498433


--------------------------------------------------------------------------------------------------------




--------------------------------------- Iteration      1(   4)  ---------------------------------------


    POTLOK:  cpu time   48.3508: real time   48.4562
    SETDIJ:  cpu time    0.7674: real time    0.4764
    EDDIAG:  cpu time   55.9137: real time   40.6686
  RMM-DIIS:  cpu time  383.5448: real time  235.0344
    ORTHCH:  cpu time    1.5561: real time    0.7806
       DOS:  cpu time    0.0238: real time    0.0119
    CHARGE:  cpu time   33.1344: real time   32.2901
    MIXING:  cpu time    0.1467: real time    0.0735
    --------------------------------------------
      LOOP:  cpu time  523.4377: real time  357.7918

 eigenvalue-minimisations  : 13824
 total energy-change (2. order) : 0.7161110E-02  (-0.1050005E-02)
 number of electron     186.6999986 magnetization       0.9999637
 augmentation part       11.5223930 magnetization       0.1190893

 Broyden mixing:
  rms(total) = 0.10394E-01    rms(broyden)= 0.10390E-01
  rms(prec ) = 0.20014E-01
  weight for this iteration     100.00

 eigenvalues of (default mixing * dielectric matrix)
  average eigenvalue GAMMA=   1.5697
  2.2509  1.0364  1.4219

 Free energy of the ion-electron system (eV)
  ---------------------------------------------------
  alpha Z        PSCENC =        57.55240194
  Ewald energy   TEWEN  =     64930.29934826
  -Hartree energ DENC   =    -73397.79228044
  -exchange      EXHF   =         0.00000000
  -V(xc)+E(xc)   XCENC  =       895.50676886
  PAW double counting   =     21108.44479821   -21204.71978540
  entropy T*S    EENTRO =        -0.00544449
  eigenvalues    EBANDS =     -2835.61665788
  atomic energy  EATOM  =      9975.55785330
  Solvation  Ediel_sol  =        85.22245448
  ---------------------------------------------------
  free energy    TOTEN  =      -385.55054316 eV

  energy without entropy =     -385.54509868  energy(sigma->0) =     -385.54782092


--------------------------------------------------------------------------------------------------------




--------------------------------------- Iteration      1(   5)  ---------------------------------------


    POTLOK:  cpu time   45.8266: real time   45.9309
    SETDIJ:  cpu time    1.2254: real time    0.8327
    EDDIAG:  cpu time   55.9172: real time   40.6660
  RMM-DIIS:  cpu time  382.7800: real time  234.7859
    ORTHCH:  cpu time    1.5416: real time    0.7733
       DOS:  cpu time    0.0294: real time    0.0147
    CHARGE:  cpu time   33.1684: real time   32.2977
    MIXING:  cpu time    0.1511: real time    0.0787
    --------------------------------------------
      LOOP:  cpu time  520.6396: real time  355.3800

 eigenvalue-minimisations  : 13824
 total energy-change (2. order) :-0.9994905E-03  (-0.2136935E-03)
 number of electron     186.6999986 magnetization       0.9999153
 augmentation part       11.5246921 magnetization       0.1190797

 Broyden mixing:
  rms(total) = 0.72164E-02    rms(broyden)= 0.72125E-02
  rms(prec ) = 0.14089E-01
  weight for this iteration     100.00

 eigenvalues of (default mixing * dielectric matrix)
  average eigenvalue GAMMA=   2.1461
  3.2564  3.2564  0.9091  1.1624

 Free energy of the ion-electron system (eV)
  ---------------------------------------------------
  alpha Z        PSCENC =        57.55240194
  Ewald energy   TEWEN  =     64930.29934826
  -Hartree energ DENC   =    -73368.47365488
  -exchange      EXHF   =         0.00000000
  -V(xc)+E(xc)   XCENC  =       895.42013460
  PAW double counting   =     21114.31384892   -21210.59823796
  entropy T*S    EENTRO =        -0.00545427
  eigenvalues    EBANDS =     -2838.09335643
  atomic energy  EATOM  =      9975.55785330
  Solvation  Ediel_sol  =        58.47557386
  ---------------------------------------------------
  free energy    TOTEN  =      -385.55154265 eV

  energy without entropy =     -385.54608838  energy(sigma->0) =     -385.54881552


--------------------------------------------------------------------------------------------------------




--------------------------------------- Iteration      1(   6)  ---------------------------------------


    POTLOK:  cpu time   47.0777: real time   47.1804
    SETDIJ:  cpu time    0.8275: real time    0.5067
    EDDIAG:  cpu time   55.8866: real time   40.6559
  RMM-DIIS:  cpu time  383.1501: real time  234.8034
    ORTHCH:  cpu time    1.5623: real time    0.7837
       DOS:  cpu time    0.0118: real time    0.0059
    CHARGE:  cpu time   33.1875: real time   32.2171
    MIXING:  cpu time    0.2137: real time    0.1423
    --------------------------------------------
      LOOP:  cpu time  521.9171: real time  356.2954

 eigenvalue-minimisations  : 13824
 total energy-change (2. order) :-0.8246377E-03  (-0.4685061E-03)
 number of electron     186.6999986 magnetization       0.9999044
 augmentation part       11.5266989 magnetization       0.1190848

 Broyden mixing:
  rms(total) = 0.38520E-02    rms(broyden)= 0.38458E-02
  rms(prec ) = 0.47339E-02
  weight for this iteration     100.00

 eigenvalues of (default mixing * dielectric matrix)
  average eigenvalue GAMMA=   2.2881
  5.6802  2.7538  1.1276  1.1276  0.7513

 Free energy of the ion-electron system (eV)
  ---------------------------------------------------
  alpha Z        PSCENC =        57.55240194
  Ewald energy   TEWEN  =     64930.29934826
  -Hartree energ DENC   =    -73310.49448329
  -exchange      EXHF   =         0.00000000
  -V(xc)+E(xc)   XCENC  =       895.33479202
  PAW double counting   =     21129.68290690   -21225.99600163
  entropy T*S    EENTRO =        -0.00546315
  eigenvalues    EBANDS =     -2840.97284091
  atomic energy  EATOM  =      9975.55785330
  Solvation  Ediel_sol  =         3.48911926
  ---------------------------------------------------
  free energy    TOTEN  =      -385.55236729 eV

  energy without entropy =     -385.54690414  energy(sigma->0) =     -385.54963572


--------------------------------------------------------------------------------------------------------




--------------------------------------- Iteration      1(   7)  ---------------------------------------


    POTLOK:  cpu time   42.7972: real time   42.8908
    SETDIJ:  cpu time    0.5793: real time    0.3827
    EDDIAG:  cpu time   56.0253: real time   40.6263
  RMM-DIIS:  cpu time  382.7106: real time  234.5745
    ORTHCH:  cpu time    1.5538: real time    0.7794
       DOS:  cpu time    0.0096: real time    0.0048
    CHARGE:  cpu time   33.0956: real time   32.1794
    MIXING:  cpu time    0.1539: real time    0.0781
    --------------------------------------------
      LOOP:  cpu time  516.9253: real time  351.5160

 eigenvalue-minimisations  : 13824
 total energy-change (2. order) :-0.7138710E-03  (-0.3516519E-04)
 number of electron     186.6999986 magnetization       0.9998804
 augmentation part       11.5261449 magnetization       0.1190904

 Broyden mixing:
  rms(total) = 0.26569E-02    rms(broyden)= 0.26559E-02
  rms(prec ) = 0.33556E-02
  weight for this iteration     100.00

 eigenvalues of (default mixing * dielectric matrix)
  average eigenvalue GAMMA=   2.3125
  6.5609  2.7380  1.7451  1.2457  0.8875  0.6978

 Free energy of the ion-electron system (eV)
  ---------------------------------------------------
  alpha Z        PSCENC =        57.55240194
  Ewald energy   TEWEN  =     64930.29934826
  -Hartree energ DENC   =    -73306.06503630
  -exchange      EXHF   =         0.00000000
  -V(xc)+E(xc)   XCENC  =       895.34736090
  PAW double counting   =     21129.00715602   -21225.31880723
  entropy T*S    EENTRO =        -0.00546082
  eigenvalues    EBANDS =     -2840.63147745
  atomic energy  EATOM  =      9975.55785330
  Solvation  Ediel_sol  =        -1.29641978
  ---------------------------------------------------
  free energy    TOTEN  =      -385.55308116 eV

  energy without entropy =     -385.54762035  energy(sigma->0) =     -385.55035075


--------------------------------------------------------------------------------------------------------




--------------------------------------- Iteration      1(   8)  ---------------------------------------


    POTLOK:  cpu time   44.9292: real time   45.0282
    SETDIJ:  cpu time    0.5784: real time    0.3818
    EDDIAG:  cpu time   56.0593: real time   40.6442
  RMM-DIIS:  cpu time  382.8668: real time  234.8878
    ORTHCH:  cpu time    1.5604: real time    0.7828
       DOS:  cpu time    0.0165: real time    0.0083
    CHARGE:  cpu time   33.1346: real time   32.2237
    MIXING:  cpu time    0.1527: real time    0.0786
    --------------------------------------------
      LOOP:  cpu time  519.2979: real time  354.0352

 eigenvalue-minimisations  : 13824
 total energy-change (2. order) :-0.1109403E-02  (-0.3196432E-04)
 number of electron     186.6999986 magnetization       0.9998666
 augmentation part       11.5255554 magnetization       0.1190235

 Broyden mixing:
  rms(total) = 0.20488E-02    rms(broyden)= 0.20487E-02
  rms(prec ) = 0.23312E-02
  weight for this iteration     100.00

 eigenvalues of (default mixing * dielectric matrix)
  average eigenvalue GAMMA=   2.4062
  7.6906  3.2225  2.4348  1.0650  1.0650  0.7568  0.6083

 Free energy of the ion-electron system (eV)
  ---------------------------------------------------
  alpha Z        PSCENC =        57.55240194
  Ewald energy   TEWEN  =     64930.29934826
  -Hartree energ DENC   =    -73303.19916087
  -exchange      EXHF   =         0.00000000
  -V(xc)+E(xc)   XCENC  =       895.37519487
  PAW double counting   =     21131.99789535   -21228.31008760
  entropy T*S    EENTRO =        -0.00545926
  eigenvalues    EBANDS =     -2839.13490214
  atomic energy  EATOM  =      9975.55785330
  Solvation  Ediel_sol  =        -5.68727441
  ---------------------------------------------------
  free energy    TOTEN  =      -385.55419057 eV

  energy without entropy =     -385.54873131  energy(sigma->0) =     -385.55146094


--------------------------------------------------------------------------------------------------------




--------------------------------------- Iteration      1(   9)  ---------------------------------------


    POTLOK:  cpu time   43.1832: real time   43.2778
    SETDIJ:  cpu time    1.3504: real time    0.9579
    EDDIAG:  cpu time   55.8833: real time   40.7317
  RMM-DIIS:  cpu time  360.4638: real time  220.8724
    ORTHCH:  cpu time    1.5515: real time    0.7783
       DOS:  cpu time    0.0218: real time    0.0109
    CHARGE:  cpu time   33.0170: real time   32.1426
    MIXING:  cpu time    0.1500: real time    0.0799
    --------------------------------------------
      LOOP:  cpu time  495.6211: real time  338.8517

 eigenvalue-minimisations  : 12457
 total energy-change (2. order) :-0.4068328E-03  (-0.9744871E-05)
 number of electron     186.6999986 magnetization       0.9998561
 augmentation part       11.5257642 magnetization       0.1190012

 Broyden mixing:
  rms(total) = 0.96101E-03    rms(broyden)= 0.96096E-03
  rms(prec ) = 0.11722E-02
  weight for this iteration     100.00

 eigenvalues of (default mixing * dielectric matrix)
  average eigenvalue GAMMA=   2.4033
  8.3035  3.7490  2.4349  1.2759  1.2759  0.8667  0.7258  0.5946

 Free energy of the ion-electron system (eV)
  ---------------------------------------------------
  alpha Z        PSCENC =        57.55240194
  Ewald energy   TEWEN  =     64930.29934826
  -Hartree energ DENC   =    -73302.01633713
  -exchange      EXHF   =         0.00000000
  -V(xc)+E(xc)   XCENC  =       895.37952613
  PAW double counting   =     21133.21314367   -21229.52382445
  entropy T*S    EENTRO =        -0.00546018
  eigenvalues    EBANDS =     -2838.61947003
  atomic energy  EATOM  =      9975.55785330
  Solvation  Ediel_sol  =        -7.39177892
  ---------------------------------------------------
  free energy    TOTEN  =      -385.55459740 eV

  energy without entropy =     -385.54913722  energy(sigma->0) =     -385.55186731


--------------------------------------------------------------------------------------------------------




--------------------------------------- Iteration      1(  10)  ---------------------------------------


    POTLOK:  cpu time   41.8475: real time   41.9399
    SETDIJ:  cpu time    1.1068: real time    0.7138
    EDDIAG:  cpu time   55.9692: real time   40.6910
  RMM-DIIS:  cpu time  355.6157: real time  218.2577
    ORTHCH:  cpu time    1.5547: real time    0.7802
       DOS:  cpu time    0.0256: real time    0.0128
    CHARGE:  cpu time   33.1794: real time   32.2423
    MIXING:  cpu time    0.1478: real time    0.0763
    --------------------------------------------
      LOOP:  cpu time  489.4467: real time  334.7139

 eigenvalue-minimisations  : 12365
 total energy-change (2. order) :-0.3373270E-03  (-0.5509582E-05)
 number of electron     186.6999986 magnetization       0.9998431
 augmentation part       11.5261975 magnetization       0.1189868

 Broyden mixing:
  rms(total) = 0.93751E-03    rms(broyden)= 0.93736E-03
  rms(prec ) = 0.10493E-02
  weight for this iteration     100.00

 eigenvalues of (default mixing * dielectric matrix)
  average eigenvalue GAMMA=   2.4402
  8.5988  4.2387  2.7913  2.0076  1.0833  1.0833  0.8368  0.7254  0.5968

 Free energy of the ion-electron system (eV)
  ---------------------------------------------------
  alpha Z        PSCENC =        57.55240194
  Ewald energy   TEWEN  =     64930.29934826
  -Hartree energ DENC   =    -73301.36160995
  -exchange      EXHF   =         0.00000000
  -V(xc)+E(xc)   XCENC  =       895.37831723
  PAW double counting   =     21132.73136437   -21229.04035547
  entropy T*S    EENTRO =        -0.00546097
  eigenvalues    EBANDS =     -2838.55998218
  atomic energy  EATOM  =      9975.55785330
  Solvation  Ediel_sol  =        -8.10681126
  ---------------------------------------------------
  free energy    TOTEN  =      -385.55493473 eV

  energy without entropy =     -385.54947376  energy(sigma->0) =     -385.55220424


--------------------------------------------------------------------------------------------------------




--------------------------------------- Iteration      1(  11)  ---------------------------------------


    POTLOK:  cpu time   41.0184: real time   41.1098
    SETDIJ:  cpu time    0.7412: real time    0.4637
    EDDIAG:  cpu time   56.1014: real time   40.7058
  RMM-DIIS:  cpu time  330.6330: real time  202.4466
    ORTHCH:  cpu time    1.5443: real time    0.7747
       DOS:  cpu time    0.0336: real time    0.0169
    CHARGE:  cpu time   33.3355: real time   32.2751
    MIXING:  cpu time    0.2188: real time    0.1413
    --------------------------------------------
      LOOP:  cpu time  463.6263: real time  317.9338

 eigenvalue-minimisations  : 10916
 total energy-change (2. order) :-0.3441111E-03  (-0.3955046E-05)
 number of electron     186.6999986 magnetization       0.9998343
 augmentation part       11.5261300 magnetization       0.1189816

 Broyden mixing:
  rms(total) = 0.37278E-03    rms(broyden)= 0.37263E-03
  rms(prec ) = 0.44964E-03
  weight for this iteration     100.00

 eigenvalues of (default mixing * dielectric matrix)
  average eigenvalue GAMMA=   2.4331
  8.9969  4.6664  3.0788  2.1751  1.2144  1.2144  0.8466  0.8466  0.6853  0.6065

 Free energy of the ion-electron system (eV)
  ---------------------------------------------------
  alpha Z        PSCENC =        57.55240194
  Ewald energy   TEWEN  =     64930.29934826
  -Hartree energ DENC   =    -73300.89223456
  -exchange      EXHF   =         0.00000000
  -V(xc)+E(xc)   XCENC  =       895.38101267
  PAW double counting   =     21131.35662496   -21227.66452595
  entropy T*S    EENTRO =        -0.00546007
  eigenvalues    EBANDS =     -2838.53847974
  atomic energy  EATOM  =      9975.55785330
  Solvation  Ediel_sol  =        -8.60181963
  ---------------------------------------------------
  free energy    TOTEN  =      -385.55527884 eV

  energy without entropy =     -385.54981876  energy(sigma->0) =     -385.55254880


--------------------------------------------------------------------------------------------------------




--------------------------------------- Iteration      1(  12)  ---------------------------------------


    POTLOK:  cpu time   39.1818: real time   39.2680
    SETDIJ:  cpu time    0.7147: real time    0.4518
    EDDIAG:  cpu time   56.1087: real time   40.7987
  RMM-DIIS:  cpu time  317.7148: real time  193.9809
    ORTHCH:  cpu time    1.5741: real time    0.7901
       DOS:  cpu time    0.0041: real time    0.0021
    CHARGE:  cpu time   33.1859: real time   32.2177
    MIXING:  cpu time    0.1644: real time    0.0936
    --------------------------------------------
      LOOP:  cpu time  448.6487: real time  307.6030

 eigenvalue-minimisations  : 10055
 total energy-change (2. order) :-0.1509136E-03  (-0.1780941E-05)
 number of electron     186.6999986 magnetization       0.9998261
 augmentation part       11.5259001 magnetization       0.1189748

 Broyden mixing:
  rms(total) = 0.36286E-03    rms(broyden)= 0.36279E-03
  rms(prec ) = 0.40163E-03
  weight for this iteration     100.00

 eigenvalues of (default mixing * dielectric matrix)
  average eigenvalue GAMMA=   2.3991
  9.2819  4.9207  3.1266  2.3686  1.5872  1.0388  1.0388  0.9064  0.8319  0.6790
  0.6098

 Free energy of the ion-electron system (eV)
  ---------------------------------------------------
  alpha Z        PSCENC =        57.55240194
  Ewald energy   TEWEN  =     64930.29934826
  -Hartree energ DENC   =    -73300.83035663
  -exchange      EXHF   =         0.00000000
  -V(xc)+E(xc)   XCENC  =       895.38368955
  PAW double counting   =     21131.16068292   -21227.46926770
  entropy T*S    EENTRO =        -0.00545949
  eigenvalues    EBANDS =     -2838.47567027
  atomic energy  EATOM  =      9975.55785330
  Solvation  Ediel_sol  =        -8.72865164
  ---------------------------------------------------
  free energy    TOTEN  =      -385.55542975 eV

  energy without entropy =     -385.54997026  energy(sigma->0) =     -385.55270001


--------------------------------------------------------------------------------------------------------




--------------------------------------- Iteration      1(  13)  ---------------------------------------


    POTLOK:  cpu time   38.0635: real time   38.1469
    SETDIJ:  cpu time    0.6136: real time    0.4012
    EDDIAG:  cpu time   55.7621: real time   40.5148
  RMM-DIIS:  cpu time  301.7484: real time  184.6912
    ORTHCH:  cpu time    1.5459: real time    0.7758
       DOS:  cpu time    0.0209: real time    0.0105
    CHARGE:  cpu time   33.1817: real time   32.1959
    MIXING:  cpu time    0.1585: real time    0.0879
    --------------------------------------------
      LOOP:  cpu time  431.0946: real time  296.8241

 eigenvalue-minimisations  :  9360
 total energy-change (2. order) :-0.9496804E-04  (-0.7994384E-06)
 number of electron     186.6999986 magnetization       0.9998196
 augmentation part       11.5259218 magnetization       0.1189662

 Broyden mixing:
  rms(total) = 0.17684E-03    rms(broyden)= 0.17682E-03
  rms(prec ) = 0.20636E-03
  weight for this iteration     100.00

 eigenvalues of (default mixing * dielectric matrix)
  average eigenvalue GAMMA=   2.4086
  9.5428  5.3282  3.1606  2.8270  1.8596  1.1918  1.1918  0.9030  0.9030  0.7225
  0.6133  0.6592

 Free energy of the ion-electron system (eV)
  ---------------------------------------------------
  alpha Z        PSCENC =        57.55240194
  Ewald energy   TEWEN  =     64930.29934826
  -Hartree energ DENC   =    -73300.79490544
  -exchange      EXHF   =         0.00000000
  -V(xc)+E(xc)   XCENC  =       895.38256902
  PAW double counting   =     21131.29114823   -21227.60014535
  entropy T*S    EENTRO =        -0.00545971
  eigenvalues    EBANDS =     -2838.47749572
  atomic energy  EATOM  =      9975.55785330
  Solvation  Ediel_sol  =        -8.76083925
  ---------------------------------------------------
  free energy    TOTEN  =      -385.55552472 eV

  energy without entropy =     -385.55006501  energy(sigma->0) =     -385.55279486


--------------------------------------------------------------------------------------------------------




--------------------------------------- Iteration      1(  14)  ---------------------------------------


    POTLOK:  cpu time   37.5175: real time   37.5988
    SETDIJ:  cpu time    0.7259: real time    0.4567
    EDDIAG:  cpu time   55.8059: real time   40.5648
  RMM-DIIS:  cpu time  301.5908: real time  184.5027
    ORTHCH:  cpu time    1.5339: real time    0.7701
       DOS:  cpu time    0.0196: real time    0.0098
    CHARGE:  cpu time   33.0848: real time   32.1600
    MIXING:  cpu time    0.1702: real time    0.0930
    --------------------------------------------
      LOOP:  cpu time  430.4486: real time  296.1560

 eigenvalue-minimisations  :  9336
 total energy-change (2. order) :-0.4345475E-04  (-0.5668700E-06)
 number of electron     186.6999986 magnetization       0.9998141
 augmentation part       11.5259841 magnetization       0.1189613

 Broyden mixing:
  rms(total) = 0.11360E-03    rms(broyden)= 0.11359E-03
  rms(prec ) = 0.13436E-03
  weight for this iteration     100.00

 eigenvalues of (default mixing * dielectric matrix)
  average eigenvalue GAMMA=   2.3380
  9.5906  5.5292  3.3476  2.7697  1.8895  1.2233  1.2233  0.9881  0.9881  0.8437
  0.7333  0.6137  0.6540

 Free energy of the ion-electron system (eV)
  ---------------------------------------------------
  alpha Z        PSCENC =        57.55240194
  Ewald energy   TEWEN  =     64930.29934826
  -Hartree energ DENC   =    -73300.73950798
  -exchange      EXHF   =         0.00000000
  -V(xc)+E(xc)   XCENC  =       895.38190945
  PAW double counting   =     21131.36587321   -21227.67486277
  entropy T*S    EENTRO =        -0.00545993
  eigenvalues    EBANDS =     -2838.49996968
  atomic energy  EATOM  =      9975.55785330
  Solvation  Ediel_sol  =        -8.79315398
  ---------------------------------------------------
  free energy    TOTEN  =      -385.55556817 eV

  energy without entropy =     -385.55010824  energy(sigma->0) =     -385.55283821


--------------------------------------------------------------------------------------------------------




--------------------------------------- Iteration      1(  15)  ---------------------------------------


    POTLOK:  cpu time   36.6454: real time   36.7246
    SETDIJ:  cpu time    0.8517: real time    0.5191
    EDDIAG:  cpu time   55.9624: real time   40.5732
  RMM-DIIS:  cpu time  301.7198: real time  184.6657
    ORTHCH:  cpu time    1.5450: real time    0.7751
       DOS:  cpu time    0.0369: real time    0.0185
    CHARGE:  cpu time   32.9818: real time   32.3338
    MIXING:  cpu time    0.1709: real time    0.0948
    --------------------------------------------
      LOOP:  cpu time  429.9140: real time  295.7048

 eigenvalue-minimisations  :  9336
 total energy-change (2. order) :-0.2482604E-04  (-0.3917302E-06)
 number of electron     186.6999986 magnetization       0.9998074
 augmentation part       11.5259782 magnetization       0.1189550

 Broyden mixing:
  rms(total) = 0.55231E-04    rms(broyden)= 0.55217E-04
  rms(prec ) = 0.74033E-04
  weight for this iteration     100.00

 eigenvalues of (default mixing * dielectric matrix)
  average eigenvalue GAMMA=   2.3699
  9.6455  6.0440  3.8437  2.6565  2.3145  1.5941  1.2179  1.2179  0.9503  0.9503
  0.7920  0.7005  0.6182  0.6326

 Free energy of the ion-electron system (eV)
  ---------------------------------------------------
  alpha Z        PSCENC =        57.55240194
  Ewald energy   TEWEN  =     64930.29934826
  -Hartree energ DENC   =    -73300.72931981
  -exchange      EXHF   =         0.00000000
  -V(xc)+E(xc)   XCENC  =       895.38247909
  PAW double counting   =     21131.34670176   -21227.65561215
  entropy T*S    EENTRO =        -0.00545983
  eigenvalues    EBANDS =     -2838.50144302
  atomic energy  EATOM  =      9975.55785330
  Solvation  Ediel_sol  =        -8.80254253
  ---------------------------------------------------
  free energy    TOTEN  =      -385.55559300 eV

  energy without entropy =     -385.55013316  energy(sigma->0) =     -385.55286308


--------------------------------------------------------------------------------------------------------




--------------------------------------- Iteration      1(  16)  ---------------------------------------


    POTLOK:  cpu time   36.2529: real time   36.3310
    SETDIJ:  cpu time    0.6504: real time    0.4179
    EDDIAG:  cpu time   55.7588: real time   40.5361
  RMM-DIIS:  cpu time  301.5419: real time  184.5935
    ORTHCH:  cpu time    1.5488: real time    0.7771
       DOS:  cpu time    0.0283: real time    0.0142
    CHARGE:  cpu time   33.0416: real time   32.1782
[...]
    4        0.000   0.000   0.000   0.000
    5        0.000   0.000   0.000   0.000
    6        0.000   0.000   0.000   0.000
    7        0.000   0.000   0.000   0.000
    8        0.000   0.000   0.000   0.000
    9        0.000   0.000   0.000   0.000
   10       -0.000   0.000   0.000   0.000
   11        0.000   0.000   0.000   0.000
   12       -0.000   0.000   0.000   0.000
   13        0.000   0.000   0.000   0.000
   14        0.000   0.000   0.000   0.000
   15        0.000   0.000   0.000   0.000
   16        0.000  -0.000   0.000  -0.000
   17       -0.000  -0.000   0.000  -0.000
   18       -0.000  -0.000   0.000  -0.000
   19       -0.000  -0.000   0.000  -0.000
   20       -0.000  -0.000   0.000  -0.000
   21       -0.000  -0.000   0.000  -0.000
   22       -0.000  -0.000   0.000  -0.000
   23       -0.000  -0.000   0.000  -0.000
   24       -0.000  -0.000   0.000  -0.000
   25       -0.000  -0.000   0.000  -0.000
   26        0.000   0.000   0.000   0.000
   27        0.000   0.000   0.000   0.000
   28       -0.000  -0.000   0.000  -0.000
   29       -0.000  -0.000   0.000  -0.000
   30        0.000   0.000   0.000   0.000
   31       -0.000  -0.000   0.000  -0.000
   32       -0.000  -0.000   0.000  -0.000
   33        0.004   0.011   0.000   0.015
   34        0.071   0.377   0.000   0.447
   35       -0.000   0.000   0.000   0.000
   36       -0.000  -0.000   0.000  -0.001
   37        0.001   0.030   0.000   0.031
   38       -0.000  -0.000   0.000  -0.001
   39        0.003   0.077   0.000   0.080
   40        0.003   0.077   0.000   0.080
   41        0.000   0.000   0.000   0.000
   42        0.000  -0.000   0.000  -0.000
--------------------------------------------------
tot          0.082   0.570   0.000   0.651
 
    CHARGE:  cpu time    3.8719: real time    3.5220
    FORLOC:  cpu time    0.3444: real time    0.2628
    FORNL :  cpu time   27.2926: real time   13.7572
    STRESS:  cpu time  638.8587: real time  589.1761
    FORCOR:  cpu time    3.4147: real time    3.4222
    FORHAR:  cpu time    0.3837: real time    0.3846
    MIXING:  cpu time    0.0718: real time    0.0720
    OFIELD:  cpu time    0.0001: real time    0.0001

  FORCE on cell =-STRESS in cart. coord.  units (eV):
  Direction    XX          YY          ZZ          XY          YZ          ZX
  --------------------------------------------------------------------------------------
  Alpha Z    57.55240    57.55240    57.55240
  Ewald   68853.77670 68950.46973-72872.47037   -26.38175   150.74565    43.04510
  Hartree 69471.37078 69874.38822-66043.28431   182.39759    71.77501    67.14417
  E(xc)    -833.44074  -833.27441  -838.15592     0.15121     0.07171     0.14919
  Local  ************************136441.81369  -197.87124  -213.40246  -120.65641
  n-local  -490.88634  -486.83072  -483.44980     2.02042     0.04009     0.95376
  augment   118.68794   122.05011   130.28648     2.78103    -0.40720     0.90259
  Kinetic  3256.74194  3313.43199  3607.40602    38.32361    -9.21065     8.56485
  Fock        0.00000     0.00000     0.00000     0.00000     0.00000     0.00000
  -------------------------------------------------------------------------------------
  Total     -13.78820   -11.60604    -0.30180     1.42087    -0.38786     0.10326
  in kB      -7.19406    -6.05551    -0.15746     0.74135    -0.20237     0.05387
  external pressure =       -4.47 kB  Pullay stress =        0.00 kB


 VOLUME and BASIS-vectors are now :
 -----------------------------------------------------------------------------
  energy-cutoff  :      550.00
  volume of cell :     3070.74
      direct lattice vectors                 reciprocal lattice vectors
     5.024366704 -8.702497373  0.000000000     0.099515029 -0.057454772  0.000000000
     5.024366704  8.702497373  0.000000000     0.099515029  0.057454772  0.000000000
     0.000000000  0.000000000 35.114664386     0.000000000  0.000000000  0.028478131

  length of vectors
    10.048767154 10.048767154 35.114664386     0.114909929  0.114909929  0.028478131


 FORCES acting on ions
    electron-ion (+dipol)            ewald-force                    non-local-force                 convergence-correction
 -----------------------------------------------------------------------------------------------
   0.118E+02 -.387E+01 0.127E+03   -.119E+02 0.391E+01 -.127E+03   0.107E-01 -.635E-02 0.109E-02   0.372E-04 -.564E-04 0.836E-04
   0.112E+02 -.628E+01 0.128E+03   -.113E+02 0.632E+01 -.128E+03   0.152E-01 -.746E-02 0.387E-02   0.174E-03 -.243E-03 -.237E-03
   0.734E+01 -.502E+01 0.130E+03   -.743E+01 0.507E+01 -.130E+03   0.177E-01 -.119E-01 0.238E-02   -.304E-03 0.222E-03 -.254E-03
   0.477E+01 -.510E+01 0.125E+03   -.483E+01 0.514E+01 -.125E+03   0.746E-02 -.767E-02 0.152E-02   0.106E-03 -.103E-04 -.436E-03
   0.112E+02 0.169E+01 0.141E+03   -.112E+02 -.165E+01 -.141E+03   0.311E-02 -.203E-02 0.185E-02   0.817E-03 -.206E-03 0.430E-03
   0.107E+02 -.596E+01 0.155E+03   -.108E+02 0.593E+01 -.155E+03   0.179E-01 -.464E-02 -.264E-02   -.390E-04 -.131E-03 0.876E-03
   0.565E+01 -.631E+01 0.148E+03   -.570E+01 0.633E+01 -.148E+03   0.831E-02 0.357E-02 0.108E-02   0.663E-03 -.833E-03 0.345E-03
   0.319E+01 -.735E+01 0.146E+03   -.318E+01 0.736E+01 -.146E+03   -.489E-02 -.162E-01 -.158E-01   0.513E-03 -.159E-03 0.414E-03
   -.678E+01 0.603E+01 0.137E+03   0.687E+01 -.609E+01 -.136E+03   -.146E-01 0.322E-02 -.131E-02   0.525E-03 -.968E-04 0.791E-03
   -.492E+01 0.122E+02 0.153E+03   0.496E+01 -.122E+02 -.153E+03   -.658E-02 0.184E-01 0.102E-02   -.706E-03 -.439E-03 0.950E-03
   -.131E+02 0.432E-01 0.149E+03   0.132E+02 -.101E+00 -.149E+03   -.196E-01 0.481E-02 0.571E-02   0.368E-03 0.685E-03 0.984E-03
   -.118E+02 0.308E+01 0.143E+03   0.119E+02 -.308E+01 -.143E+03   -.201E-01 0.433E-02 -.378E-02   0.259E-03 -.410E-03 0.705E-03
   -.506E+01 0.263E+01 0.122E+03   0.504E+01 -.261E+01 -.122E+03   -.275E-02 -.167E-02 0.199E-02   -.128E-02 0.448E-03 0.376E-03
   -.378E+01 0.776E+01 0.125E+03   0.377E+01 -.776E+01 -.125E+03   0.103E-02 0.353E-02 0.109E-02   -.834E-03 -.629E-05 0.324E-03
   -.111E+02 0.486E+01 0.131E+03   0.111E+02 -.490E+01 -.131E+03   -.331E-02 0.222E-02 0.184E-02   -.258E-03 0.221E-03 0.354E-03
   -.953E+01 0.170E+01 0.125E+03   0.956E+01 -.166E+01 -.124E+03   -.711E-02 -.485E-03 0.559E-03   -.425E-03 0.824E-03 0.325E-03
   0.123E+02 -.555E+01 0.205E+03   -.124E+02 0.560E+01 -.205E+03   0.535E-02 0.122E-03 -.125E-01   -.269E-03 -.452E-03 -.962E-03
   0.957E+01 -.199E+01 0.207E+03   -.966E+01 0.204E+01 -.207E+03   0.398E-02 -.628E-02 -.175E-01   0.181E-03 0.101E-02 -.111E-02
   0.401E+00 -.439E+01 0.209E+03   -.477E+00 0.439E+01 -.209E+03   -.439E-02 -.822E-02 -.429E-02   0.240E-04 -.803E-03 -.699E-03
   0.436E+01 -.347E+01 0.203E+03   -.440E+01 0.353E+01 -.202E+03   -.265E-02 -.440E-02 -.127E-01   0.429E-04 0.994E-03 -.136E-02
   0.279E+02 -.392E+01 0.239E+03   -.279E+02 0.396E+01 -.239E+03   0.277E-01 -.119E-02 0.306E-01   0.362E-02 -.942E-04 0.330E-02
   0.193E+02 -.162E+02 0.239E+03   -.195E+02 0.163E+02 -.239E+03   0.269E-01 -.154E-01 -.738E-02   0.231E-02 -.286E-02 0.113E-02
   0.141E+02 -.126E+02 0.238E+03   -.143E+02 0.127E+02 -.238E+03   0.285E-01 -.205E-01 0.325E-01   0.166E-02 -.832E-03 0.235E-02
   0.131E+02 -.999E+01 0.224E+03   -.132E+02 0.101E+02 -.224E+03   0.920E-02 -.342E-01 0.176E-01   0.198E-02 -.578E-03 -.785E-04
   0.318E+01 0.159E+02 0.240E+03   -.305E+01 -.160E+02 -.240E+03   0.117E-01 0.540E-02 -.312E-01   0.713E-03 -.178E-03 0.117E-02
   -.645E+01 0.191E+01 0.266E+03   0.643E+01 -.208E+01 -.265E+03   -.413E-02 0.811E-02 -.205E-01   -.197E-02 0.530E-04 0.594E-02
   -.120E+02 -.136E+01 0.246E+03   0.122E+02 0.135E+01 -.246E+03   -.172E-01 -.333E-02 -.255E-01   0.189E-02 0.126E-02 0.104E-02
   -.119E+02 -.112E+01 0.242E+03   0.121E+02 0.998E+00 -.242E+03   -.324E-01 0.194E-02 0.823E-01   0.139E-02 -.213E-02 0.342E-02
   -.117E+02 0.118E+02 0.210E+03   0.118E+02 -.118E+02 -.210E+03   -.602E-02 0.412E-02 0.846E-02   -.267E-02 0.133E-02 0.215E-02
   -.168E+02 0.196E+02 0.228E+03   0.168E+02 -.196E+02 -.228E+03   -.182E-01 0.882E-02 0.584E-02   -.231E-02 0.746E-03 0.204E-02
   -.257E+02 0.507E+01 0.224E+03   0.258E+02 -.513E+01 -.224E+03   -.258E-01 0.105E-01 0.163E-01   -.972E-03 0.170E-02 0.241E-02
   -.196E+02 0.641E+01 0.213E+03   0.197E+02 -.635E+01 -.213E+03   -.201E-01 0.261E-02 -.367E-02   -.273E-02 0.216E-02 0.165E-02
   -.326E+01 0.510E+01 -.398E+03   0.869E+00 -.760E+01 0.391E+03   0.239E+01 0.228E+01 0.818E+01   0.819E-03 0.124E-03 0.193E-02
   -.591E+02 -.894E+02 -.257E+03   0.675E+02 0.101E+03 0.260E+03   -.851E+01 -.116E+02 -.168E+01   0.911E-03 0.236E-03 0.610E-03
   -.136E+02 -.444E+02 -.359E+03   0.134E+02 0.444E+02 0.359E+03   -.204E-01 -.370E-01 -.948E-01   0.598E-02 -.193E-02 -.119E-02
   -.512E+03 0.254E+02 -.839E+03   0.571E+03 -.279E+02 0.850E+03   -.576E+02 0.196E+01 -.839E+01   -.295E-02 -.693E-04 -.145E-02
   0.193E+03 0.325E+03 -.111E+04   -.217E+03 -.363E+03 0.114E+04   0.232E+02 0.371E+02 -.352E+02   0.265E-02 0.736E-02 -.754E-02
   0.167E+03 -.425E+03 -.921E+03   -.187E+03 0.478E+03 0.939E+03   0.191E+02 -.527E+02 -.155E+02   0.900E-03 -.211E-02 -.252E-02
   -.174E+03 0.352E+03 -.384E+03   0.197E+03 -.404E+03 0.363E+03   -.223E+02 0.501E+02 0.216E+02   0.725E-02 -.137E-01 -.632E-02
   0.425E+03 -.630E+02 -.442E+03   -.483E+03 0.701E+02 0.429E+03   0.568E+02 -.686E+01 0.143E+02   -.813E-02 0.759E-03 -.471E-02
   -.281E+03 0.637E+02 -.497E+03   0.345E+03 -.903E+02 0.489E+03   -.608E+02 0.253E+02 0.892E+01   -.404E-02 0.172E-02 -.253E-02
   0.244E+03 -.172E+03 -.579E+03   -.308E+03 0.199E+03 0.590E+03   0.608E+02 -.252E+02 -.855E+01   0.166E-02 0.202E-02 -.691E-03
 -----------------------------------------------------------------------------------------------
   -.131E+02 -.204E+02 0.163E+02   -.171E-12 -.568E-13 0.193E-11   0.131E+02 0.203E+02 -.164E+02   0.754E-02 -.444E-02 0.400E-02
 
 
 POSITION                                       TOTAL-FORCE (eV/Angst)
 -----------------------------------------------------------------------------------
      1.25607     -0.72308     17.63191         0.006085     -0.001730      0.002419
      2.51210      1.45257     17.63317         0.004038     -0.001388     -0.000143
      3.76823      3.62826     17.63237         0.005899     -0.004152      0.000353
      5.02444      5.80384     17.63137         0.003717     -0.000386     -0.001427
      2.51244     -2.89874     17.63075         0.003495      0.001235      0.002398
      3.76803     -0.72307     17.63196         0.006391     -0.004184     -0.000477
      5.02443      1.45226     17.63087         0.003669      0.002469      0.002683
      6.28090      3.62861     17.62499         0.004344     -0.005918      0.000469
      3.76888     -5.07451     17.63049        -0.008236     -0.000917      0.001007
      5.02477     -2.89934     17.63362        -0.001949      0.006833      0.001180
      6.28117     -0.72331     17.63439        -0.007779      0.000061      0.003282
      7.53730      1.45238     17.62988        -0.003196      0.007218     -0.001776
      5.02463     -7.25004     17.63213        -0.000242      0.001152      0.001182
      6.28069     -5.07458     17.63293        -0.000413      0.002828      0.004086
      7.53687     -2.89895     17.63328        -0.002725      0.000843      0.003767
      8.79298     -0.72317     17.63263        -0.001134      0.001118      0.002679
      1.25636      0.72723     17.63281        -0.002232      0.001595     -0.001640
      2.51256      2.90288     17.63342        -0.003565     -0.001451     -0.001057
      3.76860      5.07838     17.63256        -0.001670      0.003009     -0.000491
      5.02459      7.25415     17.63232        -0.001827     -0.000890     -0.001908
      2.51257     -1.44837     17.63106        -0.009453      0.000658      0.005298
      3.76862      0.72712     17.63320        -0.006545      0.005285      0.000197
      5.02503      2.90281     17.63026        -0.006746      0.002158      0.004717
      6.28082      5.07857     17.62884        -0.005205      0.004158     -0.001166
      3.76860     -3.62394     17.63329        -0.000983     -0.002431     -0.001712
      5.02442     -1.44833     17.63653         0.003470     -0.000240      0.007680
      6.28078      0.72740     17.63423         0.000128     -0.004394     -0.002189
      7.53667      2.90295     17.62627         0.001327      0.002054      0.002759
      5.02454     -5.79958     17.63167         0.005242     -0.003614      0.003591
      6.28062     -3.62395     17.63337         0.004332     -0.005337      0.003370
      7.53668     -1.44841     17.63343         0.006235     -0.001874      0.004510
      8.79278      0.72736     17.63173         0.005957     -0.005777      0.001300
      5.08322     -1.02039     22.94362        -0.000209      0.002885     -0.014775
      4.74932     -1.29763     21.49957        -0.001094     -0.014216     -0.013111
      6.32769      2.74576     21.29304        -0.013077      0.007440      0.009334
      6.41078     -1.06999     23.12579         0.000666     -0.001118     -0.003288
      4.51947     -1.92031     23.78254        -0.005692      0.002800     -0.004023
      4.63686      0.19616     23.29016        -0.002257      0.006233     -0.008446
      5.24269     -2.43886     21.03627         0.000197      0.001568     -0.000100
      3.46406     -1.15780     21.20204         0.005984     -0.002468     -0.007062
      7.39143      2.30086     21.13604         0.013332     -0.006633     -0.005998
      5.26119      3.18725     21.44148         0.001722      0.005519      0.002530
 -----------------------------------------------------------------------------------
    total drift:                               -0.032823     -0.148796     -0.076196


--------------------------------------------------------------------------------------------------------



  FREE ENERGIE OF THE ION-ELECTRON SYSTEM (eV)
  ---------------------------------------------------
  free  energy   TOTEN  =      -385.55573023 eV

  energy  without entropy=     -385.55027048  energy(sigma->0) =     -385.55300035
 
 d Force = 0.4279962E-05[-0.109E-05, 0.965E-05]  d Energy = 0.1456248E-04-0.103E-04
 d Force = 0.3815287E+00[ 0.382E+00, 0.382E+00]  d Ewald  = 0.3815287E+00-0.364E-10


--------------------------------------------------------------------------------------------------------


    POTLOK:  cpu time   36.4226: real time   36.2300


--------------------------------------------------------------------------------------------------------




--------------------------------------------------------------------------------------------------------


  
 reached required accuracy - stopping structural energy minimisation
 writing wavefunctions
     LOOP+:  cpu time 1647.3495: real time 1261.9302
    4ORBIT:  cpu time    0.0000: real time    0.0000
 


 total charge     
 
# of ion       s       p       d       tot
------------------------------------------
    1        0.744   1.392   0.000   2.136
    2        0.744   1.392   0.000   2.136
    3        0.744   1.392   0.000   2.136
    4        0.744   1.392   0.000   2.136
    5        0.744   1.393   0.000   2.136
    6        0.744   1.394   0.000   2.138
    7        0.744   1.393   0.000   2.137
    8        0.744   1.394   0.000   2.138
    9        0.744   1.392   0.000   2.136
   10        0.744   1.393   0.000   2.137
   11        0.744   1.393   0.000   2.136
   12        0.744   1.393   0.000   2.137
   13        0.744   1.392   0.000   2.136
   14        0.744   1.392   0.000   2.136
   15        0.744   1.392   0.000   2.136
   16        0.744   1.392   0.000   2.136
   17        1.239   2.819   0.000   4.058
   18        1.239   2.819   0.000   4.058
   19        1.239   2.819   0.000   4.058
   20        1.239   2.819   0.000   4.058
   21        1.239   2.819   0.000   4.058
   22        1.239   2.819   0.000   4.058
   23        1.239   2.818   0.000   4.057
   24        1.239   2.819   0.000   4.058
   25        1.239   2.819   0.000   4.058
   26        1.239   2.818   0.000   4.057
   27        1.239   2.819   0.000   4.057
   28        1.239   2.819   0.000   4.058
   29        1.239   2.819   0.000   4.058
   30        1.239   2.819   0.000   4.058
   31        1.239   2.819   0.000   4.058
   32        1.239   2.819   0.000   4.058
   33        0.814   1.560   0.000   2.374
   34        0.836   1.565   0.000   2.401
   35        0.945   1.794   0.000   2.738
   36        1.758   4.413   0.000   6.171
   37        1.758   4.405   0.000   6.163
   38        1.758   4.413   0.000   6.171
   39        1.757   4.399   0.000   6.155
   40        1.757   4.399   0.000   6.156
   41        1.609   3.594   0.000   5.203
   42        1.608   3.595   0.000   5.203
--------------------------------------------------
tot         46.321 101.524   0.000 147.845
 


 magnetization (x)
 
# of ion       s       p       d       tot
------------------------------------------
    1        0.000   0.000   0.000   0.000
    2        0.000   0.000   0.000   0.000
    3        0.000   0.000   0.000   0.000
    4        0.000   0.000   0.000   0.000
    5        0.000   0.000   0.000   0.000
    6        0.000   0.000   0.000   0.000
    7        0.000   0.000   0.000   0.000
    8        0.000   0.000   0.000   0.000
    9        0.000   0.000   0.000   0.000
   10       -0.000   0.000   0.000   0.000
   11        0.000   0.000   0.000   0.000
   12       -0.000   0.000   0.000   0.000
   13        0.000   0.000   0.000   0.000
   14        0.000   0.000   0.000   0.000
   15        0.000   0.000   0.000   0.000
   16        0.000  -0.000   0.000  -0.000
   17       -0.000  -0.000   0.000  -0.000
   18       -0.000  -0.000   0.000  -0.000
   19       -0.000  -0.000   0.000  -0.000
   20       -0.000  -0.000   0.000  -0.000
   21       -0.000  -0.000   0.000  -0.000
   22       -0.000  -0.000   0.000  -0.000
   23       -0.000  -0.000   0.000  -0.000
   24       -0.000  -0.000   0.000  -0.000
   25       -0.000  -0.000   0.000  -0.000
   26        0.000   0.000   0.000   0.000
   27        0.000   0.000   0.000   0.000
   28       -0.000  -0.000   0.000  -0.000
   29       -0.000  -0.000   0.000  -0.000
   30        0.000   0.000   0.000   0.000
   31       -0.000  -0.000   0.000  -0.000
   32       -0.000  -0.000   0.000  -0.000
   33        0.004   0.011   0.000   0.015
   34        0.071   0.377   0.000   0.447
   35       -0.000   0.000   0.000   0.000
   36       -0.000  -0.000   0.000  -0.001
   37        0.001   0.030   0.000   0.031
   38       -0.000  -0.000   0.000  -0.001
   39        0.003   0.077   0.000   0.080
   40        0.003   0.077   0.000   0.080
   41        0.000   0.000   0.000   0.000
   42        0.000  -0.000   0.000  -0.000
--------------------------------------------------
tot          0.082   0.570   0.000   0.651
 

 total amount of memory used by VASP MPI-rank0  1323170. kBytes
=======================================================================

   base      :      30000. kBytes
   nonlr-proj:      18684. kBytes
   fftplans  :      47149. kBytes
   grid      :     394654. kBytes
   one-center:        258. kBytes
   wavefun   :     832425. kBytes
 
  
  
 General timing and accounting informations for this job:
 ========================================================
  
                  Total CPU time used (sec):    19826.297
                            User time (sec):    19238.029
                          System time (sec):      588.268
                         Elapsed time (sec):    14400.874
  
                   Maximum memory used (kb):     2538796.
                   Average memory used (kb):           0.
  
                          Minor page faults:     27299452
                          Major page faults:           14
                 Voluntary context switches:       129132
