 vasp.5.4.4.18Apr17-6-g9f103f2a35 (build May 01 2020 14:57:12) complex          
  
 executed on             LinuxIFC date 2020.10.11  15:51:45
 running on   72 total cores
 distrk:  each k-point on   24 cores,    3 groups
 distr:  one band on NCORES_PER_BAND=   1 cores,   24 groups


--------------------------------------------------------------------------------------------------------


 INCAR:
 POTCAR:    PAW_PBE B 06Sep2000                   
 POTCAR:    PAW_PBE N 08Apr2002                   
 POTCAR:    PAW_PBE C 08Apr2002                   
 POTCAR:    PAW_PBE F 08Apr2002                   
 POTCAR:    PAW_PBE O 08Apr2002                   

 ----------------------------------------------------------------------------- 
|                                                                             |
|           W    W    AA    RRRRR   N    N  II  N    N   GGGG   !!!           |
|           W    W   A  A   R    R  NN   N  II  NN   N  G    G  !!!           |
|           W    W  A    A  R    R  N N  N  II  N N  N  G       !!!           |
|           W WW W  AAAAAA  RRRRR   N  N N  II  N  N N  G  GGG   !            |
|           WW  WW  A    A  R   R   N   NN  II  N   NN  G    G                |
|           W    W  A    A  R    R  N    N  II  N    N   GGGG   !!!           |
|                                                                             |
|      For optimal performance we recommend to set                            |
|        NCORE= 4 - approx SQRT( number of cores)                             |
|      NCORE specifies how many cores store one orbital (NPAR=cpu/NCORE).     |
|      This setting can  greatly improve the performance of VASP for DFT.     |
|      The default,   NCORE=1            might be grossly inefficient         |
|      on modern multi-core architectures or massively parallel machines.     |
|      Do your own testing !!!!                                               |
|      Unfortunately you need to use the default for GW and RPA calculations. |
|      (for HF NCORE is supported but not extensively tested yet)             |
|                                                                             |
 ----------------------------------------------------------------------------- 


 ----------------------------------------------------------------------------- 
|                                                                             |
|           W    W    AA    RRRRR   N    N  II  N    N   GGGG   !!!           |
|           W    W   A  A   R    R  NN   N  II  NN   N  G    G  !!!           |
|           W    W  A    A  R    R  N N  N  II  N N  N  G       !!!           |
|           W WW W  AAAAAA  RRRRR   N  N N  II  N  N N  G  GGG   !            |
|           WW  WW  A    A  R   R   N   NN  II  N   NN  G    G                |
|           W    W  A    A  R    R  N    N  II  N    N   GGGG   !!!           |
|                                                                             |
|      You have enabled k-point parallelism (KPAR>1).                         |
|      This developmental code was originally  written by Paul Kent at ORNL,  |
|      and carefully double checked in Vienna.                                |
|      GW as well as linear response parallelism added by Martijn Marsman     |
|      and Georg Kresse.                                                      |
|      Carefully verify results versus KPAR=1.                                |
|      Report problems to Paul Kent and Vienna.                               |
|                                                                             |
 ----------------------------------------------------------------------------- 

 POTCAR:    PAW_PBE B 06Sep2000                   
   VRHFIN =B: s2p1                                                              
   LEXCH  = PE                                                                  
   EATOM  =    71.1703 eV,    5.2309 Ry                                         
                                                                                
   TITEL  = PAW_PBE B 06Sep2000                                                 
   LULTRA =        F    use ultrasoft PP ?                                      
   IUNSCR =        1    unscreen: 0-lin 1-nonlin 2-no                           
   RPACOR =    1.200    partial core radius                                     
   POMASS =   10.811; ZVAL   =    3.000    mass and valenz                      
   RCORE  =    1.700    outmost cutoff radius                                   
   RWIGS  =    1.710; RWIGS  =    0.905    wigner-seitz radius (au A)           
   ENMAX  =  318.614; ENMIN  =  238.960 eV                                      
   ICORE  =        2    local potential                                         
   LCOR   =        T    correct aug charges                                     
   LPAW   =        T    paw PP                                                  
   EAUG   =  535.514                                                            
   DEXC   =    0.000                                                            
   RMAX   =    1.732    core radius for proj-oper                               
   RAUG   =    1.300    factor for augmentation sphere                          
   RDEP   =    1.757    radius for radial grids                                 
   RDEPT  =    1.436    core radius for aug-charge                              
                                                                                
   Atomic configuration                                                         
    4 entries                                                                   
     n  l   j            E        occ.                                          
     1  0  0.50      -180.5896   2.0000                                         
     2  0  0.50        -9.4431   2.0000                                         
     2  1  0.50        -3.6068   1.0000                                         
     3  2  1.50        -4.0817   0.0000                                         
   Description                                                                  
     l       E           TYP  RCUT    TYP  RCUT                                 
     0     -9.4430752     23  1.500                                             
     0      0.8675899     23  1.500                                             
     1     -3.6067955     23  1.700                                             
     1      6.1086146     23  1.700                                             
     2     -4.0817478      7  1.700                                             
  local pseudopotential read in
  partial core-charges read in
  partial kinetic energy density read in
  atomic valenz-charges read in
  non local Contribution for L=           0  read in
    real space projection operators read in
  non local Contribution for L=           0  read in
    real space projection operators read in
  non local Contribution for L=           1  read in
    real space projection operators read in
  non local Contribution for L=           1  read in
    real space projection operators read in
    PAW grid and wavefunctions read in
 
   number of l-projection  operators is LMAX  =           4
   number of lm-projection operators is LMMAX =           8
 
 POTCAR:    PAW_PBE N 08Apr2002                   
   VRHFIN =N: s2p3                                                              
   LEXCH  = PE                                                                  
   EATOM  =   264.5486 eV,   19.4438 Ry                                         
                                                                                
   TITEL  = PAW_PBE N 08Apr2002                                                 
   LULTRA =        F    use ultrasoft PP ?                                      
   IUNSCR =        1    unscreen: 0-lin 1-nonlin 2-no                           
   RPACOR =    1.200    partial core radius                                     
   POMASS =   14.001; ZVAL   =    5.000    mass and valenz                      
   RCORE  =    1.500    outmost cutoff radius                                   
   RWIGS  =    1.400; RWIGS  =    0.741    wigner-seitz radius (au A)           
   ENMAX  =  400.000; ENMIN  =  300.000 eV                                      
   ICORE  =        2    local potential                                         
   LCOR   =        T    correct aug charges                                     
   LPAW   =        T    paw PP                                                  
   EAUG   =  627.112                                                            
   DEXC   =    0.000                                                            
   RMAX   =    1.529    core radius for proj-oper                               
   RAUG   =    1.300    factor for augmentation sphere                          
   RDEP   =    1.514    radius for radial grids                                 
   RDEPT  =    1.338    core radius for aug-charge                              
                                                                                
   Atomic configuration                                                         
    4 entries                                                                   
     n  l   j            E        occ.                                          
     1  0  0.50      -384.7179   2.0000                                         
     2  0  0.50       -18.5828   2.0000                                         
     2  1  0.50        -7.0898   3.0000                                         
     3  2  1.50        -6.8029   0.0000                                         
   Description                                                                  
     l       E           TYP  RCUT    TYP  RCUT                                 
     0    -18.5828119     23  1.200                                             
     0    -13.5018863     23  1.200                                             
     1     -7.0897853     23  1.500                                             
     1      9.5240782     23  1.500                                             
     2     -6.8029130      7  1.500                                             
  local pseudopotential read in
  partial core-charges read in
  partial kinetic energy density read in
  atomic valenz-charges read in
  non local Contribution for L=           0  read in
    real space projection operators read in
  non local Contribution for L=           0  read in
    real space projection operators read in
  non local Contribution for L=           1  read in
    real space projection operators read in
  non local Contribution for L=           1  read in
    real space projection operators read in
    PAW grid and wavefunctions read in
 
   number of l-projection  operators is LMAX  =           4
   number of lm-projection operators is LMMAX =           8
 
 POTCAR:    PAW_PBE C 08Apr2002                   
   VRHFIN =C: s2p2                                                              
   LEXCH  = PE                                                                  
   EATOM  =   147.1560 eV,   10.8157 Ry                                         
                                                                                
   TITEL  = PAW_PBE C 08Apr2002                                                 
   LULTRA =        F    use ultrasoft PP ?                                      
   IUNSCR =        1    unscreen: 0-lin 1-nonlin 2-no                           
   RPACOR =    1.200    partial core radius                                     
   POMASS =   12.011; ZVAL   =    4.000    mass and valenz                      
   RCORE  =    1.500    outmost cutoff radius                                   
   RWIGS  =    1.630; RWIGS  =    0.863    wigner-seitz radius (au A)           
   ENMAX  =  400.000; ENMIN  =  300.000 eV                                      
   ICORE  =        2    local potential                                         
   LCOR   =        T    correct aug charges                                     
   LPAW   =        T    paw PP                                                  
   EAUG   =  644.873                                                            
   DEXC   =    0.000                                                            
   RMAX   =    1.529    core radius for proj-oper                               
   RAUG   =    1.300    factor for augmentation sphere                          
   RDEP   =    1.501    radius for radial grids                                 
   RDEPT  =    1.300    core radius for aug-charge                              
                                                                                
   Atomic configuration                                                         
    4 entries                                                                   
     n  l   j            E        occ.                                          
     1  0  0.50      -273.3789   2.0000                                         
     2  0  0.50       -13.7508   2.0000                                         
     2  1  0.50        -5.2854   2.0000                                         
     3  2  1.50        -5.4423   0.0000                                         
   Description                                                                  
     l       E           TYP  RCUT    TYP  RCUT                                 
     0    -13.7508458     23  1.200                                             
     0     -8.2022199     23  1.200                                             
     1     -5.2854383     23  1.500                                             
     1     34.0145650     23  1.500                                             
     2     -5.4423304      7  1.500                                             
  local pseudopotential read in
  partial core-charges read in
  partial kinetic energy density read in
  atomic valenz-charges read in
  non local Contribution for L=           0  read in
    real space projection operators read in
  non local Contribution for L=           0  read in
    real space projection operators read in
  non local Contribution for L=           1  read in
    real space projection operators read in
  non local Contribution for L=           1  read in
    real space projection operators read in
    PAW grid and wavefunctions read in
 
   number of l-projection  operators is LMAX  =           4
   number of lm-projection operators is LMMAX =           8
 
 POTCAR:    PAW_PBE F 08Apr2002                   
   VRHFIN =F: s2p5                                                              
   LEXCH  = PE                                                                  
   EATOM  =   659.6475 eV,   48.4827 Ry                                         
                                                                                
   TITEL  = PAW_PBE F 08Apr2002                                                 
   LULTRA =        F    use ultrasoft PP ?                                      
   IUNSCR =        1    unscreen: 0-lin 1-nonlin 2-no                           
   RPACOR =    1.200    partial core radius                                     
   POMASS =   18.998; ZVAL   =    7.000    mass and valenz                      
   RCORE  =    1.520    outmost cutoff radius                                   
   RWIGS  =    1.500; RWIGS  =    0.794    wigner-seitz radius (au A)           
   ENMAX  =  400.000; ENMIN  =  300.000 eV                                      
   ICORE  =        2    local potential                                         
   LCOR   =        T    correct aug charges                                     
   LPAW   =        T    paw PP                                                  
   EAUG   =  613.614                                                            
   RMAX   =    1.555    core radius for proj-oper                               
   RAUG   =    1.300    factor for augmentation sphere                          
   RDEP   =    1.539    radius for radial grids                                 
   RDEPT  =    1.299    core radius for aug-charge                              
                                                                                
   Atomic configuration                                                         
    4 entries                                                                   
     n  l   j            E        occ.                                          
     1  0  0.50      -663.3661   2.0000                                         
     2  0  0.50       -29.8995   2.0000                                         
     2  1  0.50       -11.1114   5.0000                                         
     3  2  1.50       -10.8847   0.0000                                         
   Description                                                                  
     l       E           TYP  RCUT    TYP  RCUT                                 
     0    -29.8995018     23  1.200                                             
     0     -9.5240782     23  1.200                                             
     1    -11.1113914     23  1.520                                             
     1      1.3605826     23  1.520                                             
     2    -10.8846608      7  1.500                                             
  local pseudopotential read in
  partial core-charges read in
  partial kinetic energy density read in
  atomic valenz-charges read in
  non local Contribution for L=           0  read in
    real space projection operators read in
  non local Contribution for L=           0  read in
    real space projection operators read in
  non local Contribution for L=           1  read in
    real space projection operators read in
  non local Contribution for L=           1  read in
    real space projection operators read in
    PAW grid and wavefunctions read in
 
   number of l-projection  operators is LMAX  =           4
   number of lm-projection operators is LMMAX =           8
 
 POTCAR:    PAW_PBE O 08Apr2002                   
   VRHFIN =O: s2p4                                                              
   LEXCH  = PE                                                                  
   EATOM  =   432.3788 eV,   31.7789 Ry                                         
                                                                                
   TITEL  = PAW_PBE O 08Apr2002                                                 
   LULTRA =        F    use ultrasoft PP ?                                      
   IUNSCR =        1    unscreen: 0-lin 1-nonlin 2-no                           
   RPACOR =    1.200    partial core radius                                     
   POMASS =   16.000; ZVAL   =    6.000    mass and valenz                      
   RCORE  =    1.520    outmost cutoff radius                                   
   RWIGS  =    1.550; RWIGS  =    0.820    wigner-seitz radius (au A)           
   ENMAX  =  400.000; ENMIN  =  300.000 eV                                      
   ICORE  =        2    local potential                                         
   LCOR   =        T    correct aug charges                                     
   LPAW   =        T    paw PP                                                  
   EAUG   =  605.392                                                            
   DEXC   =    0.000                                                            
   RMAX   =    1.553    core radius for proj-oper                               
   RAUG   =    1.300    factor for augmentation sphere                          
   RDEP   =    1.550    radius for radial grids                                 
   RDEPT  =    1.329    core radius for aug-charge                              
                                                                                
   Atomic configuration                                                         
    4 entries                                                                   
     n  l   j            E        occ.                                          
     1  0  0.50      -514.6923   2.0000                                         
     2  0  0.50       -23.9615   2.0000                                         
     2  1  0.50        -9.0305   4.0000                                         
     3  2  1.50        -9.5241   0.0000                                         
   Description                                                                  
     l       E           TYP  RCUT    TYP  RCUT                                 
     0    -23.9615318     23  1.200                                             
     0     -9.5240782     23  1.200                                             
     1     -9.0304911     23  1.520                                             
     1      8.1634956     23  1.520                                             
     2     -9.5240782      7  1.500                                             
  local pseudopotential read in
  partial core-charges read in
  partial kinetic energy density read in
  kinetic energy density of atom read in
  atomic valenz-charges read in
  non local Contribution for L=           0  read in
    real space projection operators read in
  non local Contribution for L=           0  read in
    real space projection operators read in
  non local Contribution for L=           1  read in
    real space projection operators read in
  non local Contribution for L=           1  read in
    real space projection operators read in
    PAW grid and wavefunctions read in
 
   number of l-projection  operators is LMAX  =           4
   number of lm-projection operators is LMMAX =           8
 
 Optimization of the real space projectors (new method)

 maximal supplied QI-value         = 22.11
 optimisation between [QCUT,QGAM] = [ 11.94, 23.88] = [ 39.92,159.67] Ry 
 Optimized for a Real-space Cutoff    1.18 Angstroem

   l    n(q)    QCUT    max X(q) W(low)/X(q) W(high)/X(q)  e(spline) 
   0      8    11.939    53.033    0.11E-03    0.34E-03    0.60E-07
   0      8    11.939    34.740    0.11E-03    0.34E-03    0.59E-07
   1      8    11.939    30.949    0.22E-03    0.20E-03    0.17E-06
   1      8    11.939    19.518    0.20E-03    0.18E-03    0.16E-06
 Optimization of the real space projectors (new method)

 maximal supplied QI-value         = 25.13
 optimisation between [QCUT,QGAM] = [ 11.81, 23.88] = [ 39.08,159.64] Ry 
 Optimized for a Real-space Cutoff    1.41 Angstroem

   l    n(q)    QCUT    max X(q) W(low)/X(q) W(high)/X(q)  e(spline) 
   0     10    11.813    79.467    0.48E-04    0.30E-04    0.67E-06
   0     10    11.813    66.151    0.47E-04    0.30E-04    0.67E-06
   1     10    11.813    20.169    0.11E-03    0.17E-03    0.11E-05
   1     10    11.813    14.454    0.11E-03    0.17E-03    0.11E-05
 Optimization of the real space projectors (new method)

 maximal supplied QI-value         = 25.13
 optimisation between [QCUT,QGAM] = [ 11.81, 23.88] = [ 39.08,159.64] Ry 
 Optimized for a Real-space Cutoff    1.18 Angstroem

   l    n(q)    QCUT    max X(q) W(low)/X(q) W(high)/X(q)  e(spline) 
   0      8    11.813   115.676    0.10E-03    0.16E-03    0.35E-06
   0      8    11.813    87.132    0.10E-03    0.16E-03    0.35E-06
   1      8    11.813     4.429    0.16E-03    0.13E-04    0.22E-06
   1      8    11.813     2.733    0.13E-03    0.10E-04    0.18E-06
 Optimization of the real space projectors (new method)

 maximal supplied QI-value         = 24.76
 optimisation between [QCUT,QGAM] = [ 11.88, 24.01] = [ 39.54,161.47] Ry 
 Optimized for a Real-space Cutoff    1.18 Angstroem

   l    n(q)    QCUT    max X(q) W(low)/X(q) W(high)/X(q)  e(spline) 
   0      8    11.883    14.049    0.56E-04    0.86E-04    0.22E-06
   0      8    11.883     8.945    0.81E-04    0.11E-03    0.30E-06
   1      8    11.883     7.086    0.16E-03    0.15E-04    0.31E-06
   1      8    11.883     6.747    0.15E-03    0.14E-04    0.28E-06
 Optimization of the real space projectors (new method)

 maximal supplied QI-value         = 24.76
 optimisation between [QCUT,QGAM] = [ 11.88, 24.01] = [ 39.54,161.47] Ry 
 Optimized for a Real-space Cutoff    1.18 Angstroem

   l    n(q)    QCUT    max X(q) W(low)/X(q) W(high)/X(q)  e(spline) 
   0      8    11.883    20.381    0.86E-04    0.11E-03    0.31E-06
   0      8    11.883    15.268    0.94E-04    0.12E-03    0.33E-06
   1      8    11.883     5.964    0.19E-03    0.18E-04    0.33E-06
   1      8    11.883     5.382    0.17E-03    0.20E-04    0.29E-06
  PAW_PBE B 06Sep2000                   :
 energy of atom  1       EATOM=  -71.1703
 kinetic energy error for atom=    0.0009 (will be added to EATOM!!)
  PAW_PBE N 08Apr2002                   :
 energy of atom  2       EATOM= -264.5486
 kinetic energy error for atom=    0.0116 (will be added to EATOM!!)
  PAW_PBE C 08Apr2002                   :
 energy of atom  3       EATOM= -147.1560
 kinetic energy error for atom=    0.0066 (will be added to EATOM!!)
  PAW_PBE F 08Apr2002                   :
 energy of atom  4       EATOM= -659.6475
 kinetic energy error for atom=    0.0296 (will be added to EATOM!!)
  PAW_PBE O 08Apr2002                   :
 energy of atom  5       EATOM= -432.3788
 kinetic energy error for atom=    0.0194 (will be added to EATOM!!)
 
 
 POSCAR: B N C F O                               
  positions in direct lattice
  velocities in cartesian coordinates

 METAGGA = SCAN     LMAXTAU =  6    LMIXTAU =  F

 exchange correlation table for  LEXCH =        8
   RHO(1)=    0.500       N(1)  =     2000
   RHO(2)=  100.500       N(2)  =     4000
 


--------------------------------------------------------------------------------------------------------


 ion  position               nearest neighbor table
   1  0.083  0.042  0.502-  65 1.45  72 1.45  73 1.45
   2  0.083  0.167  0.502-  65 1.45  66 1.45  74 1.45
   3  0.083  0.292  0.502-  67 1.45  66 1.45  75 1.45
   4  0.083  0.417  0.502-  68 1.45  67 1.45  76 1.45
   5  0.083  0.542  0.502-  68 1.45  77 1.45  69 1.45
   6  0.083  0.667  0.502-  69 1.45  78 1.45  70 1.45
   7  0.083  0.792  0.502-  71 1.45  79 1.45  70 1.45
   8  0.083  0.917  0.502-  72 1.45  80 1.45  71 1.45
   9  0.208  0.042  0.502-  80 1.45  81 1.45  73 1.45
  10  0.208  0.167  0.502-  73 1.45  74 1.45  82 1.45
  11  0.208  0.292  0.502-  74 1.45  75 1.45  83 1.45
  12  0.208  0.417  0.502-  76 1.45  84 1.45  75 1.45
  13  0.208  0.542  0.502-  77 1.45  85 1.45  76 1.45
  14  0.208  0.667  0.502-  77 1.45  86 1.45  78 1.45
  15  0.208  0.792  0.502-  87 1.45  78 1.45  79 1.45
  16  0.208  0.917  0.502-  80 1.45  88 1.45  79 1.45
  17  0.333  0.042  0.502-  88 1.45  89 1.45  81 1.45
  18  0.333  0.167  0.502-  90 1.45  81 1.45  82 1.45
  19  0.333  0.292  0.502-  91 1.45  82 1.45  83 1.45
  20  0.333  0.417  0.502-  92 1.45  84 1.45  83 1.45
  21  0.333  0.542  0.502-  93 1.45  85 1.45  84 1.45
  22  0.333  0.667  0.502-  86 1.45  94 1.45  85 1.45
  23  0.333  0.792  0.502-  86 1.45  95 1.45  87 1.45
  24  0.333  0.917  0.502-  87 1.45  88 1.45  96 1.45
  25  0.458  0.042  0.502-  96 1.45  89 1.45  97 1.45
  26  0.458  0.167  0.502-  89 1.45  98 1.45  90 1.45
  27  0.458  0.292  0.502-  99 1.45  90 1.45  91 1.45
  28  0.458  0.417  0.502- 100 1.45  92 1.45  91 1.45
  29  0.458  0.542  0.502- 101 1.45  93 1.45  92 1.45
  30  0.458  0.667  0.502-  94 1.45 102 1.45  93 1.45
  31  0.458  0.792  0.502-  94 1.45  95 1.45 103 1.45
  32  0.458  0.917  0.502-  95 1.45 104 1.45  96 1.45
  33  0.583  0.042  0.502- 104 1.45 105 1.45  97 1.45
  34  0.583  0.167  0.502-  97 1.45 106 1.45  98 1.45
  35  0.583  0.292  0.502-  99 1.45  98 1.45 107 1.45
  36  0.583  0.417  0.502- 100 1.45  99 1.45 108 1.45
  37  0.583  0.542  0.502- 101 1.45 100 1.45 109 1.45
  38  0.583  0.667  0.502- 101 1.45 102 1.45 110 1.45
  39  0.583  0.792  0.502- 102 1.45 103 1.45 111 1.45
  40  0.583  0.917  0.502- 103 1.45 104 1.45 112 1.45
  41  0.708  0.042  0.502- 113 1.45 112 1.45 105 1.45
  42  0.708  0.167  0.502- 114 1.45 106 1.45 105 1.45
  43  0.708  0.292  0.502- 107 1.45 115 1.45 106 1.45
  44  0.708  0.417  0.502- 108 1.45 107 1.45 116 1.45
  45  0.708  0.542  0.502- 108 1.45 109 1.45 117 1.45
  46  0.708  0.667  0.502- 109 1.45 110 1.45 118 1.45
  47  0.708  0.792  0.502- 110 1.45 119 1.45 111 1.45
  48  0.708  0.917  0.502- 120 1.45 111 1.45 112 1.45
  49  0.833  0.042  0.502- 121 1.45 113 1.45 120 1.45
  50  0.833  0.167  0.502- 122 1.45 114 1.45 113 1.45
  51  0.833  0.292  0.502- 123 1.45 115 1.45 114 1.45
  52  0.833  0.417  0.502- 124 1.45 116 1.45 115 1.45
  53  0.833  0.542  0.502- 116 1.45 125 1.45 117 1.45
  54  0.833  0.667  0.502- 117 1.45 126 1.45 118 1.45
  55  0.833  0.792  0.502- 127 1.45 118 1.45 119 1.45
  56  0.833  0.917  0.502- 128 1.45 120 1.45 119 1.45
  57  0.958  0.042  0.502- 121 1.45  65 1.45 128 1.45
  58  0.958  0.167  0.502- 122 1.45 121 1.45  66 1.45
  59  0.958  0.292  0.502- 123 1.45 122 1.45  67 1.45
  60  0.958  0.417  0.502-  68 1.45 123 1.45 124 1.45
  61  0.958  0.542  0.502-  69 1.45 124 1.45 125 1.45
  62  0.958  0.667  0.502-  70 1.45 125 1.45 126 1.45
  63  0.958  0.792  0.502-  71 1.45 127 1.45 126 1.45
  64  0.958  0.917  0.502-  72 1.45 128 1.45 127 1.45
  65  0.042  0.083  0.502-   2 1.45   1 1.45  57 1.45
  66  0.042  0.208  0.502-   3 1.45   2 1.45  58 1.45
  67  0.042  0.333  0.502-   3 1.45   4 1.45  59 1.45
  68  0.042  0.458  0.502-   4 1.45   5 1.45  60 1.45
  69  0.042  0.583  0.502-  61 1.45   6 1.45   5 1.45
  70  0.042  0.708  0.502-  62 1.45   6 1.45   7 1.45
  71  0.042  0.833  0.502-  63 1.45   7 1.45   8 1.45
  72  0.042  0.958  0.502-  64 1.45   1 1.45   8 1.45
  73  0.167  0.083  0.502-  10 1.45   9 1.45   1 1.45
  74  0.167  0.208  0.502-  11 1.45  10 1.45   2 1.45
  75  0.167  0.333  0.502-  11 1.45  12 1.45   3 1.45
  76  0.167  0.458  0.502-  12 1.45  13 1.45   4 1.45
  77  0.167  0.583  0.502-  13 1.45   5 1.45  14 1.45
  78  0.167  0.708  0.502-   6 1.45  15 1.45  14 1.45
  79  0.167  0.833  0.502-   7 1.45  15 1.45  16 1.45
  80  0.167  0.958  0.502-   9 1.45  16 1.45   8 1.45
  81  0.292  0.083  0.502-  18 1.45   9 1.45  17 1.45
  82  0.292  0.208  0.502-  19 1.45  10 1.45  18 1.45
  83  0.292  0.333  0.502-  11 1.45  20 1.45  19 1.45
  84  0.292  0.458  0.502-  12 1.45  20 1.45  21 1.45
  85  0.292  0.583  0.502-  21 1.45  13 1.45  22 1.45
  86  0.292  0.708  0.502-  22 1.45  23 1.45  14 1.45
  87  0.292  0.833  0.502-  15 1.45  24 1.45  23 1.45
  88  0.292  0.958  0.502-  17 1.45  16 1.45  24 1.45
  89  0.417  0.083  0.502-  17 1.45  26 1.45  25 1.45
  90  0.417  0.208  0.502-  18 1.45  27 1.45  26 1.45
  91  0.417  0.333  0.502-  19 1.45  27 1.45  28 1.45
  92  0.417  0.458  0.502-  20 1.45  28 1.45  29 1.45
  93  0.417  0.583  0.502-  21 1.45  29 1.45  30 1.45
  94  0.417  0.708  0.502-  31 1.45  30 1.45  22 1.45
  95  0.417  0.833  0.502-  32 1.45  31 1.45  23 1.45
  96  0.417  0.958  0.502-  25 1.45  32 1.45  24 1.45
  97  0.542  0.083  0.502-  34 1.45  25 1.45  33 1.45
  98  0.542  0.208  0.502-  26 1.45  35 1.45  34 1.45
  99  0.542  0.333  0.502-  27 1.45  35 1.45  36 1.45
 100  0.542  0.458  0.502-  28 1.45  36 1.45  37 1.45
 101  0.542  0.583  0.502-  38 1.45  29 1.45  37 1.45
 102  0.542  0.708  0.502-  39 1.45  38 1.45  30 1.45
 103  0.542  0.833  0.502-  40 1.45  39 1.45  31 1.45
 104  0.542  0.958  0.502-  33 1.45  40 1.45  32 1.45
 105  0.667  0.083  0.502-  33 1.45  42 1.45  41 1.45
 106  0.667  0.208  0.502-  42 1.45  43 1.45  34 1.45
 107  0.667  0.333  0.502-  43 1.45  44 1.45  35 1.45
 108  0.667  0.458  0.502-  45 1.45  44 1.45  36 1.45
 109  0.667  0.583  0.502-  46 1.45  45 1.45  37 1.45
 110  0.667  0.708  0.502-  47 1.45  46 1.45  38 1.45
 111  0.667  0.833  0.502-  48 1.45  47 1.45  39 1.45
 112  0.667  0.958  0.502-  40 1.45  41 1.45  48 1.45
 113  0.792  0.083  0.502-  41 1.45  49 1.45  50 1.45
 114  0.792  0.208  0.502-  42 1.45  50 1.45  51 1.45
 115  0.792  0.333  0.502-  51 1.45  43 1.45  52 1.45
 116  0.792  0.458  0.502-  53 1.45  52 1.45  44 1.45
 117  0.792  0.583  0.502-  54 1.45  53 1.45  45 1.45
 118  0.792  0.708  0.502-  55 1.45  54 1.45  46 1.45
 119  0.792  0.833  0.502-  47 1.45  56 1.45  55 1.45
 120  0.792  0.958  0.502-  48 1.45  56 1.45  49 1.45
 121  0.917  0.083  0.502-  49 1.45  57 1.45  58 1.45
 122  0.917  0.208  0.502-  50 1.45  58 1.45  59 1.45
 123  0.917  0.333  0.502-  59 1.45  51 1.45  60 1.45
 124  0.917  0.458  0.502-  52 1.45  61 1.45  60 1.45
 125  0.917  0.583  0.502-  53 1.45  62 1.45  61 1.45
 126  0.917  0.708  0.502-  54 1.45  62 1.45  63 1.45
 127  0.917  0.833  0.502-  55 1.45  63 1.45  64 1.45
 128  0.917  0.958  0.502-  56 1.45  64 1.45  57 1.45
 129  0.283  0.225  0.664- 132 1.34 134 1.34 133 1.35 130 1.51
 130  0.270  0.204  0.623- 136 1.33 135 1.33 129 1.51
 131  0.237  0.388  0.611- 137 1.16 138 1.16
 132  0.351  0.290  0.669- 129 1.34
 133  0.284  0.170  0.686- 129 1.35
 134  0.226  0.237  0.677- 129 1.34
 135  0.327  0.197  0.607- 130 1.33
 136  0.202  0.144  0.615- 130 1.33
 137  0.303  0.429  0.610- 131 1.16
 138  0.171  0.346  0.613- 131 1.16
 

IMPORTANT INFORMATION: All symmetrisations will be switched off!
NOSYMM: (Re-)initialisation of all symmetry stuff for point group C_1.

 
 
 KPOINTS: K-Point Grid                            

Automatic generation of k-mesh.
Space group operators:
 irot       det(A)        alpha          n_x          n_y          n_z        tau_x        tau_y        tau_z
    1     1.000000     0.000001     1.000000     0.000000     0.000000     0.000000     0.000000     0.000000
 
 Subroutine IBZKPT returns following result:
 ===========================================
 
 Found      6 irreducible k-points:
 
 Following reciprocal coordinates:
            Coordinates               Weight
  0.250000  0.250000  0.000000     16.000000
  0.500000 -0.250000  0.000000     16.000000
  0.250000  0.500000  0.000000     16.000000
 -0.250000  0.250000  0.000000     16.000000
 -0.000000  0.250000  0.000000     16.000000
  0.250000 -0.000000  0.000000     16.000000
 
 Following cartesian coordinates:
            Coordinates               Weight
  0.024879  0.000000  0.000000     16.000000
  0.012439 -0.021546  0.000000     16.000000
  0.037318  0.007182  0.000000     16.000000
  0.000000  0.014364  0.000000     16.000000
  0.012439  0.007182  0.000000     16.000000
  0.012439 -0.007182  0.000000     16.000000
 


--------------------------------------------------------------------------------------------------------




 Dimension of arrays:
   k-points           NKPTS =      6   k-points in BZ     NKDIM =      6   number of bands    NBANDS=    432
   number of dos      NEDOS =   1200   number of ions     NIONS =    138
   non local maximal  LDIM  =      4   non local SUM 2l+1 LMDIM =      8
   total plane-waves  NPLWV = ******
   max r-space proj   IRMAX =   6620   max aug-charges    IRDMAX=   9003
   dimension x,y,z NGX =   160 NGY =  160 NGZ =  270
   dimension x,y,z NGXF=   320 NGYF=  320 NGZF=  540
   support grid    NGXF=   320 NGYF=  320 NGZF=  540
   ions per type =              64  64   3   5   2
   NGX,Y,Z   is equivalent  to a cutoff of  13.24, 13.24, 12.82 a.u.
   NGXF,Y,Z  is equivalent  to a cutoff of  26.47, 26.47, 25.65 a.u.

 SYSTEM =  hBN                                     
 POSCAR =  B N C F O                               

 Startparameter for this run:
   NWRITE =      2    write-flag & timer
   PREC   = accura    normal or accurate (medium, high low for compatibility)
   ISTART =      1    job   : 0-new  1-cont  2-samecut
   ICHARG =      0    charge: 1-file 2-atom 10-const
   ISPIN  =      2    spin polarized calculation?
   LNONCOLLINEAR =      F non collinear calculations
   LSORBIT =      F    spin-orbit coupling
   INIWAV =      1    electr: 0-lowe 1-rand  2-diag
   LASPH  =      T    aspherical Exc in radial PAW
   METAGGA=      F    non-selfconsistent MetaGGA calc.

 Electronic Relaxation 1
   ENCUT  =  550.0 eV  40.42 Ry    6.36 a.u.  38.43 38.43 66.93*2*pi/ulx,y,z
   ENINI  =  550.0     initial cutoff
   ENAUG  =  644.9 eV  augmentation charge cutoff
   NELM   =    100;   NELMIN=  2; NELMDL=  0     # of ELM steps 
   EDIFF  = 0.1E-04   stopping-criterion for ELM
   LREAL  =      T    real-space projection
   NLSPLINE    = F    spline interpolate recip. space projectors
   LCOMPAT=      F    compatible to vasp.4.4
   GGA_COMPAT  = T    GGA compatible to vasp.4.4-vasp.4.6
   LMAXPAW     = -100 max onsite density
   LMAXMIX     =    2 max onsite mixed and CHGCAR
   VOSKOWN=      0    Vosko Wilk Nusair interpolation
   ROPT   =   -0.00025  -0.00025  -0.00025  -0.00025
   ROPT   =   -0.00025
 Ionic relaxation
   EDIFFG = -.2E-01   stopping-criterion for IOM
   NSW    =      0    number of steps for IOM
   NBLOCK =      1;   KBLOCK =      1    inner block; outer block 
   IBRION =     -1    ionic relax: 0-MD 1-quasi-New 2-CG
   NFREE  =      1    steps in history (QN), initial steepest desc. (CG)
   ISIF   =      2    stress and relaxation
   IWAVPR =     10    prediction:  0-non 1-charg 2-wave 3-comb
   ISYM   =      0    0-nonsym 1-usesym 2-fastsym
   LCORR  =      T    Harris-Foulkes like correction to forces

   POTIM  = 0.5000    time-step for ionic-motion
   TEIN   =    0.0    initial temperature
   TEBEG  =    0.0;   TEEND  =   0.0 temperature during run
   SMASS  =  -3.00    Nose mass-parameter (am)
   estimated Nose-frequenzy (Omega)   =  0.10E-29 period in steps =****** mass=  -0.923E-26a.u.
   SCALEE = 1.0000    scale energy and forces
   NPACO  =    256;   APACO  = 16.0  distance and # of slots for P.C.
   PSTRESS=    0.0 pullay stress

  Mass of Ions in am
   POMASS =  10.81 14.00 12.01 19.00 16.00
  Ionic Valenz
   ZVAL   =   3.00  5.00  4.00  7.00  6.00
  Atomic Wigner-Seitz radii
   RWIGS  =  -1.00 -1.00 -1.00 -1.00 -1.00
  virtual crystal weights 
   VCA    =   1.00  1.00  1.00  1.00  1.00
   NELECT =     569.0000    total number of electrons
   NUPDOWN=      -1.0000    fix difference up-down

 DOS related values:
   EMIN   = -10.00;   EMAX   =  5.00  energy-range for DOS
   EFERMI =   0.00
   ISMEAR =     0;   SIGMA  =   0.05  broadening in eV -4-tet -1-fermi 0-gaus

 Electronic relaxation 2 (details)
   IALGO  =     68    algorithm
   LDIAG  =      T    sub-space diagonalisation (order eigenvalues)
   LSUBROT=      F    optimize rotation matrix (better conditioning)
   TURBO    =      0    0=normal 1=particle mesh
   IRESTART =      0    0=no restart 2=restart with 2 vectors
   NREBOOT  =      0    no. of reboots
   NMIN     =      0    reboot dimension
   EREF     =   0.00    reference energy to select bands
   IMIX   =      4    mixing-type and parameters
     AMIX     =   0.40;   BMIX     =  1.00
     AMIX_MAG =   1.60;   BMIX_MAG =  1.00
     AMIN     =   0.10
     WC   =   100.;   INIMIX=   1;  MIXPRE=   1;  MAXMIX= -45

 Intra band minimization:
   WEIMIN = 0.0000     energy-eigenvalue tresh-hold
   EBREAK =  0.58E-08  absolut break condition
   DEPER  =   0.30     relativ break condition  

   TIME   =   0.40     timestep for ELM

  volume/ion in A,a.u.               =      88.72       598.69
  Fermi-wavevector in a.u.,A,eV,Ry     =   0.588597  1.112288  4.713695  0.346447
  Thomas-Fermi vector in A             =   1.635924
 
 Write flags
   LWAVE        =      T    write WAVECAR
   LDOWNSAMPLE  =      F    k-point downsampling of WAVECAR
   LCHARG       =      T    write CHGCAR
   LVTOT        =      F    write LOCPOT, total local potential
   LVHAR        =      T    write LOCPOT, Hartree potential only
   LELF         =      F    write electronic localiz. function (ELF)
   LORBIT       =     11    0 simple, 1 ext, 2 COOP (PROOUT), +10 PAW based schemes


 Dipole corrections
   LMONO  =      F    monopole corrections only (constant potential shift)
   LDIPOL =      F    correct potential (dipole corrections)
   IDIPOL =      0    1-x, 2-y, 3-z, 4-all directions 
   EPSILON=  1.0000000 bulk dielectric constant

 Exchange correlation treatment:
   GGA     =    --    GGA type
   LEXCH   =     8    internal setting for exchange type
   VOSKOWN=      0    Vosko Wilk Nusair interpolation
   LHFCALC =     F    Hartree Fock is set to
   LHFONE  =     F    Hartree Fock one center treatment
   AEXX    =    0.0000 exact exchange contribution

 Linear response parameters
   LEPSILON=     F    determine dielectric tensor
   LRPA    =     F    only Hartree local field effects (RPA)
   LNABLA  =     F    use nabla operator in PAW spheres
   LVEL    =     F    velocity operator in full k-point grid
   LINTERFAST=   F  fast interpolation
   KINTER  =     0    interpolate to denser k-point grid
   CSHIFT  =0.1000    complex shift for real part using Kramers Kronig
   OMEGAMAX=  -1.0    maximum frequency
   DEG_THRESHOLD= 0.2000000E-02 threshold for treating states as degnerate
   RTIME   =   -0.100 relaxation time in fs
  (WPLASMAI=    0.000 imaginary part of plasma frequency in eV, 0.658/RTIME)
   DFIELD  = 0.0000000 0.0000000 0.0000000 field for delta impulse in time
 
 Orbital magnetization related:
   ORBITALMAG=     F  switch on orbital magnetization
   LCHIMAG   =     F  perturbation theory with respect to B field
   DQ        =  0.001000  dq finite difference perturbation B field
   LLRAUG    =     F  two centre corrections for induced B field

 Solvation model:
   LSOL    =     T         switch on solvation model
   EB_K    = 78.400000     relative permittivity of the bulk solvent
   SIGMA_K =  0.600000     width of the dielectric cavity
   NC_K    =  0.002500     cutoff charge density
   TAU     =  0.000000     cavity surface tension
   LAMBDA_D_K    =  3.040000     Debye length in Angstroms
   LRHOB     =     F     write boundcharge  density
   LRHOION     =     F     write ioniccharge density



--------------------------------------------------------------------------------------------------------


 Static calculation
 charge density and potential will be updated during run
 spin polarized calculation
 RMM-DIIS sequential band-by-band and
  variant of blocked Davidson during initial phase
 perform sub-space diagonalisation
    before iterative eigenvector-optimisation
 modified Broyden-mixing scheme, WC =      100.0
 initial mixing is a Kerker type mixing with AMIX =  0.4000 and BMIX =      1.0000
 Hartree-type preconditioning will be used
 using additional bands          147
 real space projection scheme for non local part
 use partial core corrections
 calculate Harris-corrections to forces 
   (improved forces if not selfconsistent)
 use gradient corrections 
 use of overlap-Matrix (Vanderbilt PP)
 Gauss-broadening in eV      SIGMA  =   0.05


--------------------------------------------------------------------------------------------------------


  energy-cutoff  :      550.00
  volume of cell :    12242.83
      direct lattice vectors                 reciprocal lattice vectors
    10.048700000-17.405000000  0.000000000     0.049757680 -0.028727377  0.000000000
    10.048700000 17.405000000  0.000000000     0.049757680  0.028727377  0.000000000
     0.000000000  0.000000000 35.000000000     0.000000000  0.000000000  0.028571429

  length of vectors
    20.097522153 20.097522153 35.000000000     0.057455104  0.057455104  0.028571429


 
 old parameters found on file WAVECAR:
  energy-cutoff  :      550.00
  volume of cell :    12242.83
      direct lattice vectors                 reciprocal lattice vectors
    10.048700000-17.405000000  0.000000000     0.049757680 -0.028727377  0.000000000
    10.048700000 17.405000000  0.000000000     0.049757680  0.028727377  0.000000000
     0.000000000  0.000000000 35.000000000     0.000000000  0.000000000  0.028571429

  length of vectors

 
 k-points in units of 2pi/SCALE and weight: K-Point Grid                            
   0.02487884  0.00000000  0.00000000       0.167
   0.01243942 -0.02154553  0.00000000       0.167
   0.03731826  0.00718184  0.00000000       0.167
   0.00000000  0.01436369  0.00000000       0.167
   0.01243942  0.00718184  0.00000000       0.167
   0.01243942 -0.00718184  0.00000000       0.167
 
 k-points in reciprocal lattice and weights: K-Point Grid                            
   0.25000000  0.25000000  0.00000000       0.167
   0.50000000 -0.25000000  0.00000000       0.167
   0.25000000  0.50000000  0.00000000       0.167
  -0.25000000  0.25000000  0.00000000       0.167
  -0.00000000  0.25000000  0.00000000       0.167
   0.25000000 -0.00000000  0.00000000       0.167
 
 position of ions in fractional coordinates (direct lattice) 
   0.08328930  0.04168090  0.50169562
   0.08328098  0.16667691  0.50170722
   0.08328012  0.29167818  0.50168480
   0.08329755  0.41668458  0.50164738
   0.08330793  0.54168505  0.50163895
   0.08330821  0.66668511  0.50163901
   0.08330681  0.79168607  0.50164047
   0.08330248  0.91668583  0.50166032
   0.20829696  0.04167901  0.50171323
   0.20828201  0.16667228  0.50172132
   0.20828776  0.29167006  0.50167736
   0.20829414  0.41670048  0.50157838
   0.20830847  0.54169431  0.50163424
   0.20830819  0.66668774  0.50164244
   0.20830839  0.79168755  0.50164177
   0.20830411  0.91668718  0.50166240
   0.33330569  0.04168428  0.50169873
   0.33330660  0.16667795  0.50174133
   0.33331489  0.29169489  0.50175310
   0.33332767  0.41670426  0.50166953
   0.33331508  0.54170880  0.50166162
   0.33330922  0.66669287  0.50165319
   0.33330884  0.79168877  0.50164229
   0.33330598  0.91668779  0.50164734
   0.45830461  0.04168578  0.50165193
   0.45830213  0.16668176  0.50169861
   0.45830381  0.29168638  0.50172326
   0.45830653  0.41669016  0.50170368
   0.45830705  0.54169540  0.50167609
   0.45830559  0.66669085  0.50166156
   0.45830702  0.79168770  0.50164460
   0.45830836  0.91668658  0.50163735
   0.58330680  0.04168343  0.50163536
   0.58330237  0.16668391  0.50164509
   0.58329962  0.29168386  0.50166294
   0.58329936  0.41668362  0.50166371
   0.58330075  0.54168452  0.50165317
   0.58330385  0.66668457  0.50164846
   0.58330654  0.79168472  0.50164246
   0.58330786  0.91668479  0.50163664
   0.70830694  0.04168385  0.50163726
   0.70830450  0.16668374  0.50163809
   0.70830319  0.29168329  0.50163880
   0.70830284  0.41668202  0.50163915
   0.70830337  0.54168143  0.50163707
   0.70830507  0.66668114  0.50163710
   0.70830603  0.79168186  0.50163794
   0.70830777  0.91668265  0.50163670
   0.83330352  0.04168337  0.50164524
   0.83330184  0.16668391  0.50165073
   0.83330248  0.29168405  0.50164716
   0.83330577  0.41668384  0.50163931
   0.83330679  0.54168274  0.50163630
   0.83330694  0.66668198  0.50163592
   0.83330722  0.79168174  0.50163621
   0.83330575  0.91668249  0.50163898
   0.95829682  0.04168292  0.50166387
   0.95829465  0.16668456  0.50167752
   0.95829697  0.29168276  0.50167101
   0.95830443  0.41668478  0.50164879
   0.95830827  0.54168452  0.50163894
   0.95830881  0.66668387  0.50163740
   0.95830785  0.79168414  0.50163798
   0.95830326  0.91668375  0.50164751
   0.04163001  0.08335010  0.50168274
   0.04163213  0.20835480  0.50169208
   0.04163470  0.33335300  0.50166911
   0.04163704  0.45835292  0.50163562
   0.04164028  0.58335277  0.50162831
   0.04164058  0.70835092  0.50162801
   0.04163882  0.83335003  0.50163193
   0.04163424  0.95834958  0.50165504
   0.16663206  0.08335188  0.50171744
   0.16663012  0.20834984  0.50172805
   0.16664341  0.33336180  0.50165916
   0.16663702  0.45835519  0.50161058
   0.16664094  0.58335464  0.50162963
   0.16664137  0.70835424  0.50163116
   0.16664001  0.83335249  0.50163399
   0.16663566  0.95835133  0.50166869
   0.29163359  0.08335474  0.50172960
   0.29162731  0.20835098  0.50177554
   0.29162915  0.33335779  0.50175347
   0.29163127  0.45834666  0.50164846
   0.29164039  0.58335573  0.50164503
   0.29164177  0.70835641  0.50163632
   0.29164136  0.83335433  0.50163088
   0.29163824  0.95835390  0.50165667
   0.41663619  0.08335120  0.50167401
   0.41662889  0.20835003  0.50173076
   0.41663031  0.33335087  0.50173946
   0.41663636  0.45835609  0.50168205
   0.41663666  0.58335547  0.50166459
   0.41664099  0.70835681  0.50164466
   0.41664220  0.83335511  0.50163004
   0.41664084  0.95835253  0.50163113
   0.54163897  0.08335019  0.50162961
   0.54163420  0.20834967  0.50165621
   0.54163379  0.33334987  0.50167250
   0.54163513  0.45835168  0.50166130
   0.54163796  0.58335381  0.50164757
   0.54163975  0.70835344  0.50164006
   0.54164181  0.83335331  0.50163065
   0.54164223  0.95835162  0.50162429
   0.66663909  0.08334966  0.50162504
   0.66663675  0.20834917  0.50162585
   0.66663624  0.33334890  0.50163259
   0.66663720  0.45834876  0.50163098
   0.66663889  0.58334961  0.50162785
   0.66664006  0.70834999  0.50162913
   0.66664066  0.83334990  0.50162775
   0.66664096  0.95835000  0.50162543
   0.79163645  0.08334916  0.50163253
   0.79163513  0.20834972  0.50163502
   0.79163652  0.33334994  0.50162963
   0.79163837  0.45834941  0.50162551
   0.79163966  0.58334887  0.50162512
   0.79163997  0.70834820  0.50162524
   0.79163941  0.83334813  0.50162645
   0.79163802  0.95834844  0.50162769
   0.91663348  0.08335061  0.50164874
   0.91663158  0.20835109  0.50165565
   0.91663428  0.33335122  0.50164626
   0.91663778  0.45835137  0.50163141
   0.91664035  0.58335020  0.50162719
   0.91664024  0.70834913  0.50162643
   0.91663849  0.83334795  0.50162724
   0.91663512  0.95834811  0.50163533
   0.28289510  0.22543220  0.66436169
   0.27020087  0.20360137  0.62270466
   0.23707876  0.38768104  0.61144191
   0.35050053  0.29023451  0.66899611
   0.28387854  0.17035299  0.68621956
   0.22642014  0.23654406  0.67738103
   0.32668004  0.19745992  0.60665291
   0.20184698  0.14361574  0.61489499
   0.30311601  0.42917217  0.60962889
   0.17106462  0.34591816  0.61305952
 
 position of ions in cartesian coordinates  (Angst):
   1.25578801 -0.72419424 17.55934687
   2.51175188  1.45150625 17.55975267
   3.76784348  3.62716809 17.55896800
   5.02417038  5.80260126 17.55765830
   6.28036701  7.97805379 17.55736330
   7.53645788 10.15367503 17.55736522
   8.79254096 12.32934105 17.55741640
  10.04858253 14.50503707 17.55811125
   2.51193352 -2.89998533 17.55996304
   3.76780315 -0.72421746 17.56024623
   5.02392619  1.45126892 17.55870754
   6.28038352  3.62731235 17.55524334
   7.53655294  5.80258061 17.55719857
   8.79257159  7.97809593 17.55748540
  10.04865925 10.15371419 17.55746202
  11.30469997 12.32940736 17.55818406
   3.76816175 -5.07567062 17.55945547
   5.02419478 -2.90017173 17.56094662
   6.28053572 -0.72439609 17.56135845
   7.53684585  1.45116942 17.55843372
   8.79285238  3.62709270 17.55815671
  10.04872096  5.80254234 17.55786178
  11.30476355  7.97810270 17.55748028
  12.56081237 10.15376038 17.55765678
   5.02425339 -7.25125064 17.55781765
   6.28027570 -5.07565256 17.55945143
   7.53642639 -2.89997644 17.56031411
   8.79257928 -0.72433285 17.55962890
  10.04872457  1.45137419 17.55866306
  11.30475180  3.62694547 17.55815447
  12.56082201  5.80249072 17.55756107
  13.81691168  7.97807295 17.55730729
   6.28033933 -9.42695460 17.55723749
   7.53638706 -7.25124432 17.55757815
   8.79244646 -5.07557226 17.55820291
  10.04852895 -2.89994687 17.55822991
  11.30463944 -0.72433058 17.55786088
  12.56075867  1.45124153 17.55769595
  13.81687471  3.62682212 17.55748613
  15.07297617  5.80242547 17.55728226
   7.53643251-11.60257485 17.55730411
   8.79249431 -9.42690921 17.55733299
  10.04856412 -7.25126944 17.55735786
  11.30463542 -5.07566042 17.55737020
  12.56072223 -2.90005486 17.55729749
  13.81682397 -0.72446447 17.55729852
  15.07292829  1.45115635 17.55732796
  16.32904121  3.62676484 17.55728438
   8.79248082-13.77814872 17.55758332
  10.04855680-11.60248511 17.55777572
  11.30465217 -9.42686885 17.55765057
  12.56077056 -7.25130472 17.55737590
  13.81685726 -5.07571653 17.55727060
  15.07293874 -2.90010747 17.55725707
  16.32902659 -0.72449160 17.55726731
  17.58510684  1.45117229 17.55736443
  10.04849636-15.95366494 17.55823545
  11.30457855-13.77797361 17.55871336
  12.56067139-11.60242031 17.55848548
  13.81685414 -9.42688999 17.55770780
  15.07297756 -7.25133633 17.55736290
  16.32906402 -5.07573206 17.55730915
  17.58514454 -2.90008560 17.55732934
  18.84118195 -0.72438769 17.55766293
   1.25588760  0.72613818 17.55889586
   2.51204370  2.90180797 17.55922285
   3.76813888  5.07735713 17.55841890
   5.02424911  7.25293976 17.55724676
   6.28036765  9.42850588 17.55699082
   7.53643951 11.60409346 17.55698049
   8.79250046 13.77973377 17.55711759
  10.04853745 15.95543046 17.55792654
   2.51201363 -1.44949141 17.56011037
   3.76806112  0.72613182 17.56048174
   5.02440230  2.90173353 17.55807061
   6.28035930  5.07735476 17.55637024
   7.53648065  7.25290196 17.55703713
   8.79256832  9.42851245 17.55709071
  10.04862459 11.60413078 17.55718962
  11.30465683 13.77981122 17.55840426
   3.76814525 -3.62509338 17.56053601
   5.02413181 -1.44942452 17.56214401
   6.28030620  0.72628692 17.56137141
   7.53630321  2.90168123 17.55769624
   8.79257347  5.07730559 17.55757588
  10.04868164  7.25291835 17.55727118
  11.30474412  9.42851419 17.55708064
  12.56079607 11.60418607 17.55798360
   5.02422332 -5.80082518 17.55859030
   6.28022564 -3.62509364 17.56057646
   7.53633594 -1.44947868 17.56088100
   8.79253663  0.72613199 17.55887169
  10.04862093  2.90174097 17.55826074
  11.30476538  5.07731392 17.55756303
  12.56084793  7.25288828 17.55705142
  13.81689589  9.42849193 17.55708941
   6.28032861 -7.97651626 17.55703645
   7.53636292 -5.80081733 17.55796730
   8.79244830 -3.62518175 17.55853756
  10.04856747 -1.44954855 17.55814565
  11.30470482  0.72606449 17.55766508
  12.56080657  2.90165190 17.55740197
  13.81691351  5.07723871 17.55707277
  15.07298822  7.25282682 17.55685030
   7.53641194-10.15215252 17.55687628
   8.79247097 -7.97649525 17.55690480
  10.04855073 -5.80086618 17.55714064
  11.30464644 -3.62526036 17.55708422
  12.56075950 -1.44964985 17.55697474
  13.81686252  0.72596128 17.55701957
  15.07295508  2.90157430 17.55697136
  16.32904663  5.07719574 17.55688999
   8.79246797-12.32774032 17.55713864
  10.04854779-10.15208255 17.55722586
  11.30465137 -7.97647793 17.55703706
  12.56075220 -5.80089420 17.55689281
  13.81684724 -3.62530129 17.55687907
  15.07293109 -1.44969335 17.55688331
  16.32901226  0.72594028 17.55692580
  17.58508891  2.90159485 17.55696929
  10.04854015-14.50328826 17.55770598
  11.30461331-12.32762190 17.55794786
  12.56072926-10.15204155 17.55761909
  13.81685355 -7.97647498 17.55709933
  15.07295508 -5.80091497 17.55695167
  16.32903069 -3.62530681 17.55692491
  17.58508876 -1.44967172 17.55695357
  18.84114393  0.72601461 17.55723667
   5.10802859 -1.00014169 23.25265904
   4.76109665 -1.15916431 21.79466301
   6.27802379  2.62123281 21.40046674
   6.43855421 -1.04892994 23.41486375
   4.56443644 -1.97591221 24.01768461
   4.65218839  0.17620687 23.70833609
   5.26692521 -2.24907632 21.23285199
   3.47145118 -1.01351474 21.52132453
   7.35854422  2.19400749 21.33701111
   5.19500487  3.04332592 21.45708304
 


--------------------------------------------------------------------------------------------------------


 k-point  1 :   0.2500 0.2500 0.0000  plane waves:  358590
 k-point  2 :   0.5000-0.2500 0.0000  plane waves:  358584
 k-point  3 :   0.2500 0.5000 0.0000  plane waves:  358584
 k-point  4 :  -0.2500 0.2500 0.0000  plane waves:  358603
 k-point  5 :  -0.0000 0.2500 0.0000  plane waves:  358599
 k-point  6 :   0.2500-0.0000 0.0000  plane waves:  358599

 maximum and minimum number of plane-waves per node :    358603   358584

 maximum number of plane-waves:    358603
 maximum index in each direction: 
   IXMAX=   38   IYMAX=   38   IZMAX=   66
   IXMIN=  -38   IYMIN=  -38   IZMIN=  -66


 serial   3D FFT for wavefunctions
 parallel 3D FFT for charge:
    minimum data exchange during FFTs selected (reduces bandwidth)


 total amount of memory used by VASP MPI-rank0  2733400. kBytes
=======================================================================

   base      :      30000. kBytes
   nonlr-proj:      63773. kBytes
   fftplans  :     108234. kBytes
   grid      :    1287382. kBytes
   one-center:        847. kBytes
   wavefun   :    1243164. kBytes
 
     INWAV:  cpu time  139.6722: real time  141.5289
 Broyden mixing: mesh for mixing (old mesh)
   NGX = 77   NGY = 77   NGZ =133
  (NGX  =320   NGY  =320   NGZ  =540)
  gives a total of 788557 points

 charge density for first step will be calculated from the start-wavefunctions


--------------------------------------------------------------------------------------------------------


 Maximum index for non-local projection operator         6394
 Maximum index for augmentation-charges          435 (set IRDMAX)


--------------------------------------------------------------------------------------------------------


 initial charge from wavefunction
 First call to EWALD:  gamma=   0.077
 Maximum number of real-space cells 3x 3x 2
 Maximum number of reciprocal cells 2x 2x 4

    FEWALD:  cpu time    0.0168: real time    0.0159


--------------------------------------- Iteration      1(   1)  ---------------------------------------


    POTLOK:  cpu time  132.2497: real time  132.3667
    SETDIJ:  cpu time    1.4460: real time    1.0529
     EDDAV:  cpu time  569.9830: real time  433.7655
       DOS:  cpu time    0.0795: real time    0.0417
    CHARGE:  cpu time   73.4383: real time   71.1744
    MIXING:  cpu time    0.3121: real time    0.3128
    --------------------------------------------
      LOOP:  cpu time  777.5086: real time  638.7140

 eigenvalue-minimisations  : 10944
 total energy-change (2. order) :-0.1316244E+04  (-0.6751714E-02)
 number of electron     568.9999967 magnetization       0.9998298
 augmentation part       22.4219362 magnetization       0.1190344

 Broyden mixing:
  rms(total) = 0.16018E-01    rms(broyden)= 0.15991E-01
  rms(prec ) = 0.16138E-01
  weight for this iteration     100.00

 Free energy of the ion-electron system (eV)
  ---------------------------------------------------
  alpha Z        PSCENC =       143.65704873
  Ewald energy   TEWEN  =    182068.82161416
  -Hartree energ DENC   =   -203051.25229471
  -exchange      EXHF   =         0.00000000
  -V(xc)+E(xc)   XCENC  =      2553.30345575
  PAW double counting   =     67711.82073944   -67977.32621881
  entropy T*S    EENTRO =        -0.02909476
  eigenvalues    EBANDS =     -8196.76826905
  atomic energy  EATOM  =     26089.46230379
  Solvation  Ediel_sol  =      -657.93326150
  ---------------------------------------------------
  free energy    TOTEN  =     -1316.24397696 eV

  energy without entropy =    -1316.21488220  energy(sigma->0) =    -1316.22942958


--------------------------------------------------------------------------------------------------------




--------------------------------------- Iteration      1(   2)  ---------------------------------------


    POTLOK:  cpu time   98.1895: real time   98.4048
    SETDIJ:  cpu time    1.3268: real time    0.9340
    EDDIAG:  cpu time  110.1733: real time   91.8933
  RMM-DIIS:  cpu time  633.4084: real time  519.9812
    ORTHCH:  cpu time    6.1710: real time    3.0962
       DOS:  cpu time    0.0783: real time    0.0392
    CHARGE:  cpu time   81.0870: real time   78.8424
    MIXING:  cpu time    0.2369: real time    0.2374
    --------------------------------------------
      LOOP:  cpu time  930.6711: real time  793.4285

 eigenvalue-minimisations  : 10750
 total energy-change (2. order) : 0.1188996E-03  (-0.9071354E-04)
 number of electron     568.9999967 magnetization       0.9998324
 augmentation part       22.4195647 magnetization       0.1190055

 Broyden mixing:
  rms(total) = 0.96937E-02    rms(broyden)= 0.96900E-02
  rms(prec ) = 0.97641E-02
  weight for this iteration     100.00

 eigenvalues of (default mixing * dielectric matrix)
  average eigenvalue GAMMA=   2.1709
  2.1709

 Free energy of the ion-electron system (eV)
  ---------------------------------------------------
  alpha Z        PSCENC =       143.65704873
  Ewald energy   TEWEN  =    182068.82161416
  -Hartree energ DENC   =   -203051.18630594
  -exchange      EXHF   =         0.00000000
  -V(xc)+E(xc)   XCENC  =      2553.35117399
  PAW double counting   =     67745.51581050   -68010.99819426
  entropy T*S    EENTRO =        -0.02909248
  eigenvalues    EBANDS =     -8196.97272156
  atomic energy  EATOM  =     26089.46230379
  Solvation  Ediel_sol  =      -657.86549499
  ---------------------------------------------------
  free energy    TOTEN  =     -1316.24385806 eV

  energy without entropy =    -1316.21476558  energy(sigma->0) =    -1316.22931182


--------------------------------------------------------------------------------------------------------




--------------------------------------- Iteration      1(   3)  ---------------------------------------


    POTLOK:  cpu time  100.2011: real time  100.4200
    SETDIJ:  cpu time    1.5965: real time    1.2048
    EDDIAG:  cpu time  110.1101: real time   91.8361
  RMM-DIIS:  cpu time  640.5489: real time  524.9310
    ORTHCH:  cpu time    6.0755: real time    3.0511
       DOS:  cpu time    0.1755: real time    0.0880
    CHARGE:  cpu time   85.9670: real time   83.6446
    MIXING:  cpu time    0.2361: real time    0.2366
    --------------------------------------------
      LOOP:  cpu time  944.9107: real time  805.4122

 eigenvalue-minimisations  : 10661
 total energy-change (2. order) :-0.2856389E-03  (-0.3945830E-04)
 number of electron     568.9999967 magnetization       0.9998341
 augmentation part       22.4180874 magnetization       0.1190075

 Broyden mixing:
  rms(total) = 0.21798E-02    rms(broyden)= 0.21776E-02
  rms(prec ) = 0.22167E-02
  weight for this iteration     100.00

 eigenvalues of (default mixing * dielectric matrix)
  average eigenvalue GAMMA=   1.6445
  0.9146  2.3744

 Free energy of the ion-electron system (eV)
  ---------------------------------------------------
  alpha Z        PSCENC =       143.65704873
  Ewald energy   TEWEN  =    182068.82161416
  -Hartree energ DENC   =   -203050.71553899
  -exchange      EXHF   =         0.00000000
  -V(xc)+E(xc)   XCENC  =      2553.31414360
  PAW double counting   =     67790.65581094   -68056.10574778
  entropy T*S    EENTRO =        -0.02909028
  eigenvalues    EBANDS =     -8197.54631243
  atomic energy  EATOM  =     26089.46230379
  Solvation  Ediel_sol  =      -657.75837543
  ---------------------------------------------------
  free energy    TOTEN  =     -1316.24414370 eV

  energy without entropy =    -1316.21505342  energy(sigma->0) =    -1316.22959856


--------------------------------------------------------------------------------------------------------




--------------------------------------- Iteration      1(   4)  ---------------------------------------


    POTLOK:  cpu time   92.3019: real time   92.5033
    SETDIJ:  cpu time    1.6047: real time    1.2136
    EDDIAG:  cpu time  110.2031: real time   91.9057
  RMM-DIIS:  cpu time  554.0542: real time  454.3496
    ORTHCH:  cpu time    6.0776: real time    3.0502
       DOS:  cpu time    0.1605: real time    0.0805
    CHARGE:  cpu time   87.0208: real time   84.9076
    MIXING:  cpu time    0.2352: real time    0.2357
    --------------------------------------------
      LOOP:  cpu time  851.6579: real time  728.2462

 eigenvalue-minimisations  :  8601
 total energy-change (2. order) : 0.1471472E-04  (-0.7164448E-05)
 number of electron     568.9999967 magnetization       0.9998361
 augmentation part       22.4186304 magnetization       0.1189972

 Broyden mixing:
  rms(total) = 0.99305E-03    rms(broyden)= 0.99287E-03
  rms(prec ) = 0.10078E-02
  weight for this iteration     100.00

 eigenvalues of (default mixing * dielectric matrix)
  average eigenvalue GAMMA=   1.5697
  2.4729  1.5665  0.6696

 Free energy of the ion-electron system (eV)
  ---------------------------------------------------
  alpha Z        PSCENC =       143.65704873
  Ewald energy   TEWEN  =    182068.82161416
  -Hartree energ DENC   =   -203050.44399627
  -exchange      EXHF   =         0.00000000
  -V(xc)+E(xc)   XCENC  =      2553.29066813
  PAW double counting   =     67793.90243131   -68059.35043693
  entropy T*S    EENTRO =        -0.02909081
  eigenvalues    EBANDS =     -8197.83222384
  atomic energy  EATOM  =     26089.46230379
  Solvation  Ediel_sol  =      -657.72244725
  ---------------------------------------------------
  free energy    TOTEN  =     -1316.24412899 eV

  energy without entropy =    -1316.21503818  energy(sigma->0) =    -1316.22958358


--------------------------------------------------------------------------------------------------------




--------------------------------------- Iteration      1(   5)  ---------------------------------------


    POTLOK:  cpu time   91.5346: real time   91.7369
    SETDIJ:  cpu time    1.4108: real time    1.0181
    EDDIAG:  cpu time  109.9950: real time   91.7218
  RMM-DIIS:  cpu time  542.2422: real time  446.9008
    ORTHCH:  cpu time    6.1434: real time    3.0849
       DOS:  cpu time    0.1053: real time    0.0528
    --------------------------------------------
      LOOP:  cpu time  751.4313: real time  634.5152

 eigenvalue-minimisations  :  8473
 total energy-change (2. order) :-0.8583069E-05  (-0.3471837E-05)
 number of electron     568.9999967 magnetization       0.9998361
 augmentation part       22.4186304 magnetization       0.1189972

 Free energy of the ion-electron system (eV)
  ---------------------------------------------------
  alpha Z        PSCENC =       143.65704873
  Ewald energy   TEWEN  =    182068.82161416
  -Hartree energ DENC   =   -203050.34183844
  -exchange      EXHF   =         0.00000000
  -V(xc)+E(xc)   XCENC  =      2553.28888343
  PAW double counting   =     67795.15261277   -68060.60044451
  entropy T*S    EENTRO =        -0.02909096
  eigenvalues    EBANDS =     -8197.94574597
  atomic energy  EATOM  =     26089.46230379
  Solvation  Ediel_sol  =      -657.70948057
  ---------------------------------------------------
  free energy    TOTEN  =     -1316.24413757 eV

  energy without entropy =    -1316.21504661  energy(sigma->0) =    -1316.22959209


--------------------------------------------------------------------------------------------------------




 average (electrostatic) potential at core
  the test charge radii are     0.7672  0.7089  0.6991  0.7167  0.7215
  (the norm of the test charge is              1.0000)
       1 -38.9366       2 -38.9397       3 -38.9405       4 -38.9370       5 -38.9339
       6 -38.9331       7 -38.9332       8 -38.9341       9 -38.9377      10 -38.9436
      11 -38.9486      12 -38.9451      13 -38.9371      14 -38.9337      15 -38.9332
      16 -38.9340      17 -38.9356      18 -38.9403      19 -38.9458      20 -38.9452
      21 -38.9395      22 -38.9345      23 -38.9333      24 -38.9335      25 -38.9335
      26 -38.9354      27 -38.9376      28 -38.9381      29 -38.9363      30 -38.9341
      31 -38.9332      32 -38.9331      33 -38.9330      34 -38.9333      35 -38.9338
      36 -38.9340      37 -38.9337      38 -38.9332      39 -38.9330      40 -38.9329
      41 -38.9329      42 -38.9330      43 -38.9331      44 -38.9331      45 -38.9330
      46 -38.9330      47 -38.9329      48 -38.9329      49 -38.9331      50 -38.9331
      51 -38.9331      52 -38.9331      53 -38.9331      54 -38.9330      55 -38.9330
      56 -38.9330      57 -38.9341      58 -38.9347      59 -38.9344      60 -38.9335
      61 -38.9331      62 -38.9330      63 -38.9331      64 -38.9334      65 -76.5269
      66 -76.5281      67 -76.5278      68 -76.5256      69 -76.5252      70 -76.5253
      71 -76.5253      72 -76.5257      73 -76.5311      74 -76.5366      75 -76.5394
      76 -76.5316      77 -76.5260      78 -76.5254      79 -76.5254      80 -76.5261
      81 -76.5301      82 -76.5377      83 -76.5419      84 -76.5382      85 -76.5279
      86 -76.5255      87 -76.5253      88 -76.5257      89 -76.5259      90 -76.5294
      91 -76.5310      92 -76.5305      93 -76.5270      94 -76.5252      95 -76.5254
      96 -76.5253      97 -76.5252      98 -76.5255      99 -76.5258     100 -76.5256
     101 -76.5251     102 -76.5251     103 -76.5252     104 -76.5253     105 -76.5254
     106 -76.5254     107 -76.5252     108 -76.5251     109 -76.5251     110 -76.5251
     111 -76.5253     112 -76.5254     113 -76.5252     114 -76.5252     115 -76.5254
     116 -76.5254     117 -76.5254     118 -76.5254     119 -76.5254     120 -76.5252
     121 -76.5252     122 -76.5250     123 -76.5252     124 -76.5253     125 -76.5254
     126 -76.5254     127 -76.5253     128 -76.5252     129 -67.6948     130 -65.7320
     131 -65.9639     132 -92.0697     133 -91.9395     134 -92.0749     135 -92.2750
     136 -92.2742     137 -86.5814     138 -86.5784
 
 
 
 E-fermi :  -6.5786     XC(G=0):  -1.2926     alpha+bet : -1.0967


 spin component 1

 k-point     1 :       0.2500    0.2500    0.0000
  band No.  band energies     occupation 
      1     -35.8073      1.00000
      2     -35.0767      1.00000
      3     -33.7319      1.00000
      4     -33.4077      1.00000
      5     -33.3238      1.00000
      6     -30.8845      1.00000
      7     -29.8854      1.00000
      8     -25.1041      1.00000
      9     -25.0278      1.00000
     10     -25.0252      1.00000
     11     -24.7967      1.00000
     12     -24.7962      1.00000
     13     -24.6452      1.00000
     14     -24.5718      1.00000
     15     -24.5693      1.00000
     16     -24.4224      1.00000
     17     -24.4222      1.00000
     18     -24.3494      1.00000
     19     -24.3489      1.00000
     20     -23.9907      1.00000
     21     -23.9906      1.00000
     22     -23.9217      1.00000
     23     -23.9216      1.00000
     24     -23.7818      1.00000
     25     -23.7168      1.00000
     26     -23.7143      1.00000
     27     -23.5207      1.00000
     28     -23.5203      1.00000
     29     -23.5137      1.00000
     30     -23.5137      1.00000
     31     -23.3288      1.00000
     32     -23.3287      1.00000
     33     -23.2092      1.00000
     34     -23.2091      1.00000
     35     -22.9546      1.00000
     36     -22.9545      1.00000
     37     -22.8055      1.00000
     38     -22.8055      1.00000
     39     -22.7113      1.00000
     40     -22.7110      1.00000
     41     -22.6741      1.00000
     42     -22.6333      1.00000
     43     -22.6308      1.00000
     44     -22.5132      1.00000
     45     -22.5128      1.00000
     46     -22.3814      1.00000
     47     -22.3811      1.00000
     48     -22.3513      1.00000
     49     -22.3512      1.00000
     50     -22.3376      1.00000
     51     -22.3375      1.00000
     52     -22.2002      1.00000
     53     -22.1980      1.00000
     54     -22.1395      1.00000
     55     -22.1394      1.00000
     56     -21.9895      1.00000
     57     -21.9578      1.00000
     58     -21.9577      1.00000
     59     -21.9178      1.00000
     60     -21.9154      1.00000
     61     -21.9126      1.00000
     62     -21.9124      1.00000
     63     -21.8235      1.00000
     64     -21.8231      1.00000
     65     -21.7477      1.00000
     66     -21.7454      1.00000
     67     -21.7294      1.00000
     68     -21.7225      1.00000
     69     -21.5851      1.00000
     70     -21.5829      1.00000
     71     -21.4599      1.00000
     72     -21.1055      1.00000
     73     -18.0525      1.00000
     74     -16.4253      1.00000
     75     -16.2704      1.00000
     76     -16.0743      1.00000
     77     -15.6650      1.00000
     78     -15.5828      1.00000
     79     -15.5826      1.00000
     80     -15.5050      1.00000
     81     -15.5049      1.00000
     82     -15.3922      1.00000
     83     -15.3920      1.00000
     84     -15.3430      1.00000
     85     -15.3270      1.00000
     86     -15.3246      1.00000
     87     -15.2812      1.00000
     88     -15.1757      1.00000
     89     -15.1756      1.00000
     90     -15.0070      1.00000
     91     -15.0046      1.00000
     92     -14.9965      1.00000
     93     -14.9948      1.00000
     94     -14.7736      1.00000
     95     -14.7735      1.00000
     96     -14.7618      1.00000
     97     -14.7608      1.00000
     98     -14.7065      1.00000
     99     -14.6575      1.00000
    100     -14.6574      1.00000
    101     -14.6400      1.00000
    102     -14.5519      1.00000
    103     -14.5518      1.00000
    104     -14.4564      1.00000
    105     -14.4343      1.00000
    106     -14.4340      1.00000
    107     -14.2957      1.00000
    108     -14.2954      1.00000
    109     -14.2574      1.00000
    110     -14.1265      1.00000
    111     -14.1264      1.00000
    112     -14.0767      1.00000
    113     -14.0749      1.00000
    114     -13.9346      1.00000
    115     -13.7588      1.00000
    116     -13.5464      1.00000
    117     -13.5462      1.00000
    118     -13.5201      1.00000
    119     -13.5189      1.00000
    120     -13.3806      1.00000
    121     -13.3805      1.00000
    122     -13.2893      1.00000
    123     -13.2586      1.00000
    124     -13.2138      1.00000
    125     -13.2136      1.00000
    126     -13.0849      1.00000
    127     -13.0708      1.00000
    128     -12.8758      1.00000
    129     -12.8755      1.00000
    130     -12.8509      1.00000
    131     -12.8278      1.00000
    132     -12.8262      1.00000
    133     -12.6904      1.00000
    134     -12.6903      1.00000
    135     -12.5029      1.00000
    136     -12.4682      1.00000
    137     -12.4475      1.00000
    138     -12.4474      1.00000
    139     -12.4349      1.00000
    140     -12.3587      1.00000
    141     -12.3563      1.00000
    142     -12.2328      1.00000
    143     -12.2310      1.00000
    144     -12.2123      1.00000
    145     -12.0314      1.00000
    146     -12.0313      1.00000
    147     -12.0197      1.00000
    148     -12.0193      1.00000
    149     -11.9112      1.00000
    150     -11.8513      1.00000
    151     -11.8463      1.00000
    152     -11.8462      1.00000
    153     -11.8040      1.00000
    154     -11.7380      1.00000
    155     -11.7379      1.00000
    156     -11.7025      1.00000
    157     -11.6000      1.00000
    158     -11.5973      1.00000
    159     -11.5702      1.00000
    160     -11.5700      1.00000
    161     -11.5427      1.00000
    162     -11.5410      1.00000
    163     -11.4621      1.00000
    164     -11.4444      1.00000
    165     -11.4444      1.00000
    166     -11.2905      1.00000
    167     -11.2900      1.00000
    168     -11.2784      1.00000
    169     -11.2779      1.00000
    170     -11.2773      1.00000
    171     -11.0869      1.00000
    172     -11.0202      1.00000
    173     -11.0200      1.00000
    174     -11.0094      1.00000
    175     -10.9883      1.00000
    176     -10.9844      1.00000
    177     -10.9259      1.00000
    178     -10.9236      1.00000
    179     -10.9173      1.00000
    180     -10.8515      1.00000
    181     -10.8514      1.00000
    182     -10.8113      1.00000
    183     -10.7879      1.00000
    184     -10.7878      1.00000
    185     -10.7855      1.00000
    186     -10.7761      1.00000
    187     -10.7605      1.00000
    188     -10.7603      1.00000
    189     -10.7048      1.00000
    190     -10.7048      1.00000
    191     -10.6868      1.00000
    192     -10.6842      1.00000
    193     -10.6760      1.00000
    194     -10.6757      1.00000
    195     -10.6638      1.00000
    196     -10.6637      1.00000
    197     -10.4856      1.00000
    198     -10.4854      1.00000
    199     -10.2891      1.00000
    200     -10.2772      1.00000
    201     -10.2771      1.00000
    202     -10.2245      1.00000
    203     -10.2244      1.00000
    204     -10.1992      1.00000
    205     -10.1986      1.00000
    206     -10.1293      1.00000
    207     -10.1276      1.00000
    208     -10.1045      1.00000
    209     -10.1040      1.00000
    210     -10.0847      1.00000
    211     -10.0833      1.00000
    212      -9.9966      1.00000
    213      -9.9964      1.00000
    214      -9.9138      1.00000
    215      -9.8290      1.00000
    216      -9.8288      1.00000
    217      -9.8250      1.00000
    218      -9.8201      1.00000
    219      -9.7712      1.00000
    220      -9.7574      1.00000
    221      -9.7573      1.00000
    222      -9.5584      1.00000
    223      -9.5515      1.00000
    224      -9.5454      1.00000
    225      -9.5438      1.00000
    226      -9.4424      1.00000
    227      -9.4381      1.00000
    228      -9.2957      1.00000
    229      -9.2953      1.00000
    230      -9.2850      1.00000
    231      -9.2841      1.00000
    232      -9.1809      1.00000
    233      -9.1807      1.00000
    234      -9.1667      1.00000
    235      -9.1665      1.00000
    236      -9.1168      1.00000
    237      -9.1155      1.00000
    238      -8.8933      1.00000
    239      -8.8918      1.00000
    240      -8.8723      1.00000
    241      -8.7613      1.00000
    242      -8.7609      1.00000
    243      -8.5892      1.00000
    244      -8.5888      1.00000
    245      -8.5453      1.00000
    246      -8.5449      1.00000
    247      -8.4583      1.00000
    248      -8.4576      1.00000
    249      -8.4078      1.00000
    250      -8.4074      1.00000
    251      -8.3605      1.00000
    252      -8.2995      1.00000
    253      -8.2966      1.00000
    254      -8.1549      1.00000
    255      -8.1542      1.00000
    256      -8.1389      1.00000
    257      -8.1201      1.00000
    258      -8.1195      1.00000
    259      -8.0039      1.00000
    260      -7.9329      1.00000
    261      -7.9325      1.00000
    262      -7.8859      1.00000
    263      -7.8857      1.00000
    264      -7.8548      1.00000
    265      -7.8548      1.00000
    266      -7.6477      1.00000
    267      -7.6452      1.00000
    268      -7.5522      1.00000
    269      -7.5520      1.00000
    270      -7.3197      1.00000
    271      -7.2739      1.00000
    272      -7.2738      1.00000
    273      -7.2276      1.00000
    274      -7.2252      1.00000
    275      -7.2229      1.00000
    276      -7.2225      1.00000
    277      -7.0713      1.00000
    278      -7.0708      1.00000
    279      -6.9609      1.00000
    280      -6.9582      1.00000
    281      -6.9264      1.00000
    282      -6.9250      1.00000
    283      -6.8074      1.00000
    284      -6.7017      0.99975
    285      -6.6993      0.99968
    286      -6.4940      0.00839
    287      -1.0876      0.00000
    288      -1.0043      0.00000
    289      -0.9644      0.00000
    290      -0.9626      0.00000
    291      -0.9604      0.00000
    292      -0.9394      0.00000
    293      -0.9371      0.00000
    294      -0.9230      0.00000
    295      -0.9194      0.00000
    296      -0.8770      0.00000
    297      -0.7957      0.00000
    298      -0.7901      0.00000
    299      -0.7621      0.00000
    300      -0.7593      0.00000
    301      -0.7391      0.00000
    302      -0.7104      0.00000
    303      -0.6981      0.00000
    304      -0.6070      0.00000
    305      -0.6014      0.00000
    306      -0.5709      0.00000
    307      -0.5656      0.00000
    308      -0.4925      0.00000
    309      -0.4908      0.00000
    310      -0.3798      0.00000
    311      -0.3513      0.00000
[...]
      8.79250     13.77973     17.55712         0.001589      0.001204      0.006943
     10.04854     15.95543     17.55793         0.001799      0.001002      0.007190
      2.51201     -1.44949     17.56011        -0.001023      0.000841      0.006970
      3.76806      0.72613     17.56048        -0.001155      0.001468      0.004020
      5.02440      2.90173     17.55807        -0.003089     -0.000054      0.007572
      6.28036      5.07735     17.55637         0.000098      0.001411      0.004795
      7.53648      7.25290     17.55704        -0.000202     -0.000594      0.006917
      8.79257      9.42851     17.55709        -0.000287     -0.000454      0.006641
     10.04862     11.60413     17.55719         0.000777      0.001122      0.006991
     11.30466     13.77981     17.55840         0.000742      0.001063      0.006561
      3.76815     -3.62509     17.56054        -0.000580     -0.001152      0.006061
      5.02413     -1.44942     17.56214         0.000855      0.001022      0.009194
      6.28031      0.72629     17.56137         0.000377     -0.002231      0.004609
      7.53630      2.90168     17.55770         0.002327      0.001348      0.006748
      8.79257      5.07731     17.55758        -0.000472      0.000689      0.006261
     10.04868      7.25292     17.55727        -0.000955     -0.000406      0.006712
     11.30474      9.42851     17.55708         0.000190      0.000746      0.006879
     12.56080     11.60419     17.55798         0.000109      0.000754      0.007079
      5.02422     -5.80083     17.55859         0.000273      0.001160      0.006706
      6.28023     -3.62509     17.56058         0.001618     -0.000710      0.006802
      7.53634     -1.44948     17.56088         0.001884      0.000275      0.004957
      8.79254      0.72613     17.55887         0.000613     -0.001511      0.006286
     10.04862      2.90174     17.55826         0.000074     -0.000015      0.006535
     11.30477      5.07731     17.55756        -0.001451     -0.000066      0.006700
     12.56085      7.25289     17.55705        -0.000690      0.000247      0.006854
     13.81690      9.42849     17.55709        -0.000194      0.001707      0.007102
      6.28033     -7.97652     17.55704        -0.000066      0.001362      0.007138
      7.53636     -5.80082     17.55797         0.000073      0.001155      0.007007
      8.79245     -3.62518     17.55854        -0.000596      0.001962      0.006603
     10.04857     -1.44955     17.55815        -0.001293      0.000757      0.006966
     11.30470      0.72606     17.55767        -0.001689      0.000504      0.007063
     12.56081      2.90165     17.55740        -0.001200      0.000434      0.006935
     13.81691      5.07724     17.55707        -0.001028      0.000391      0.006766
     15.07299      7.25283     17.55685        -0.000583      0.001110      0.007050
      7.53641    -10.15215     17.55688         0.000502      0.000514      0.006963
      8.79247     -7.97650     17.55690         0.000351      0.001159      0.007205
     10.04855     -5.80087     17.55714        -0.000574      0.001494      0.006955
     11.30465     -3.62526     17.55708        -0.001154      0.001727      0.007179
     12.56076     -1.44965     17.55697        -0.001652      0.001272      0.007039
     13.81686      0.72596     17.55702        -0.000986      0.000630      0.006854
     15.07296      2.90157     17.55697        -0.000214      0.000535      0.006812
     16.32905      5.07720     17.55689         0.000168      0.000540      0.006914
      8.79247    -12.32774     17.55714         0.001482      0.000221      0.006888
     10.04855    -10.15208     17.55723         0.001212      0.000120      0.006659
     11.30465     -7.97648     17.55704         0.000560      0.000634      0.006879
     12.56075     -5.80089     17.55689         0.000080      0.000545      0.006962
     13.81685     -3.62530     17.55688        -0.000275      0.000582      0.006784
     15.07293     -1.44969     17.55688         0.000090      0.000536      0.006795
     16.32901      0.72594     17.55693         0.000449      0.000361      0.006743
     17.58509      2.90159     17.55697         0.001376      0.000090      0.006917
     10.04854    -14.50329     17.55771         0.001805      0.000026      0.007257
     11.30461    -12.32762     17.55795         0.001883     -0.001048      0.007154
     12.56073    -10.15204     17.55762         0.001265     -0.000810      0.006697
     13.81685     -7.97647     17.55710         0.000801     -0.000755      0.006891
     15.07296     -5.80091     17.55695         0.000329      0.000334      0.006832
     16.32903     -3.62531     17.55692         0.000701      0.000296      0.006746
     17.58509     -1.44967     17.55695         0.001518      0.000644      0.006946
     18.84114      0.72601     17.55724         0.002208      0.000425      0.007182
      5.10803     -1.00014     23.25266        -0.010464     -0.012813      0.002508
      4.76110     -1.15916     21.79466        -0.001407      0.003990     -0.028507
      6.27802      2.62123     21.40047        -0.017770      0.013349     -0.004858
      6.43855     -1.04893     23.41486        -0.009447      0.001630     -0.014648
      4.56444     -1.97591     24.01768         0.002822      0.007028     -0.000216
      4.65219      0.17621     23.70834        -0.001228     -0.001246     -0.012052
      5.26693     -2.24908     21.23285        -0.009616     -0.005085     -0.004735
      3.47145     -1.01351     21.52132         0.007965     -0.006736      0.005485
      7.35854      2.19401     21.33701         0.006319      0.002125     -0.012849
      5.19500      3.04333     21.45708         0.006385      0.003689     -0.003004
 -----------------------------------------------------------------------------------
    total drift:                                0.002008     -0.198049      0.251922


--------------------------------------------------------------------------------------------------------



  FREE ENERGIE OF THE ION-ELECTRON SYSTEM (eV)
  ---------------------------------------------------
  free  energy   TOTEN  =     -1316.24413757 eV

  energy  without entropy=    -1316.21504661  energy(sigma->0) =    -1316.22959209
 


--------------------------------------------------------------------------------------------------------


    POTLOK:  cpu time   89.3061: real time   89.1025


--------------------------------------------------------------------------------------------------------


 writing wavefunctions
     LOOP+:  cpu time 6422.1946: real time 5457.2566
    4ORBIT:  cpu time    0.0000: real time    0.0000
 


 total charge     
 
# of ion       s       p       d       tot
------------------------------------------
    1        0.744   1.392   0.000   2.135
    2        0.744   1.392   0.000   2.135
    3        0.744   1.392   0.000   2.135
    4        0.744   1.392   0.000   2.135
    5        0.744   1.392   0.000   2.136
    6        0.744   1.392   0.000   2.136
    7        0.744   1.392   0.000   2.136
    8        0.744   1.392   0.000   2.136
    9        0.744   1.392   0.000   2.135
   10        0.744   1.392   0.000   2.136
   11        0.744   1.392   0.000   2.136
   12        0.744   1.393   0.000   2.137
   13        0.744   1.392   0.000   2.136
   14        0.744   1.392   0.000   2.136
   15        0.744   1.392   0.000   2.136
   16        0.744   1.392   0.000   2.136
   17        0.744   1.392   0.000   2.135
   18        0.744   1.392   0.000   2.136
   19        0.744   1.392   0.000   2.136
   20        0.744   1.392   0.000   2.136
   21        0.744   1.392   0.000   2.135
   22        0.744   1.392   0.000   2.136
   23        0.744   1.392   0.000   2.136
   24        0.744   1.392   0.000   2.136
   25        0.744   1.392   0.000   2.136
   26        0.744   1.392   0.000   2.135
   27        0.744   1.392   0.000   2.135
   28        0.744   1.392   0.000   2.135
   29        0.744   1.392   0.000   2.135
   30        0.744   1.392   0.000   2.136
   31        0.744   1.392   0.000   2.136
   32        0.744   1.392   0.000   2.136
   33        0.744   1.392   0.000   2.136
   34        0.744   1.392   0.000   2.136
   35        0.744   1.392   0.000   2.135
   36        0.744   1.392   0.000   2.135
   37        0.744   1.392   0.000   2.135
   38        0.744   1.392   0.000   2.136
   39        0.744   1.392   0.000   2.136
   40        0.744   1.392   0.000   2.136
   41        0.744   1.392   0.000   2.136
   42        0.744   1.392   0.000   2.136
   43        0.744   1.392   0.000   2.136
   44        0.744   1.392   0.000   2.136
   45        0.744   1.392   0.000   2.136
   46        0.744   1.392   0.000   2.136
   47        0.744   1.392   0.000   2.136
   48        0.744   1.392   0.000   2.136
   49        0.744   1.392   0.000   2.136
   50        0.744   1.392   0.000   2.136
   51        0.744   1.392   0.000   2.136
   52        0.744   1.392   0.000   2.136
   53        0.744   1.392   0.000   2.136
   54        0.744   1.392   0.000   2.136
   55        0.744   1.392   0.000   2.136
   56        0.744   1.392   0.000   2.136
   57        0.744   1.392   0.000   2.136
   58        0.744   1.392   0.000   2.135
   59        0.744   1.392   0.000   2.136
   60        0.744   1.392   0.000   2.136
   61        0.744   1.392   0.000   2.136
   62        0.744   1.392   0.000   2.136
   63        0.744   1.392   0.000   2.136
   64        0.744   1.392   0.000   2.136
   65        1.239   2.817   0.000   4.056
   66        1.239   2.817   0.000   4.056
   67        1.239   2.817   0.000   4.056
   68        1.239   2.817   0.000   4.056
   69        1.239   2.817   0.000   4.056
   70        1.239   2.817   0.000   4.056
   71        1.239   2.817   0.000   4.056
   72        1.239   2.817   0.000   4.056
   73        1.239   2.817   0.000   4.056
   74        1.239   2.817   0.000   4.056
   75        1.239   2.817   0.000   4.056
   76        1.239   2.817   0.000   4.056
   77        1.239   2.817   0.000   4.056
   78        1.239   2.817   0.000   4.056
   79        1.239   2.817   0.000   4.056
   80        1.239   2.817   0.000   4.056
   81        1.239   2.817   0.000   4.056
   82        1.239   2.816   0.000   4.056
   83        1.239   2.817   0.000   4.056
   84        1.239   2.817   0.000   4.056
   85        1.239   2.817   0.000   4.056
   86        1.239   2.817   0.000   4.056
   87        1.239   2.817   0.000   4.056
   88        1.239   2.817   0.000   4.056
   89        1.239   2.817   0.000   4.056
   90        1.239   2.817   0.000   4.056
   91        1.239   2.817   0.000   4.056
   92        1.239   2.817   0.000   4.056
   93        1.239   2.817   0.000   4.056
   94        1.239   2.817   0.000   4.056
   95        1.239   2.817   0.000   4.056
   96        1.239   2.817   0.000   4.056
   97        1.239   2.817   0.000   4.056
   98        1.239   2.817   0.000   4.056
   99        1.239   2.817   0.000   4.056
  100        1.239   2.817   0.000   4.056
  101        1.239   2.817   0.000   4.056
  102        1.239   2.817   0.000   4.056
  103        1.239   2.817   0.000   4.056
  104        1.239   2.817   0.000   4.056
  105        1.239   2.817   0.000   4.056
  106        1.239   2.817   0.000   4.056
  107        1.239   2.817   0.000   4.056
  108        1.239   2.817   0.000   4.056
  109        1.239   2.817   0.000   4.056
  110        1.239   2.817   0.000   4.056
  111        1.239   2.817   0.000   4.056
  112        1.239   2.817   0.000   4.056
  113        1.239   2.817   0.000   4.056
  114        1.239   2.817   0.000   4.056
  115        1.239   2.817   0.000   4.056
  116        1.239   2.817   0.000   4.056
  117        1.239   2.817   0.000   4.056
  118        1.239   2.817   0.000   4.056
  119        1.239   2.817   0.000   4.056
  120        1.239   2.817   0.000   4.056
  121        1.239   2.817   0.000   4.056
  122        1.239   2.817   0.000   4.056
  123        1.239   2.817   0.000   4.056
  124        1.239   2.817   0.000   4.056
  125        1.239   2.817   0.000   4.056
  126        1.239   2.817   0.000   4.056
  127        1.239   2.817   0.000   4.056
  128        1.239   2.817   0.000   4.056
  129        0.814   1.560   0.000   2.374
  130        0.836   1.566   0.000   2.402
  131        0.945   1.794   0.000   2.738
  132        1.758   4.413   0.000   6.171
  133        1.758   4.405   0.000   6.163
  134        1.758   4.413   0.000   6.171
  135        1.757   4.400   0.000   6.156
  136        1.757   4.400   0.000   6.156
  137        1.608   3.595   0.000   5.204
  138        1.608   3.595   0.000   5.204
--------------------------------------------------
tot        141.509 303.507   0.000 445.016
 


 magnetization (x)
 
# of ion       s       p       d       tot
------------------------------------------
    1        0.000   0.000   0.000   0.000
    2        0.000  -0.000   0.000  -0.000
    3        0.000   0.000   0.000   0.000
    4        0.000   0.000   0.000   0.000
    5        0.000   0.000   0.000   0.000
    6        0.000   0.000   0.000   0.000
    7        0.000   0.000   0.000   0.000
    8        0.000   0.000   0.000   0.000
    9        0.000   0.000   0.000   0.000
   10       -0.000   0.000   0.000   0.000
   11        0.000   0.000   0.000   0.000
   12        0.000   0.000   0.000   0.000
   13        0.000   0.000   0.000   0.000
   14        0.000   0.000   0.000   0.000
   15        0.000   0.000   0.000   0.000
   16        0.000   0.000   0.000   0.000
   17        0.000   0.000   0.000   0.000
   18       -0.000  -0.000   0.000  -0.000
   19        0.000   0.000   0.000   0.000
   20       -0.000   0.000   0.000   0.000
   21        0.000   0.000   0.000   0.000
   22        0.000   0.000   0.000   0.000
   23        0.000   0.000   0.000   0.000
   24        0.000   0.000   0.000   0.000
   25        0.000   0.000   0.000   0.000
   26        0.000   0.000   0.000   0.000
   27        0.000  -0.000   0.000  -0.000
   28        0.000   0.000   0.000   0.000
   29        0.000   0.000   0.000   0.000
   30        0.000   0.000   0.000   0.000
   31        0.000   0.000   0.000   0.000
   32        0.000   0.000   0.000   0.000
   33        0.000   0.000   0.000   0.000
   34        0.000   0.000   0.000   0.000
   35        0.000   0.000   0.000   0.000
   36        0.000   0.000   0.000   0.000
   37        0.000   0.000   0.000   0.000
   38        0.000   0.000   0.000   0.000
   39        0.000   0.000   0.000   0.000
   40        0.000   0.000   0.000   0.000
   41        0.000   0.000   0.000   0.000
   42        0.000   0.000   0.000   0.000
   43        0.000   0.000   0.000   0.000
   44        0.000   0.000   0.000   0.000
   45        0.000   0.000   0.000   0.000
   46        0.000   0.000   0.000   0.000
   47        0.000   0.000   0.000   0.000
   48        0.000   0.000   0.000   0.000
   49        0.000   0.000   0.000   0.000
   50        0.000   0.000   0.000   0.000
   51        0.000   0.000   0.000   0.000
   52        0.000   0.000   0.000   0.000
   53        0.000   0.000   0.000   0.000
   54        0.000   0.000   0.000   0.000
   55        0.000   0.000   0.000   0.000
   56        0.000   0.000   0.000   0.000
   57        0.000   0.000   0.000   0.000
   58        0.000   0.000   0.000   0.000
   59        0.000   0.000   0.000   0.000
   60        0.000   0.000   0.000   0.000
   61        0.000   0.000   0.000   0.000
   62        0.000   0.000   0.000   0.000
   63        0.000   0.000   0.000   0.000
   64        0.000   0.000   0.000   0.000
   65        0.000  -0.000   0.000  -0.000
   66        0.000   0.000   0.000   0.000
   67       -0.000  -0.000   0.000  -0.000
   68       -0.000  -0.000   0.000  -0.000
   69       -0.000  -0.000   0.000  -0.000
   70       -0.000  -0.000   0.000  -0.000
   71       -0.000  -0.000   0.000  -0.000
   72       -0.000  -0.000   0.000  -0.000
   73       -0.000  -0.000   0.000  -0.000
   74       -0.000  -0.000   0.000  -0.000
   75       -0.000  -0.000   0.000  -0.000
   76        0.000  -0.000   0.000  -0.000
   77       -0.000  -0.000   0.000  -0.000
   78       -0.000  -0.000   0.000  -0.000
   79       -0.000  -0.000   0.000  -0.000
   80        0.000  -0.000   0.000  -0.000
   81       -0.000  -0.000   0.000  -0.000
   82       -0.000  -0.000   0.000  -0.000
   83        0.000   0.000   0.000   0.000
   84       -0.000  -0.000   0.000  -0.000
   85       -0.000  -0.000   0.000  -0.000
   86       -0.000  -0.000   0.000  -0.000
   87       -0.000  -0.000   0.000  -0.000
   88       -0.000  -0.000   0.000  -0.000
   89        0.000   0.000   0.000   0.000
   90       -0.000  -0.000   0.000  -0.000
   91       -0.000  -0.000   0.000  -0.000
   92       -0.000  -0.000   0.000  -0.000
   93       -0.000  -0.000   0.000  -0.000
   94       -0.000  -0.000   0.000  -0.000
   95       -0.000  -0.000   0.000  -0.000
   96       -0.000  -0.000   0.000  -0.000
   97        0.000  -0.000   0.000  -0.000
   98       -0.000  -0.000   0.000  -0.000
   99       -0.000  -0.000   0.000  -0.000
  100        0.000   0.000   0.000   0.000
  101       -0.000  -0.000   0.000  -0.000
  102       -0.000  -0.000   0.000  -0.000
  103       -0.000  -0.000   0.000  -0.000
  104       -0.000  -0.000   0.000  -0.000
  105       -0.000  -0.000   0.000  -0.000
  106       -0.000  -0.000   0.000  -0.000
  107        0.000  -0.000   0.000  -0.000
  108       -0.000  -0.000   0.000  -0.000
  109       -0.000  -0.000   0.000  -0.000
  110       -0.000  -0.000   0.000  -0.000
  111       -0.000  -0.000   0.000  -0.000
  112       -0.000  -0.000   0.000  -0.000
  113        0.000  -0.000   0.000  -0.000
  114       -0.000  -0.000   0.000  -0.000
  115       -0.000  -0.000   0.000  -0.000
  116       -0.000  -0.000   0.000  -0.000
  117       -0.000  -0.000   0.000  -0.000
  118       -0.000  -0.000   0.000  -0.000
  119       -0.000  -0.000   0.000  -0.000
  120       -0.000  -0.000   0.000  -0.000
  121       -0.000  -0.000   0.000  -0.000
  122       -0.000  -0.000   0.000  -0.000
  123        0.000  -0.000   0.000  -0.000
  124       -0.000  -0.000   0.000  -0.000
  125       -0.000  -0.000   0.000  -0.000
  126       -0.000  -0.000   0.000  -0.000
  127       -0.000  -0.000   0.000  -0.000
  128       -0.000  -0.000   0.000  -0.000
  129        0.004   0.011   0.000   0.015
  130        0.070   0.377   0.000   0.447
  131       -0.000   0.000   0.000   0.000
  132       -0.000  -0.000   0.000  -0.001
  133        0.001   0.030   0.000   0.031
  134       -0.000  -0.000   0.000  -0.001
  135        0.003   0.077   0.000   0.080
  136        0.003   0.077   0.000   0.080
  137        0.000   0.000   0.000   0.000
  138        0.000   0.000   0.000   0.000
--------------------------------------------------
tot          0.081   0.570   0.000   0.652
 

 total amount of memory used by VASP MPI-rank0  2733400. kBytes
=======================================================================

   base      :      30000. kBytes
   nonlr-proj:      63773. kBytes
   fftplans  :     108234. kBytes
   grid      :    1287382. kBytes
   one-center:        847. kBytes
   wavefun   :    1243164. kBytes
 
  
  
 General timing and accounting informations for this job:
 ========================================================
  
                  Total CPU time used (sec):     8463.373
                            User time (sec):     7472.673
                          System time (sec):      990.700
                         Elapsed time (sec):     6953.635
  
                   Maximum memory used (kb):     4936908.
                   Average memory used (kb):           0.
  
                          Minor page faults:     36539193
                          Major page faults:            0
                 Voluntary context switches:        60892
