 vasp.5.4.4.18Apr17-6-g9f103f2a35 (build Jun 11 2020 13:42:08) complex          
  
 executed on             LinuxIFC date 2021.02.03  11:15:50
 running on   48 total cores
 distrk:  each k-point on   16 cores,    3 groups
 distr:  one band on NCORES_PER_BAND=   1 cores,   16 groups


--------------------------------------------------------------------------------------------------------


 INCAR:
 POTCAR:    PAW_PBE B 06Sep2000                   
 POTCAR:    PAW_PBE N 08Apr2002                   
 POTCAR:    PAW_PBE C 08Apr2002                   
 POTCAR:    PAW_PBE F 08Apr2002                   
 POTCAR:    PAW_PBE O 08Apr2002                   

 ----------------------------------------------------------------------------- 
|                                                                             |
|           W    W    AA    RRRRR   N    N  II  N    N   GGGG   !!!           |
|           W    W   A  A   R    R  NN   N  II  NN   N  G    G  !!!           |
|           W    W  A    A  R    R  N N  N  II  N N  N  G       !!!           |
|           W WW W  AAAAAA  RRRRR   N  N N  II  N  N N  G  GGG   !            |
|           WW  WW  A    A  R   R   N   NN  II  N   NN  G    G                |
|           W    W  A    A  R    R  N    N  II  N    N   GGGG   !!!           |
|                                                                             |
|      For optimal performance we recommend to set                            |
|        NCORE= 4 - approx SQRT( number of cores)                             |
|      NCORE specifies how many cores store one orbital (NPAR=cpu/NCORE).     |
|      This setting can  greatly improve the performance of VASP for DFT.     |
|      The default,   NCORE=1            might be grossly inefficient         |
|      on modern multi-core architectures or massively parallel machines.     |
|      Do your own testing !!!!                                               |
|      Unfortunately you need to use the default for GW and RPA calculations. |
|      (for HF NCORE is supported but not extensively tested yet)             |
|                                                                             |
 ----------------------------------------------------------------------------- 


 ----------------------------------------------------------------------------- 
|                                                                             |
|           W    W    AA    RRRRR   N    N  II  N    N   GGGG   !!!           |
|           W    W   A  A   R    R  NN   N  II  NN   N  G    G  !!!           |
|           W    W  A    A  R    R  N N  N  II  N N  N  G       !!!           |
|           W WW W  AAAAAA  RRRRR   N  N N  II  N  N N  G  GGG   !            |
|           WW  WW  A    A  R   R   N   NN  II  N   NN  G    G                |
|           W    W  A    A  R    R  N    N  II  N    N   GGGG   !!!           |
|                                                                             |
|      You have enabled k-point parallelism (KPAR>1).                         |
|      This developmental code was originally  written by Paul Kent at ORNL,  |
|      and carefully double checked in Vienna.                                |
|      GW as well as linear response parallelism added by Martijn Marsman     |
|      and Georg Kresse.                                                      |
|      Carefully verify results versus KPAR=1.                                |
|      Report problems to Paul Kent and Vienna.                               |
|                                                                             |
 ----------------------------------------------------------------------------- 

 POTCAR:    PAW_PBE B 06Sep2000                   
   VRHFIN =B: s2p1                                                              
   LEXCH  = PE                                                                  
   EATOM  =    71.1703 eV,    5.2309 Ry                                         
                                                                                
   TITEL  = PAW_PBE B 06Sep2000                                                 
   LULTRA =        F    use ultrasoft PP ?                                      
   IUNSCR =        1    unscreen: 0-lin 1-nonlin 2-no                           
   RPACOR =    1.200    partial core radius                                     
   POMASS =   10.811; ZVAL   =    3.000    mass and valenz                      
   RCORE  =    1.700    outmost cutoff radius                                   
   RWIGS  =    1.710; RWIGS  =    0.905    wigner-seitz radius (au A)           
   ENMAX  =  318.614; ENMIN  =  238.960 eV                                      
   ICORE  =        2    local potential                                         
   LCOR   =        T    correct aug charges                                     
   LPAW   =        T    paw PP                                                  
   EAUG   =  535.514                                                            
   DEXC   =    0.000                                                            
   RMAX   =    1.732    core radius for proj-oper                               
   RAUG   =    1.300    factor for augmentation sphere                          
   RDEP   =    1.757    radius for radial grids                                 
   RDEPT  =    1.436    core radius for aug-charge                              
                                                                                
   Atomic configuration                                                         
    4 entries                                                                   
     n  l   j            E        occ.                                          
     1  0  0.50      -180.5896   2.0000                                         
     2  0  0.50        -9.4431   2.0000                                         
     2  1  0.50        -3.6068   1.0000                                         
     3  2  1.50        -4.0817   0.0000                                         
   Description                                                                  
     l       E           TYP  RCUT    TYP  RCUT                                 
     0     -9.4430752     23  1.500                                             
     0      0.8675899     23  1.500                                             
     1     -3.6067955     23  1.700                                             
     1      6.1086146     23  1.700                                             
     2     -4.0817478      7  1.700                                             
  local pseudopotential read in
  partial core-charges read in
  partial kinetic energy density read in
  atomic valenz-charges read in
  non local Contribution for L=           0  read in
    real space projection operators read in
  non local Contribution for L=           0  read in
    real space projection operators read in
  non local Contribution for L=           1  read in
    real space projection operators read in
  non local Contribution for L=           1  read in
    real space projection operators read in
    PAW grid and wavefunctions read in
 
   number of l-projection  operators is LMAX  =           4
   number of lm-projection operators is LMMAX =           8
 
 POTCAR:    PAW_PBE N 08Apr2002                   
   VRHFIN =N: s2p3                                                              
   LEXCH  = PE                                                                  
   EATOM  =   264.5486 eV,   19.4438 Ry                                         
                                                                                
   TITEL  = PAW_PBE N 08Apr2002                                                 
   LULTRA =        F    use ultrasoft PP ?                                      
   IUNSCR =        1    unscreen: 0-lin 1-nonlin 2-no                           
   RPACOR =    1.200    partial core radius                                     
   POMASS =   14.001; ZVAL   =    5.000    mass and valenz                      
   RCORE  =    1.500    outmost cutoff radius                                   
   RWIGS  =    1.400; RWIGS  =    0.741    wigner-seitz radius (au A)           
   ENMAX  =  400.000; ENMIN  =  300.000 eV                                      
   ICORE  =        2    local potential                                         
   LCOR   =        T    correct aug charges                                     
   LPAW   =        T    paw PP                                                  
   EAUG   =  627.112                                                            
   DEXC   =    0.000                                                            
   RMAX   =    1.529    core radius for proj-oper                               
   RAUG   =    1.300    factor for augmentation sphere                          
   RDEP   =    1.514    radius for radial grids                                 
   RDEPT  =    1.338    core radius for aug-charge                              
                                                                                
   Atomic configuration                                                         
    4 entries                                                                   
     n  l   j            E        occ.                                          
     1  0  0.50      -384.7179   2.0000                                         
     2  0  0.50       -18.5828   2.0000                                         
     2  1  0.50        -7.0898   3.0000                                         
     3  2  1.50        -6.8029   0.0000                                         
   Description                                                                  
     l       E           TYP  RCUT    TYP  RCUT                                 
     0    -18.5828119     23  1.200                                             
     0    -13.5018863     23  1.200                                             
     1     -7.0897853     23  1.500                                             
     1      9.5240782     23  1.500                                             
     2     -6.8029130      7  1.500                                             
  local pseudopotential read in
  partial core-charges read in
  partial kinetic energy density read in
  atomic valenz-charges read in
  non local Contribution for L=           0  read in
    real space projection operators read in
  non local Contribution for L=           0  read in
    real space projection operators read in
  non local Contribution for L=           1  read in
    real space projection operators read in
  non local Contribution for L=           1  read in
    real space projection operators read in
    PAW grid and wavefunctions read in
 
   number of l-projection  operators is LMAX  =           4
   number of lm-projection operators is LMMAX =           8
 
 POTCAR:    PAW_PBE C 08Apr2002                   
   VRHFIN =C: s2p2                                                              
   LEXCH  = PE                                                                  
   EATOM  =   147.1560 eV,   10.8157 Ry                                         
                                                                                
   TITEL  = PAW_PBE C 08Apr2002                                                 
   LULTRA =        F    use ultrasoft PP ?                                      
   IUNSCR =        1    unscreen: 0-lin 1-nonlin 2-no                           
   RPACOR =    1.200    partial core radius                                     
   POMASS =   12.011; ZVAL   =    4.000    mass and valenz                      
   RCORE  =    1.500    outmost cutoff radius                                   
   RWIGS  =    1.630; RWIGS  =    0.863    wigner-seitz radius (au A)           
   ENMAX  =  400.000; ENMIN  =  300.000 eV                                      
   ICORE  =        2    local potential                                         
   LCOR   =        T    correct aug charges                                     
   LPAW   =        T    paw PP                                                  
   EAUG   =  644.873                                                            
   DEXC   =    0.000                                                            
   RMAX   =    1.529    core radius for proj-oper                               
   RAUG   =    1.300    factor for augmentation sphere                          
   RDEP   =    1.501    radius for radial grids                                 
   RDEPT  =    1.300    core radius for aug-charge                              
                                                                                
   Atomic configuration                                                         
    4 entries                                                                   
     n  l   j            E        occ.                                          
     1  0  0.50      -273.3789   2.0000                                         
     2  0  0.50       -13.7508   2.0000                                         
     2  1  0.50        -5.2854   2.0000                                         
     3  2  1.50        -5.4423   0.0000                                         
   Description                                                                  
     l       E           TYP  RCUT    TYP  RCUT                                 
     0    -13.7508458     23  1.200                                             
     0     -8.2022199     23  1.200                                             
     1     -5.2854383     23  1.500                                             
     1     34.0145650     23  1.500                                             
     2     -5.4423304      7  1.500                                             
  local pseudopotential read in
  partial core-charges read in
  partial kinetic energy density read in
  atomic valenz-charges read in
  non local Contribution for L=           0  read in
    real space projection operators read in
  non local Contribution for L=           0  read in
    real space projection operators read in
  non local Contribution for L=           1  read in
    real space projection operators read in
  non local Contribution for L=           1  read in
    real space projection operators read in
    PAW grid and wavefunctions read in
 
   number of l-projection  operators is LMAX  =           4
   number of lm-projection operators is LMMAX =           8
 
 POTCAR:    PAW_PBE F 08Apr2002                   
   VRHFIN =F: s2p5                                                              
   LEXCH  = PE                                                                  
   EATOM  =   659.6475 eV,   48.4827 Ry                                         
                                                                                
   TITEL  = PAW_PBE F 08Apr2002                                                 
   LULTRA =        F    use ultrasoft PP ?                                      
   IUNSCR =        1    unscreen: 0-lin 1-nonlin 2-no                           
   RPACOR =    1.200    partial core radius                                     
   POMASS =   18.998; ZVAL   =    7.000    mass and valenz                      
   RCORE  =    1.520    outmost cutoff radius                                   
   RWIGS  =    1.500; RWIGS  =    0.794    wigner-seitz radius (au A)           
   ENMAX  =  400.000; ENMIN  =  300.000 eV                                      
   ICORE  =        2    local potential                                         
   LCOR   =        T    correct aug charges                                     
   LPAW   =        T    paw PP                                                  
   EAUG   =  613.614                                                            
   RMAX   =    1.555    core radius for proj-oper                               
   RAUG   =    1.300    factor for augmentation sphere                          
   RDEP   =    1.539    radius for radial grids                                 
   RDEPT  =    1.299    core radius for aug-charge                              
                                                                                
   Atomic configuration                                                         
    4 entries                                                                   
     n  l   j            E        occ.                                          
     1  0  0.50      -663.3661   2.0000                                         
     2  0  0.50       -29.8995   2.0000                                         
     2  1  0.50       -11.1114   5.0000                                         
     3  2  1.50       -10.8847   0.0000                                         
   Description                                                                  
     l       E           TYP  RCUT    TYP  RCUT                                 
     0    -29.8995018     23  1.200                                             
     0     -9.5240782     23  1.200                                             
     1    -11.1113914     23  1.520                                             
     1      1.3605826     23  1.520                                             
     2    -10.8846608      7  1.500                                             
  local pseudopotential read in
  partial core-charges read in
  partial kinetic energy density read in
  atomic valenz-charges read in
  non local Contribution for L=           0  read in
    real space projection operators read in
  non local Contribution for L=           0  read in
    real space projection operators read in
  non local Contribution for L=           1  read in
    real space projection operators read in
  non local Contribution for L=           1  read in
    real space projection operators read in
    PAW grid and wavefunctions read in
 
   number of l-projection  operators is LMAX  =           4
   number of lm-projection operators is LMMAX =           8
 
 POTCAR:    PAW_PBE O 08Apr2002                   
   VRHFIN =O: s2p4                                                              
   LEXCH  = PE                                                                  
   EATOM  =   432.3788 eV,   31.7789 Ry                                         
                                                                                
   TITEL  = PAW_PBE O 08Apr2002                                                 
   LULTRA =        F    use ultrasoft PP ?                                      
   IUNSCR =        1    unscreen: 0-lin 1-nonlin 2-no                           
   RPACOR =    1.200    partial core radius                                     
   POMASS =   16.000; ZVAL   =    6.000    mass and valenz                      
   RCORE  =    1.520    outmost cutoff radius                                   
   RWIGS  =    1.550; RWIGS  =    0.820    wigner-seitz radius (au A)           
   ENMAX  =  400.000; ENMIN  =  300.000 eV                                      
   ICORE  =        2    local potential                                         
   LCOR   =        T    correct aug charges                                     
   LPAW   =        T    paw PP                                                  
   EAUG   =  605.392                                                            
   DEXC   =    0.000                                                            
   RMAX   =    1.553    core radius for proj-oper                               
   RAUG   =    1.300    factor for augmentation sphere                          
   RDEP   =    1.550    radius for radial grids                                 
   RDEPT  =    1.329    core radius for aug-charge                              
                                                                                
   Atomic configuration                                                         
    4 entries                                                                   
     n  l   j            E        occ.                                          
     1  0  0.50      -514.6923   2.0000                                         
     2  0  0.50       -23.9615   2.0000                                         
     2  1  0.50        -9.0305   4.0000                                         
     3  2  1.50        -9.5241   0.0000                                         
   Description                                                                  
     l       E           TYP  RCUT    TYP  RCUT                                 
     0    -23.9615318     23  1.200                                             
     0     -9.5240782     23  1.200                                             
     1     -9.0304911     23  1.520                                             
     1      8.1634956     23  1.520                                             
     2     -9.5240782      7  1.500                                             
  local pseudopotential read in
  partial core-charges read in
  partial kinetic energy density read in
  kinetic energy density of atom read in
  atomic valenz-charges read in
  non local Contribution for L=           0  read in
    real space projection operators read in
  non local Contribution for L=           0  read in
    real space projection operators read in
  non local Contribution for L=           1  read in
    real space projection operators read in
  non local Contribution for L=           1  read in
    real space projection operators read in
    PAW grid and wavefunctions read in
 
   number of l-projection  operators is LMAX  =           4
   number of lm-projection operators is LMMAX =           8
 
 Optimization of the real space projectors (new method)

 maximal supplied QI-value         = 22.11
 optimisation between [QCUT,QGAM] = [ 11.94, 23.88] = [ 39.92,159.67] Ry 
 Optimized for a Real-space Cutoff    1.18 Angstroem

   l    n(q)    QCUT    max X(q) W(low)/X(q) W(high)/X(q)  e(spline) 
   0      8    11.939    53.033    0.11E-03    0.34E-03    0.60E-07
   0      8    11.939    34.740    0.11E-03    0.34E-03    0.59E-07
   1      8    11.939    30.949    0.22E-03    0.20E-03    0.17E-06
   1      8    11.939    19.518    0.20E-03    0.18E-03    0.16E-06
 Optimization of the real space projectors (new method)

 maximal supplied QI-value         = 25.13
 optimisation between [QCUT,QGAM] = [ 11.81, 23.88] = [ 39.08,159.64] Ry 
 Optimized for a Real-space Cutoff    1.41 Angstroem

   l    n(q)    QCUT    max X(q) W(low)/X(q) W(high)/X(q)  e(spline) 
   0     10    11.813    79.467    0.48E-04    0.30E-04    0.67E-06
   0     10    11.813    66.151    0.47E-04    0.30E-04    0.67E-06
   1     10    11.813    20.169    0.11E-03    0.17E-03    0.11E-05
   1     10    11.813    14.454    0.11E-03    0.17E-03    0.11E-05
 Optimization of the real space projectors (new method)

 maximal supplied QI-value         = 25.13
 optimisation between [QCUT,QGAM] = [ 11.81, 23.88] = [ 39.08,159.64] Ry 
 Optimized for a Real-space Cutoff    1.18 Angstroem

   l    n(q)    QCUT    max X(q) W(low)/X(q) W(high)/X(q)  e(spline) 
   0      8    11.813   115.676    0.10E-03    0.16E-03    0.35E-06
   0      8    11.813    87.132    0.10E-03    0.16E-03    0.35E-06
   1      8    11.813     4.429    0.16E-03    0.13E-04    0.22E-06
   1      8    11.813     2.733    0.13E-03    0.10E-04    0.18E-06
 Optimization of the real space projectors (new method)

 maximal supplied QI-value         = 24.76
 optimisation between [QCUT,QGAM] = [ 11.88, 24.01] = [ 39.54,161.47] Ry 
 Optimized for a Real-space Cutoff    1.18 Angstroem

   l    n(q)    QCUT    max X(q) W(low)/X(q) W(high)/X(q)  e(spline) 
   0      8    11.883    14.049    0.56E-04    0.86E-04    0.22E-06
   0      8    11.883     8.945    0.81E-04    0.11E-03    0.30E-06
   1      8    11.883     7.086    0.16E-03    0.15E-04    0.31E-06
   1      8    11.883     6.747    0.15E-03    0.14E-04    0.28E-06
 Optimization of the real space projectors (new method)

 maximal supplied QI-value         = 24.76
 optimisation between [QCUT,QGAM] = [ 11.88, 24.01] = [ 39.54,161.47] Ry 
 Optimized for a Real-space Cutoff    1.18 Angstroem

   l    n(q)    QCUT    max X(q) W(low)/X(q) W(high)/X(q)  e(spline) 
   0      8    11.883    20.381    0.86E-04    0.11E-03    0.31E-06
   0      8    11.883    15.268    0.94E-04    0.12E-03    0.33E-06
   1      8    11.883     5.964    0.19E-03    0.18E-04    0.33E-06
   1      8    11.883     5.382    0.17E-03    0.20E-04    0.29E-06
  PAW_PBE B 06Sep2000                   :
 energy of atom  1       EATOM=  -71.1703
 kinetic energy error for atom=    0.0009 (will be added to EATOM!!)
  PAW_PBE N 08Apr2002                   :
 energy of atom  2       EATOM= -264.5486
 kinetic energy error for atom=    0.0116 (will be added to EATOM!!)
  PAW_PBE C 08Apr2002                   :
 energy of atom  3       EATOM= -147.1560
 kinetic energy error for atom=    0.0066 (will be added to EATOM!!)
  PAW_PBE F 08Apr2002                   :
 energy of atom  4       EATOM= -659.6475
 kinetic energy error for atom=    0.0296 (will be added to EATOM!!)
  PAW_PBE O 08Apr2002                   :
 energy of atom  5       EATOM= -432.3788
 kinetic energy error for atom=    0.0194 (will be added to EATOM!!)
 
 
 POSCAR: B N C F O                               
  positions in direct lattice
  velocities in cartesian coordinates

 METAGGA = SCAN     LMAXTAU =  6    LMIXTAU =  F

 exchange correlation table for  LEXCH =        8
   RHO(1)=    0.500       N(1)  =     2000
   RHO(2)=  100.500       N(2)  =     4000

 VTST: version 3.1, (03/28/14)

 CHAIN: initializing optimizer
 
 OPT: Using VASP Conjugate-Gradient optimizer
 CHAIN: Read ICHAIN            0
 
 POSCAR: B N C F O                               
  positions in direct lattice
  velocities in cartesian coordinates
 


--------------------------------------------------------------------------------------------------------


 ion  position               nearest neighbor table
   1  0.111  0.056  0.500-  42 1.45  37 1.45  43 1.45
   2  0.111  0.222  0.500-  37 1.45  38 1.45  44 1.45
   3  0.111  0.389  0.500-  39 1.45  38 1.45  45 1.45
   4  0.111  0.556  0.500-  46 1.45  39 1.45  40 1.45
   5  0.111  0.722  0.500-  40 1.45  47 1.45  41 1.45
   6  0.111  0.889  0.500-  41 1.45  48 1.45  42 1.45
   7  0.278  0.056  0.500-  48 1.45  49 1.45  43 1.45
   8  0.278  0.222  0.500-  43 1.45  50 1.45  44 1.45
   9  0.278  0.389  0.500-  45 1.45  44 1.45  51 1.45
  10  0.278  0.556  0.500-  46 1.45  52 1.45  45 1.45
  11  0.278  0.722  0.500-  53 1.45  47 1.45  46 1.45
  12  0.278  0.889  0.500-  47 1.45  54 1.45  48 1.45
  13  0.444  0.056  0.500-  54 1.45  55 1.45  49 1.45
  14  0.444  0.222  0.500-  49 1.45  56 1.45  50 1.45
  15  0.444  0.389  0.500-  57 1.45  50 1.45  51 1.45
  16  0.444  0.556  0.500-  58 1.45  52 1.45  51 1.45
  17  0.444  0.722  0.500-  59 1.45  53 1.45  52 1.45
  18  0.444  0.889  0.500-  60 1.45  54 1.45  53 1.45
  19  0.611  0.056  0.500-  61 1.45  60 1.45  55 1.45
  20  0.611  0.222  0.500-  55 1.45  62 1.45  56 1.45
  21  0.611  0.389  0.500-  63 1.45  56 1.45  57 1.45
  22  0.611  0.556  0.500-  64 1.45  58 1.45  57 1.45
  23  0.611  0.722  0.500-  59 1.45  65 1.45  58 1.45
  24  0.611  0.889  0.500-  66 1.45  60 1.45  59 1.45
  25  0.778  0.056  0.500-  61 1.45  67 1.45  66 1.45
  26  0.778  0.222  0.500-  61 1.45  68 1.45  62 1.45
  27  0.778  0.389  0.500-  69 1.45  62 1.45  63 1.45
  28  0.778  0.556  0.500-  70 1.45  64 1.45  63 1.45
  29  0.778  0.722  0.500-  65 1.45  71 1.45  64 1.45
  30  0.778  0.889  0.500-  72 1.45  66 1.45  65 1.45
  31  0.944  0.056  0.500-  72 1.45  67 1.45  37 1.45
  32  0.944  0.222  0.500-  67 1.45  68 1.45  38 1.45
  33  0.944  0.389  0.500-  68 1.45  69 1.45  39 1.45
  34  0.944  0.556  0.500-  69 1.45  40 1.45  70 1.45
  35  0.944  0.722  0.500-  70 1.45  41 1.45  71 1.45
  36  0.944  0.889  0.500-  71 1.45  42 1.45  72 1.45
  37  0.056  0.111  0.500-   2 1.45   1 1.45  31 1.45
  38  0.056  0.278  0.500-   3 1.45   2 1.45  32 1.45
  39  0.056  0.444  0.500-   3 1.45   4 1.45  33 1.45
  40  0.056  0.611  0.500-   5 1.45  34 1.45   4 1.45
  41  0.056  0.778  0.500-   6 1.45  35 1.45   5 1.45
  42  0.056  0.944  0.500-   1 1.45  36 1.45   6 1.45
  43  0.222  0.111  0.500-   8 1.45   7 1.45   1 1.45
  44  0.222  0.278  0.500-   9 1.45   8 1.45   2 1.45
  45  0.222  0.444  0.500-   9 1.45  10 1.45   3 1.45
  46  0.222  0.611  0.500-  10 1.45   4 1.45  11 1.45
  47  0.222  0.778  0.500-  12 1.45  11 1.45   5 1.45
  48  0.222  0.944  0.500-   7 1.45  12 1.45   6 1.45
  49  0.389  0.111  0.500-  14 1.45   7 1.45  13 1.45
  50  0.389  0.278  0.500-  15 1.45   8 1.45  14 1.45
  51  0.389  0.444  0.500-   9 1.45  15 1.45  16 1.45
  52  0.389  0.611  0.500-  16 1.45  10 1.45  17 1.45
  53  0.389  0.778  0.500-  17 1.45  11 1.45  18 1.45
  54  0.389  0.944  0.500-  13 1.45  12 1.45  18 1.45
  55  0.556  0.111  0.500-  20 1.45  13 1.45  19 1.45
  56  0.556  0.278  0.500-  14 1.45  21 1.45  20 1.45
  57  0.556  0.444  0.500-  15 1.45  21 1.45  22 1.45
  58  0.556  0.611  0.500-  16 1.45  22 1.45  23 1.45
  59  0.556  0.778  0.500-  23 1.45  17 1.45  24 1.45
  60  0.556  0.944  0.500-  18 1.45  19 1.45  24 1.45
  61  0.722  0.111  0.500-  26 1.45  19 1.45  25 1.45
  62  0.722  0.278  0.500-  20 1.45  27 1.45  26 1.45
  63  0.722  0.444  0.500-  21 1.45  28 1.45  27 1.45
  64  0.722  0.611  0.500-  22 1.45  28 1.45  29 1.45
  65  0.722  0.778  0.500-  23 1.45  29 1.45  30 1.45
  66  0.722  0.944  0.500-  24 1.45  30 1.45  25 1.45
  67  0.889  0.111  0.500-  32 1.45  25 1.45  31 1.45
  68  0.889  0.278  0.500-  32 1.45  33 1.45  26 1.45
  69  0.889  0.444  0.500-  27 1.45  34 1.45  33 1.45
  70  0.889  0.611  0.500-  35 1.45  28 1.45  34 1.45
  71  0.889  0.778  0.500-  36 1.45  29 1.45  35 1.45
  72  0.889  0.944  0.500-  31 1.45  30 1.45  36 1.45
  73  0.374  0.314  0.673-  76 1.33  78 1.34  77 1.34  74 1.54
  74  0.355  0.311  0.630-  80 1.33  79 1.33  73 1.54  75 1.85
  75  0.343  0.424  0.617-  82 1.20  81 1.21  74 1.85
  76  0.462  0.396  0.682-  73 1.33
  77  0.378  0.230  0.683-  73 1.34
  78  0.297  0.314  0.692-  73 1.34
  79  0.434  0.318  0.610-  74 1.33
  80  0.269  0.227  0.620-  74 1.33
  81  0.429  0.494  0.613-  75 1.21
  82  0.252  0.394  0.616-  75 1.20
 

IMPORTANT INFORMATION: All symmetrisations will be switched off!
NOSYMM: (Re-)initialisation of all symmetry stuff for point group C_1.

 
 
 KPOINTS: K-Point Grid                            

Automatic generation of k-mesh.
Space group operators:
 irot       det(A)        alpha          n_x          n_y          n_z        tau_x        tau_y        tau_z
    1     1.000000     0.000000     1.000000     0.000000     0.000000     0.000000     0.000000     0.000000
 
 Subroutine IBZKPT returns following result:
 ===========================================
 
 Found      5 irreducible k-points:
 
 Following reciprocal coordinates:
            Coordinates               Weight
  0.000000  0.000000  0.000000      1.000000
  0.333333  0.000000  0.000000      2.000000
  0.000000  0.333333  0.000000      2.000000
  0.333333  0.333333  0.000000      2.000000
 -0.333333  0.333333  0.000000      2.000000
 
 Following cartesian coordinates:
            Coordinates               Weight
  0.000000  0.000000  0.000000      1.000000
  0.022114 -0.012768  0.000000      2.000000
  0.022114  0.012768  0.000000      2.000000
  0.044229  0.000000  0.000000      2.000000
  0.000000  0.025535  0.000000      2.000000
 


--------------------------------------------------------------------------------------------------------




 Dimension of arrays:
   k-points           NKPTS =      5   k-points in BZ     NKDIM =      5   number of bands    NBANDS=    256
   number of dos      NEDOS =   1200   number of ions     NIONS =     82
   non local maximal  LDIM  =      4   non local SUM 2l+1 LMDIM =      8
   total plane-waves  NPLWV = ******
   max r-space proj   IRMAX =   6598   max aug-charges    IRDMAX=   8974
   dimension x,y,z NGX =   120 NGY =  120 NGZ =  270
   dimension x,y,z NGXF=   240 NGYF=  240 NGZF=  540
   support grid    NGXF=   240 NGYF=  240 NGZF=  540
   ions per type =              36  36   3   5   2
   NGX,Y,Z   is equivalent  to a cutoff of  13.24, 13.24, 12.78 a.u.
   NGXF,Y,Z  is equivalent  to a cutoff of  26.47, 26.47, 25.57 a.u.

 SYSTEM =  hBN                                     
 POSCAR =  B N C F O                               

 Startparameter for this run:
   NWRITE =      2    write-flag & timer
   PREC   = accura    normal or accurate (medium, high low for compatibility)
   ISTART =      1    job   : 0-new  1-cont  2-samecut
   ICHARG =      0    charge: 1-file 2-atom 10-const
   ISPIN  =      2    spin polarized calculation?
   LNONCOLLINEAR =      F non collinear calculations
   LSORBIT =      F    spin-orbit coupling
   INIWAV =      1    electr: 0-lowe 1-rand  2-diag
   LASPH  =      T    aspherical Exc in radial PAW
   METAGGA=      F    non-selfconsistent MetaGGA calc.

 Electronic Relaxation 1
   ENCUT  =  550.0 eV  40.42 Ry    6.36 a.u.  28.82 28.82 67.15*2*pi/ulx,y,z
   ENINI  =  550.0     initial cutoff
   ENAUG  =  644.9 eV  augmentation charge cutoff
   NELM   =    100;   NELMIN=  2; NELMDL=  0     # of ELM steps 
   EDIFF  = 0.1E-04   stopping-criterion for ELM
   LREAL  =      T    real-space projection
   NLSPLINE    = F    spline interpolate recip. space projectors
   LCOMPAT=      F    compatible to vasp.4.4
   GGA_COMPAT  = T    GGA compatible to vasp.4.4-vasp.4.6
   LMAXPAW     = -100 max onsite density
   LMAXMIX     =    2 max onsite mixed and CHGCAR
   VOSKOWN=      0    Vosko Wilk Nusair interpolation
   ROPT   =   -0.00025  -0.00025  -0.00025  -0.00025
   ROPT   =   -0.00025
 Ionic relaxation
   EDIFFG = -.5E-01   stopping-criterion for IOM
   NSW    =      0    number of steps for IOM
   NBLOCK =      1;   KBLOCK =      1    inner block; outer block 
   IBRION =     -1    ionic relax: 0-MD 1-quasi-New 2-CG
   NFREE  =      1    steps in history (QN), initial steepest desc. (CG)
   ISIF   =      2    stress and relaxation
   IWAVPR =     10    prediction:  0-non 1-charg 2-wave 3-comb
   ISYM   =      0    0-nonsym 1-usesym 2-fastsym
   LCORR  =      T    Harris-Foulkes like correction to forces

   POTIM  = 0.5000    time-step for ionic-motion
   TEIN   =    0.0    initial temperature
   TEBEG  =    0.0;   TEEND  =   0.0 temperature during run
   SMASS  =  -3.00    Nose mass-parameter (am)
   estimated Nose-frequenzy (Omega)   =  0.10E-29 period in steps =****** mass=  -0.519E-26a.u.
   SCALEE = 1.0000    scale energy and forces
   NPACO  =    256;   APACO  = 16.0  distance and # of slots for P.C.
   PSTRESS=    0.0 pullay stress

  Mass of Ions in am
   POMASS =  10.81 14.00 12.01 19.00 16.00
  Ionic Valenz
   ZVAL   =   3.00  5.00  4.00  7.00  6.00
  Atomic Wigner-Seitz radii
   RWIGS  =  -1.00 -1.00 -1.00 -1.00 -1.00
  virtual crystal weights 
   VCA    =   1.00  1.00  1.00  1.00  1.00
   NELECT =     346.4000    total number of electrons
   NUPDOWN=      -1.0000    fix difference up-down

 DOS related values:
   EMIN   = -10.00;   EMAX   =  5.00  energy-range for DOS
   EFERMI =   0.00
   ISMEAR =     0;   SIGMA  =   0.05  broadening in eV -4-tet -1-fermi 0-gaus

 Electronic relaxation 2 (details)
   IALGO  =     68    algorithm
   LDIAG  =      T    sub-space diagonalisation (order eigenvalues)
   LSUBROT=      F    optimize rotation matrix (better conditioning)
   TURBO    =      0    0=normal 1=particle mesh
   IRESTART =      0    0=no restart 2=restart with 2 vectors
   NREBOOT  =      0    no. of reboots
   NMIN     =      0    reboot dimension
   EREF     =   0.00    reference energy to select bands
   IMIX   =      4    mixing-type and parameters
     AMIX     =   0.40;   BMIX     =  1.00
     AMIX_MAG =   1.60;   BMIX_MAG =  1.00
     AMIN     =   0.10
     WC   =   100.;   INIMIX=   1;  MIXPRE=   1;  MAXMIX= -45

 Intra band minimization:
   WEIMIN = 0.0000     energy-eigenvalue tresh-hold
   EBREAK =  0.98E-08  absolut break condition
   DEPER  =   0.30     relativ break condition  

   TIME   =   0.40     timestep for ELM

  volume/ion in A,a.u.               =      84.26       568.60
  Fermi-wavevector in a.u.,A,eV,Ry     =   0.603659  1.140751  4.958028  0.364405
  Thomas-Fermi vector in A             =   1.656723
 
 Write flags
   LWAVE        =      T    write WAVECAR
   LDOWNSAMPLE  =      F    k-point downsampling of WAVECAR
   LCHARG       =      T    write CHGCAR
   LVTOT        =      F    write LOCPOT, total local potential
   LVHAR        =      T    write LOCPOT, Hartree potential only
   LELF         =      F    write electronic localiz. function (ELF)
   LORBIT       =     11    0 simple, 1 ext, 2 COOP (PROOUT), +10 PAW based schemes


 Dipole corrections
   LMONO  =      F    monopole corrections only (constant potential shift)
   LDIPOL =      F    correct potential (dipole corrections)
   IDIPOL =      0    1-x, 2-y, 3-z, 4-all directions 
   EPSILON=  1.0000000 bulk dielectric constant

 Exchange correlation treatment:
   GGA     =    --    GGA type
   LEXCH   =     8    internal setting for exchange type
   VOSKOWN=      0    Vosko Wilk Nusair interpolation
   LHFCALC =     F    Hartree Fock is set to
   LHFONE  =     F    Hartree Fock one center treatment
   AEXX    =    0.0000 exact exchange contribution

 Linear response parameters
   LEPSILON=     F    determine dielectric tensor
   LRPA    =     F    only Hartree local field effects (RPA)
   LNABLA  =     F    use nabla operator in PAW spheres
   LVEL    =     F    velocity operator in full k-point grid
   LINTERFAST=   F  fast interpolation
   KINTER  =     0    interpolate to denser k-point grid
   CSHIFT  =0.1000    complex shift for real part using Kramers Kronig
   OMEGAMAX=  -1.0    maximum frequency
   DEG_THRESHOLD= 0.2000000E-02 threshold for treating states as degnerate
   RTIME   =   -0.100 relaxation time in fs
  (WPLASMAI=    0.000 imaginary part of plasma frequency in eV, 0.658/RTIME)
   DFIELD  = 0.0000000 0.0000000 0.0000000 field for delta impulse in time
 
 Orbital magnetization related:
   ORBITALMAG=     F  switch on orbital magnetization
   LCHIMAG   =     F  perturbation theory with respect to B field
   DQ        =  0.001000  dq finite difference perturbation B field
   LLRAUG    =     F  two centre corrections for induced B field

 Solvation model:
   LSOL    =     T         switch on solvation model
   EB_K    = 78.400000     relative permittivity of the bulk solvent
   SIGMA_K =  0.600000     width of the dielectric cavity
   NC_K    =  0.002500     cutoff charge density
   TAU     =  0.000000     cavity surface tension
   LAMBDA_D_K    =  3.040000     Debye length in Angstroms
   LRHOB     =     F     write boundcharge  density
   LRHOION     =     F     write ioniccharge density



--------------------------------------------------------------------------------------------------------


 Static calculation
 charge density and potential will be updated during run
 spin polarized calculation
 RMM-DIIS sequential band-by-band and
  variant of blocked Davidson during initial phase
 perform sub-space diagonalisation
    before iterative eigenvector-optimisation
 modified Broyden-mixing scheme, WC =      100.0
 initial mixing is a Kerker type mixing with AMIX =  0.4000 and BMIX =      1.0000
 Hartree-type preconditioning will be used
 using additional bands           82
 real space projection scheme for non local part
 use partial core corrections
 calculate Harris-corrections to forces 
   (improved forces if not selfconsistent)
 use gradient corrections 
 use of overlap-Matrix (Vanderbilt PP)
 Gauss-broadening in eV      SIGMA  =   0.05


--------------------------------------------------------------------------------------------------------


  energy-cutoff  :      550.00
  volume of cell :     6909.18
      direct lattice vectors                 reciprocal lattice vectors
     7.536550057-13.053746059  0.000000000     0.066343353 -0.038303181  0.000000000
     7.536550057 13.053746059  0.000000000     0.066343353  0.038303181  0.000000000
     0.000000000  0.000000000 35.114664386     0.000000000  0.000000000  0.028478131

  length of vectors
    15.073150730 15.073150730 35.114664386     0.076606620  0.076606620  0.028478131


 
 old parameters found on file WAVECAR:
  energy-cutoff  :      550.00
  volume of cell :     6909.18
      direct lattice vectors                 reciprocal lattice vectors
     7.536550057-13.053746059  0.000000000     0.066343353 -0.038303181  0.000000000
     7.536550057 13.053746059  0.000000000     0.066343353  0.038303181  0.000000000
     0.000000000  0.000000000 35.114664386     0.000000000  0.000000000  0.028478131

  length of vectors

 
 k-points in units of 2pi/SCALE and weight: K-Point Grid                            
   0.00000000  0.00000000  0.00000000       0.111
   0.02211445 -0.01276773  0.00000000       0.222
   0.02211445  0.01276773  0.00000000       0.222
   0.04422890  0.00000000  0.00000000       0.222
   0.00000000  0.02553545  0.00000000       0.222
 
 k-points in reciprocal lattice and weights: K-Point Grid                            
   0.00000000  0.00000000  0.00000000       0.111
   0.33333333  0.00000000  0.00000000       0.222
   0.00000000  0.33333333  0.00000000       0.222
   0.33333333  0.33333333  0.00000000       0.222
  -0.33333333  0.33333333  0.00000000       0.222
 
 position of ions in fractional coordinates (direct lattice) 
   0.11109333  0.05556031  0.50001596
   0.11108966  0.22222132  0.49998185
   0.11109830  0.38889899  0.49996038
   0.11111191  0.55557524  0.49997183
   0.11111392  0.72224509  0.50002030
   0.11110641  0.88890091  0.50004120
   0.27777594  0.05556052  0.50003718
   0.27776439  0.22220613  0.49997354
   0.27776775  0.38889303  0.49995046
   0.27777477  0.55557047  0.49995533
   0.27777994  0.72224084  0.49998013
   0.27777994  0.88890363  0.50003527
   0.44444615  0.05556344  0.50004757
   0.44445420  0.22222966  0.50004657
   0.44447323  0.38890719  0.49998354
   0.44445487  0.55558805  0.49998663
   0.44444789  0.72224151  0.49996592
   0.44444632  0.88890772  0.50000846
   0.61111449  0.05557798  0.50003226
   0.61111669  0.22223686  0.50004367
   0.61112721  0.38890951  0.50001350
   0.61111875  0.55558220  0.49997599
   0.61111041  0.72224248  0.49996919
   0.61110742  0.88890818  0.49999732
   0.77777340  0.05557897  0.50002345
   0.77778117  0.22224948  0.50002453
   0.77778438  0.38891647  0.50002302
   0.77777935  0.55558517  0.50000466
   0.77777452  0.72224798  0.49999743
   0.77776991  0.88891141  0.50001294
   0.94443199  0.05557114  0.50001938
   0.94443362  0.22224050  0.49999447
   0.94444631  0.38891522  0.49999426
   0.94444872  0.55558574  0.50001688
   0.94444102  0.72224377  0.50003040
   0.94443580  0.88890626  0.50003455
   0.05554626  0.11112702  0.50000465
   0.05555077  0.27779074  0.49996689
   0.05556178  0.44446158  0.49996206
   0.05556011  0.61113687  0.50000293
   0.05555273  0.77779661  0.50003920
   0.05554810  0.94445733  0.50004000
   0.22221414  0.11111496  0.50000482
   0.22221991  0.27778364  0.49998267
   0.22222301  0.44445002  0.49994959
   0.22222464  0.61112564  0.49995344
   0.22222609  0.77779837  0.50001435
   0.22222096  0.94445789  0.50004808
   0.38888965  0.11112741  0.50005774
   0.38888590  0.27779343  0.50003552
   0.38888125  0.44444272  0.50004005
   0.38888436  0.61111715  0.49996340
   0.38889134  0.77779342  0.49997500
   0.38889036  0.94446267  0.50003694
   0.55555617  0.11113281  0.50004639
   0.55555713  0.27779850  0.50004868
   0.55556285  0.44446324  0.49998334
   0.55554807  0.61112134  0.49995857
   0.55555446  0.77779194  0.49996393
   0.55555548  0.94446703  0.50001448
   0.72222452  0.11114024  0.50003054
   0.72222558  0.27780685  0.50003339
   0.72222669  0.44447248  0.50001148
   0.72221975  0.61113588  0.49998121
   0.72221675  0.77779812  0.49998554
   0.72221625  0.94446791  0.50001581
   0.88888442  0.11113506  0.50001472
   0.88889247  0.27780538  0.50000246
   0.88889327  0.44447468  0.50001620
   0.88888750  0.61113801  0.50002220
   0.88888282  0.77780003  0.50002683
   0.88887958  0.94446511  0.50003154
   0.37351351  0.31358298  0.67285639
   0.35510749  0.31115391  0.62962030
   0.34257362  0.42373392  0.61694122
   0.46200600  0.39628797  0.68233562
   0.37756324  0.22960296  0.68275946
   0.29673694  0.31373724  0.69182779
   0.43353368  0.31761830  0.61015619
   0.26903117  0.22731093  0.61991014
   0.42901291  0.49363184  0.61315935
   0.25214793  0.39411231  0.61629805
 
 position of ions in cartesian coordinates  (Angst):
   1.25599348 -0.72491395 17.55789254
   2.51201493  1.45068444 17.55669472
   3.76825458  3.62633969 17.55594106
   5.02452108  5.80191150 17.55634302
   6.28065186  7.97755110 17.55804491
   7.53660520 10.15313188 17.55877883
   2.51220694 -2.90074359 17.55863774
   3.76805286 -0.72524344 17.55640316
   5.02432233  1.45060115 17.55559248
   6.28054811  3.62627441 17.55576365
   7.53670671  5.80187973 17.55663451
   8.79276912  7.97745343 17.55857069
   3.76834730 -5.07637613 17.55900245
   5.02449630 -2.90086280 17.55896733
   6.28081324 -0.72534492 17.55675405
   7.53687354  1.45070425 17.55686275
   8.79281306  3.62624748 17.55613535
  10.04888950  5.80188621 17.55762933
   5.02456115 -7.25183249 17.55846507
   6.28061074 -5.07633864 17.55886560
   7.53682678 -2.90077353 17.55780632
   8.79290012 -0.72495996 17.55648894
  10.04888080  1.45068990 17.55625039
  11.30494271  3.62634057 17.55723820
   6.28060188 -9.42734272 17.55815574
   7.53678105 -7.25176968 17.55819364
   8.79289933 -5.07618304 17.55814055
  10.04896843 -2.90046643 17.55749591
  11.30499468 -0.72482937 17.55724191
  12.56102717  1.45081293 17.55778650
   7.53657364-11.60296385 17.55801272
   8.79269786 -9.42732557 17.55713792
  10.04894592 -7.25176173 17.55713072
  11.30508483 -5.07611866 17.55792492
  12.56105338 -2.90050647 17.55839978
  13.81707415 -0.72486852 17.55854524
   1.25614153  0.72553723 17.55749564
   2.51224499  2.90106420 17.55616967
   3.76845110  5.07659931 17.55600006
   5.02459513  7.25235790 17.55743507
   6.28057901  9.42798815 17.55870859
   7.53659101 11.60359536 17.55873674
   2.51215145 -1.45026059 17.55750141
   3.76830176  0.72531475 17.55672364
   5.02441465  2.90089502 17.55556202
   6.28058610  5.07661481 17.55569716
   7.53673442  7.25229944 17.55783618
   8.79273356  9.42789747 17.55902048
   3.76840355 -3.62583771 17.55935969
   5.02446216 -1.45017293 17.55857940
   6.28038786  0.72528532 17.55873841
   7.53656140  2.90097041 17.55604688
   8.79277809  5.07662897 17.55645434
  10.04888183  7.25229982 17.55862919
   5.02453488 -5.80138976 17.55896125
   6.28062639 -3.62579069 17.55904165
   7.53674669 -1.45026613 17.55674705
   8.79266244  0.72543939 17.55587740
  10.04883191  2.90103171 17.55606576
  11.30499471  5.07675266 17.55784074
   6.28069527 -7.97693903 17.55840448
   7.53679453 -5.80132924 17.55850472
   8.79288674 -3.62573295 17.55773520
  10.04890146 -1.45006065 17.55667226
  11.30493720  0.72554513 17.55682453
  12.56104856  2.90121677 17.55788751
   7.53669689-10.15254272 17.55784923
   8.79287678 -7.97697568 17.55741873
  10.04899428 -5.80132749 17.55790099
  11.30501733 -3.62567121 17.55811180
  12.56103868 -1.45004654 17.55827439
  13.81709409  0.72559939 17.55843972
   5.17833706 -0.78231800 23.62712629
   5.02131241 -0.57375896 22.10890563
   5.77531512  1.05944601 21.66368402
   6.46857548 -0.85786652 23.95998633
   4.57593847 -1.93143594 23.97486942
   4.60086927  0.22191758 24.29330062
   5.66109456 -1.51312992 21.42542983
   3.74070704 -0.54460545 21.76793663
   6.95355837  0.84351904 21.53088467
   4.87057264  1.85316689 21.64109915
 


--------------------------------------------------------------------------------------------------------


 k-point  1 :   0.0000 0.0000 0.0000  plane waves:  202395
 k-point  2 :   0.3333 0.0000 0.0000  plane waves:  202358
 k-point  3 :   0.0000 0.3333 0.0000  plane waves:  202358
 k-point  4 :   0.3333 0.3333 0.0000  plane waves:  202335
 k-point  5 :  -0.3333 0.3333 0.0000  plane waves:  202358

 maximum and minimum number of plane-waves per node :    202395   202335

 maximum number of plane-waves:    202395
 maximum index in each direction: 
   IXMAX=   29   IYMAX=   28   IZMAX=   67
   IXMIN=  -29   IYMIN=  -29   IZMIN=  -67


 serial   3D FFT for wavefunctions
 parallel 3D FFT for charge:
    minimum data exchange during FFTs selected (reduces bandwidth)


 total amount of memory used by VASP MPI-rank0  1463179. kBytes
=======================================================================

   base      :      30000. kBytes
   nonlr-proj:      37383. kBytes
   fftplans  :      81109. kBytes
   grid      :     794361. kBytes
   one-center:        503. kBytes
   wavefun   :     519823. kBytes
 
     INWAV:  cpu time   19.1847: real time   19.4624
 Broyden mixing: mesh for mixing (old mesh)
   NGX = 57   NGY = 57   NGZ =135
  (NGX  =240   NGY  =240   NGZ  =540)
  gives a total of 438615 points

 charge density for first step will be calculated from the start-wavefunctions


--------------------------------------------------------------------------------------------------------


 Maximum index for non-local projection operator         6363
 Maximum index for augmentation-charges          581 (set IRDMAX)


--------------------------------------------------------------------------------------------------------


 initial charge from wavefunction
 First call to EWALD:  gamma=   0.093
 Maximum number of real-space cells 4x 4x 2
 Maximum number of reciprocal cells 2x 2x 5

    FEWALD:  cpu time    0.0047: real time    0.0502


--------------------------------------- Iteration      1(   1)  ---------------------------------------


    POTLOK:  cpu time   93.4991: real time   93.8358
    SETDIJ:  cpu time    0.9212: real time    0.7671
     EDDAV:  cpu time  293.2300: real time  196.0233
       DOS:  cpu time    0.0277: real time    0.0257
    CHARGE:  cpu time   33.9435: real time   32.7293
    MIXING:  cpu time    0.1036: real time    0.1062
    --------------------------------------------
      LOOP:  cpu time  421.7253: real time  323.4875

 eigenvalue-minimisations  :  6480
 total energy-change (2. order) :-0.7752401E+03  (-0.4316912E-02)
 number of electron     346.3999969 magnetization       0.8605455
 augmentation part       16.0603066 magnetization       0.1998769

 Broyden mixing:
  rms(total) = 0.29085E-01    rms(broyden)= 0.29047E-01
  rms(prec ) = 0.30298E-01
  weight for this iteration     100.00

 Free energy of the ion-electron system (eV)
  ---------------------------------------------------
  alpha Z        PSCENC =        92.14382556
  Ewald energy   TEWEN  =    110962.05600897
  -Hartree energ DENC   =   -124841.64941214
  -exchange      EXHF   =         0.00000000
  -V(xc)+E(xc)   XCENC  =      1587.57661937
  PAW double counting   =     40438.82637805   -40605.68533439
  entropy T*S    EENTRO =        -0.02928925
  eigenvalues    EBANDS =     -5049.14402345
  atomic energy  EATOM  =     16689.68470767
  Solvation  Ediel_sol  =       -49.01959177
  ---------------------------------------------------
  free energy    TOTEN  =      -775.24011139 eV

  energy without entropy =     -775.21082214  energy(sigma->0) =     -775.22546676


--------------------------------------------------------------------------------------------------------




--------------------------------------- Iteration      1(   2)  ---------------------------------------


    POTLOK:  cpu time   75.8500: real time   76.0267
    SETDIJ:  cpu time    1.3893: real time    0.9866
    EDDIAG:  cpu time   47.0285: real time   39.2227
  RMM-DIIS:  cpu time  349.8098: real time  260.6842
    ORTHCH:  cpu time    2.1188: real time    1.0636
       DOS:  cpu time    0.0046: real time    0.0023
    CHARGE:  cpu time   34.0948: real time   32.8535
    MIXING:  cpu time    0.1033: real time    0.1138
    --------------------------------------------
      LOOP:  cpu time  510.3992: real time  410.9533

 eigenvalue-minimisations  :  6083
 total energy-change (2. order) : 0.5776147E-02  (-0.6232915E-03)
 number of electron     346.3999969 magnetization       0.8605586
 augmentation part       16.0572506 magnetization       0.1602654

 Broyden mixing:
  rms(total) = 0.22534E-01    rms(broyden)= 0.22519E-01
  rms(prec ) = 0.22661E-01
  weight for this iteration     100.00

 eigenvalues of (default mixing * dielectric matrix)
  average eigenvalue GAMMA=   0.5077
  0.5077

 Free energy of the ion-electron system (eV)
  ---------------------------------------------------
  alpha Z        PSCENC =        92.14382556
  Ewald energy   TEWEN  =    110962.05600897
  -Hartree energ DENC   =   -124841.29302441
  -exchange      EXHF   =         0.00000000
  -V(xc)+E(xc)   XCENC  =      1587.60135299
  PAW double counting   =     40467.18431870   -40634.03563691
  entropy T*S    EENTRO =        -0.02592101
  eigenvalues    EBANDS =     -5049.06962930
  atomic energy  EATOM  =     16689.68470767
  Solvation  Ediel_sol  =       -49.48033751
  ---------------------------------------------------
  free energy    TOTEN  =      -775.23433524 eV

  energy without entropy =     -775.20841424  energy(sigma->0) =     -775.22137474


--------------------------------------------------------------------------------------------------------




--------------------------------------- Iteration      1(   3)  ---------------------------------------


    POTLOK:  cpu time   71.0860: real time   71.2502
    SETDIJ:  cpu time    1.3086: real time    0.9056
    EDDIAG:  cpu time   46.9976: real time   39.1595
  RMM-DIIS:  cpu time  352.4753: real time  263.2558
    ORTHCH:  cpu time    2.1162: real time    1.0623
       DOS:  cpu time    0.0043: real time    0.0021
    CHARGE:  cpu time   33.8778: real time   32.6443
    MIXING:  cpu time    0.1032: real time    0.0996
    --------------------------------------------
      LOOP:  cpu time  507.9690: real time  408.3794

 eigenvalue-minimisations  :  6101
 total energy-change (2. order) :-0.4482203E-02  (-0.1577953E-03)
 number of electron     346.3999969 magnetization       0.8617213
 augmentation part       16.0533843 magnetization       0.1124348

 Broyden mixing:
  rms(total) = 0.40003E-01    rms(broyden)= 0.39968E-01
  rms(prec ) = 0.41749E-01
  weight for this iteration     100.00

 eigenvalues of (default mixing * dielectric matrix)
  average eigenvalue GAMMA=   0.4840
  0.4840  0.4840

 Free energy of the ion-electron system (eV)
  ---------------------------------------------------
  alpha Z        PSCENC =        92.14382556
  Ewald energy   TEWEN  =    110962.05600897
  -Hartree energ DENC   =   -124841.15212856
  -exchange      EXHF   =         0.00000000
  -V(xc)+E(xc)   XCENC  =      1587.59713576
  PAW double counting   =     40477.85925236   -40644.70485993
  entropy T*S    EENTRO =        -0.02064572
  eigenvalues    EBANDS =     -5049.26067465
  atomic energy  EATOM  =     16689.68470767
  Solvation  Ediel_sol  =       -49.44143889
  ---------------------------------------------------
  free energy    TOTEN  =      -775.23881745 eV

  energy without entropy =     -775.21817173  energy(sigma->0) =     -775.22849459


--------------------------------------------------------------------------------------------------------




--------------------------------------- Iteration      1(   4)  ---------------------------------------


    POTLOK:  cpu time   73.9641: real time   74.1353
    SETDIJ:  cpu time    1.9661: real time    1.5649
    EDDIAG:  cpu time   46.9906: real time   39.1588
  RMM-DIIS:  cpu time  348.8802: real time  259.8318
    ORTHCH:  cpu time    2.1075: real time    1.0585
       DOS:  cpu time    0.0043: real time    0.0022
    CHARGE:  cpu time   33.9268: real time   32.7044
    MIXING:  cpu time    0.1027: real time    0.0999
    --------------------------------------------
      LOOP:  cpu time  507.9423: real time  408.5558

 eigenvalue-minimisations  :  5989
 total energy-change (2. order) : 0.1048281E-04  (-0.2212078E-03)
 number of electron     346.3999969 magnetization       0.8620193
 augmentation part       16.0562213 magnetization       0.1545178

 Broyden mixing:
  rms(total) = 0.10760E-01    rms(broyden)= 0.10727E-01
  rms(prec ) = 0.10995E-01
  weight for this iteration     100.00

 eigenvalues of (default mixing * dielectric matrix)
  average eigenvalue GAMMA=   0.8994
  1.6280  0.5350  0.5350

 Free energy of the ion-electron system (eV)
  ---------------------------------------------------
  alpha Z        PSCENC =        92.14382556
  Ewald energy   TEWEN  =    110962.05600897
  -Hartree energ DENC   =   -124841.26907533
  -exchange      EXHF   =         0.00000000
  -V(xc)+E(xc)   XCENC  =      1587.58842834
  PAW double counting   =     40477.39555182   -40644.23873583
  entropy T*S    EENTRO =        -0.02499054
  eigenvalues    EBANDS =     -5049.39227507
  atomic energy  EATOM  =     16689.68470767
  Solvation  Ediel_sol  =       -49.18225256
  ---------------------------------------------------
  free energy    TOTEN  =      -775.23880696 eV

  energy without entropy =     -775.21381643  energy(sigma->0) =     -775.22631170


--------------------------------------------------------------------------------------------------------




--------------------------------------- Iteration      1(   5)  ---------------------------------------


    POTLOK:  cpu time   71.8395: real time   71.9944
    SETDIJ:  cpu time    1.1662: real time    0.8209
    EDDIAG:  cpu time   47.0245: real time   39.1623
  RMM-DIIS:  cpu time  349.1371: real time  260.9079
    ORTHCH:  cpu time    2.1223: real time    1.0653
       DOS:  cpu time    0.0038: real time    0.0019
    CHARGE:  cpu time   34.0049: real time   32.7874
    MIXING:  cpu time    0.1054: real time    0.1022
    --------------------------------------------
      LOOP:  cpu time  505.4036: real time  406.8424

 eigenvalue-minimisations  :  5980
 total energy-change (2. order) :-0.8786074E-03  (-0.1816609E-03)
 number of electron     346.3999969 magnetization       0.8613654
 augmentation part       16.0588320 magnetization       0.1986478

 Broyden mixing:
  rms(total) = 0.24815E-01    rms(broyden)= 0.24771E-01
  rms(prec ) = 0.25955E-01
  weight for this iteration     100.00

 eigenvalues of (default mixing * dielectric matrix)
  average eigenvalue GAMMA=   0.9813
  2.4331  0.4996  0.4996  0.4929

 Free energy of the ion-electron system (eV)
  ---------------------------------------------------
  alpha Z        PSCENC =        92.14382556
  Ewald energy   TEWEN  =    110962.05600897
  -Hartree energ DENC   =   -124840.98779802
  -exchange      EXHF   =         0.00000000
  -V(xc)+E(xc)   XCENC  =      1587.57922116
  PAW double counting   =     40506.40102320   -40673.23095699
  entropy T*S    EENTRO =        -0.02908306
  eigenvalues    EBANDS =     -5049.81148509
  atomic energy  EATOM  =     16689.68470767
  Solvation  Ediel_sol  =       -49.04514898
  ---------------------------------------------------
  free energy    TOTEN  =      -775.23968557 eV

  energy without entropy =     -775.21060251  energy(sigma->0) =     -775.22514404


--------------------------------------------------------------------------------------------------------




--------------------------------------- Iteration      1(   6)  ---------------------------------------


    POTLOK:  cpu time   72.7219: real time   72.8802
    SETDIJ:  cpu time    1.1350: real time    0.8052
    EDDIAG:  cpu time   47.1342: real time   39.2579
  RMM-DIIS:  cpu time  343.1998: real time  256.1505
    ORTHCH:  cpu time    2.1110: real time    1.0597
       DOS:  cpu time    0.0036: real time    0.0018
    CHARGE:  cpu time   33.9072: real time   32.6834
    MIXING:  cpu time    0.1088: real time    0.1063
    --------------------------------------------
      LOOP:  cpu time  500.3216: real time  402.9450

 eigenvalue-minimisations  :  5773
 total energy-change (2. order) : 0.1226479E-03  (-0.2235079E-03)
 number of electron     346.3999969 magnetization       0.8614318
 augmentation part       16.0563361 magnetization       0.1651498

 Broyden mixing:
  rms(total) = 0.31810E-02    rms(broyden)= 0.31079E-02
  rms(prec ) = 0.31463E-02
  weight for this iteration     100.00

 eigenvalues of (default mixing * dielectric matrix)
  average eigenvalue GAMMA=   0.9246
  2.4497  0.4907  0.4907  0.5959  0.5959

 Free energy of the ion-electron system (eV)
  ---------------------------------------------------
  alpha Z        PSCENC =        92.14382556
  Ewald energy   TEWEN  =    110962.05600897
  -Hartree energ DENC   =   -124840.81017160
  -exchange      EXHF   =         0.00000000
  -V(xc)+E(xc)   XCENC  =      1587.57160133
  PAW double counting   =     40512.21966322   -40679.04792110
  entropy T*S    EENTRO =        -0.02606798
  eigenvalues    EBANDS =     -5049.86031744
  atomic energy  EATOM  =     16689.68470767
  Solvation  Ediel_sol  =       -49.17089155
  ---------------------------------------------------
  free energy    TOTEN  =      -775.23956292 eV

  energy without entropy =     -775.21349494  energy(sigma->0) =     -775.22652893


--------------------------------------------------------------------------------------------------------




--------------------------------------- Iteration      1(   7)  ---------------------------------------


    POTLOK:  cpu time   69.1972: real time   69.3487
    SETDIJ:  cpu time    0.9473: real time    0.7118
    EDDIAG:  cpu time   47.0159: real time   39.1842
  RMM-DIIS:  cpu time  311.7091: real time  232.8370
    ORTHCH:  cpu time    2.1184: real time    1.0637
       DOS:  cpu time    0.0035: real time    0.0017
    CHARGE:  cpu time   33.9325: real time   32.7034
    MIXING:  cpu time    0.1089: real time    0.1068
    --------------------------------------------
      LOOP:  cpu time  465.0328: real time  375.9574

 eigenvalue-minimisations  :  4948
 total energy-change (2. order) :-0.1984872E-03  (-0.6254128E-04)
 number of electron     346.3999969 magnetization       0.8616001
 augmentation part       16.0558781 magnetization       0.1570578

 Broyden mixing:
  rms(total) = 0.42928E-02    rms(broyden)= 0.42762E-02
  rms(prec ) = 0.45163E-02
  weight for this iteration     100.00

 eigenvalues of (default mixing * dielectric matrix)
  average eigenvalue GAMMA=   0.9423
  2.5116  0.4903  0.4903  0.6669  0.7472  0.7472

 Free energy of the ion-electron system (eV)
  ---------------------------------------------------
  alpha Z        PSCENC =        92.14382556
  Ewald energy   TEWEN  =    110962.05600897
  -Hartree energ DENC   =   -124840.79333203
  -exchange      EXHF   =         0.00000000
  -V(xc)+E(xc)   XCENC  =      1587.56425422
  PAW double counting   =     40512.28093828   -40679.10902286
  entropy T*S    EENTRO =        -0.02526293
  eigenvalues    EBANDS =     -5049.89182940
  atomic energy  EATOM  =     16689.68470767
  Solvation  Ediel_sol  =       -49.15004889
  ---------------------------------------------------
  free energy    TOTEN  =      -775.23976141 eV

  energy without entropy =     -775.21449849  energy(sigma->0) =     -775.22712995


--------------------------------------------------------------------------------------------------------




--------------------------------------- Iteration      1(   8)  ---------------------------------------


    POTLOK:  cpu time   70.0524: real time   70.2077
    SETDIJ:  cpu time    0.9815: real time    0.7281
    EDDIAG:  cpu time   47.0454: real time   39.1886
  RMM-DIIS:  cpu time  307.9006: real time  229.9794
    ORTHCH:  cpu time    2.1120: real time    1.0612
       DOS:  cpu time    0.0037: real time    0.0018
    CHARGE:  cpu time   33.8976: real time   32.6708
    MIXING:  cpu time    0.1117: real time    0.1089
    --------------------------------------------
      LOOP:  cpu time  462.1048: real time  373.9465

 eigenvalue-minimisations  :  4785
 total energy-change (2. order) :-0.1538513E-03  (-0.1564084E-04)
 number of electron     346.3999969 magnetization       0.8616060
 augmentation part       16.0566249 magnetization       0.1656148

 Broyden mixing:
  rms(total) = 0.19052E-02    rms(broyden)= 0.18973E-02
  rms(prec ) = 0.19630E-02
  weight for this iteration     100.00

 eigenvalues of (default mixing * dielectric matrix)
  average eigenvalue GAMMA=   0.9640
  2.4899  1.2665  0.4890  0.4890  0.6664  0.6664  0.6806

 Free energy of the ion-electron system (eV)
  ---------------------------------------------------
  alpha Z        PSCENC =        92.14382556
  Ewald energy   TEWEN  =    110962.05600897
  -Hartree energ DENC   =   -124840.79608635
  -exchange      EXHF   =         0.00000000
  -V(xc)+E(xc)   XCENC  =      1587.56343667
  PAW double counting   =     40512.27408709   -40679.10221624
  entropy T*S    EENTRO =        -0.02609109
  eigenvalues    EBANDS =     -5049.93292279
  atomic energy  EATOM  =     16689.68470767
  Solvation  Ediel_sol  =       -49.10466476
  ---------------------------------------------------
  free energy    TOTEN  =      -775.23991526 eV

  energy without entropy =     -775.21382417  energy(sigma->0) =     -775.22686972


--------------------------------------------------------------------------------------------------------




--------------------------------------- Iteration      1(   9)  ---------------------------------------


    POTLOK:  cpu time   65.7481: real time   65.8914
    SETDIJ:  cpu time    1.2010: real time    0.8379
    EDDIAG:  cpu time   47.0215: real time   39.2813
  RMM-DIIS:  cpu time  293.2867: real time  218.5974
    ORTHCH:  cpu time    2.1206: real time    1.0652
       DOS:  cpu time    0.0035: real time    0.0018
    CHARGE:  cpu time   33.9411: real time   32.7176
    MIXING:  cpu time    0.1183: real time    0.1143
    --------------------------------------------
      LOOP:  cpu time  443.4408: real time  358.5069

 eigenvalue-minimisations  :  4529
 total energy-change (2. order) :-0.4133449E-04  (-0.6602423E-05)
 number of electron     346.3999969 magnetization       0.8615832
 augmentation part       16.0567708 magnetization       0.1665516

 Broyden mixing:
  rms(total) = 0.24948E-02    rms(broyden)= 0.24939E-02
  rms(prec ) = 0.26011E-02
  weight for this iteration     100.00

 eigenvalues of (default mixing * dielectric matrix)
  average eigenvalue GAMMA=   0.9959
  2.5459  1.2840  1.2840  0.4871  0.4871  0.6373  0.6208  0.6208

 Free energy of the ion-electron system (eV)
  ---------------------------------------------------
  alpha Z        PSCENC =        92.14382556
  Ewald energy   TEWEN  =    110962.05600897
  -Hartree energ DENC   =   -124840.79232569
  -exchange      EXHF   =         0.00000000
  -V(xc)+E(xc)   XCENC  =      1587.56356197
  PAW double counting   =     40512.33659572   -40679.16499666
  entropy T*S    EENTRO =        -0.02619220
  eigenvalues    EBANDS =     -5049.94388666
  atomic energy  EATOM  =     16689.68470767
  Solvation  Ediel_sol  =       -49.09725527
  ---------------------------------------------------
  free energy    TOTEN  =      -775.23995660 eV

  energy without entropy =     -775.21376440  energy(sigma->0) =     -775.22686050


--------------------------------------------------------------------------------------------------------




--------------------------------------- Iteration      1(  10)  ---------------------------------------


    POTLOK:  cpu time   62.4415: real time   62.5778
    SETDIJ:  cpu time    1.0246: real time    0.7496
    EDDIAG:  cpu time   47.0876: real time   39.2428
  RMM-DIIS:  cpu time  286.3809: real time  214.5527
    ORTHCH:  cpu time    2.1207: real time    1.0659
       DOS:  cpu time    0.0046: real time    0.0023
    CHARGE:  cpu time   33.8769: real time   32.6708
    MIXING:  cpu time    0.1181: real time    0.1158
    --------------------------------------------
      LOOP:  cpu time  433.0549: real time  350.9777

 eigenvalue-minimisations  :  4418
 total energy-change (2. order) : 0.2190411E-04  (-0.1569346E-05)
 number of electron     346.3999969 magnetization       0.8615948
 augmentation part       16.0566257 magnetization       0.1645296

 Broyden mixing:
  rms(total) = 0.12004E-02    rms(broyden)= 0.11996E-02
  rms(prec ) = 0.12419E-02
  weight for this iteration     100.00

 eigenvalues of (default mixing * dielectric matrix)
  average eigenvalue GAMMA=   1.0776
  2.6117  1.7304  1.7304  0.4872  0.4872  0.6666  0.6666  0.6592  0.6592

 Free energy of the ion-electron system (eV)
  ---------------------------------------------------
  alpha Z        PSCENC =        92.14382556
  Ewald energy   TEWEN  =    110962.05600897
  -Hartree energ DENC   =   -124840.80050577
  -exchange      EXHF   =         0.00000000
  -V(xc)+E(xc)   XCENC  =      1587.56376517
  PAW double counting   =     40512.62777504   -40679.45633751
  entropy T*S    EENTRO =        -0.02600593
  eigenvalues    EBANDS =     -5049.93410641
  atomic energy  EATOM  =     16689.68470767
  Solvation  Ediel_sol  =       -49.09906148
  ---------------------------------------------------
  free energy    TOTEN  =      -775.23993469 eV

  energy without entropy =     -775.21392876  energy(sigma->0) =     -775.22693173


--------------------------------------------------------------------------------------------------------




--------------------------------------- Iteration      1(  11)  ---------------------------------------


    POTLOK:  cpu time   64.3495: real time   64.4904
    SETDIJ:  cpu time    0.9673: real time    0.7221
    EDDIAG:  cpu time   47.0846: real time   39.2426
  RMM-DIIS:  cpu time  282.0366: real time  211.4745
    ORTHCH:  cpu time    2.1171: real time    1.0640
       DOS:  cpu time    0.0037: real time    0.0018
    CHARGE:  cpu time   33.9920: real time   32.7688
    MIXING:  cpu time    0.1202: real time    0.1177
    --------------------------------------------
      LOOP:  cpu time  430.6709: real time  349.8818

 eigenvalue-minimisations  :  4343
 total energy-change (2. order) :-0.3492205E-04  (-0.9922278E-06)
 number of electron     346.3999969 magnetization       0.8615971
 augmentation part       16.0565713 magnetization       0.1639132

 Broyden mixing:
  rms(total) = 0.78015E-03    rms(broyden)= 0.77976E-03
  rms(prec ) = 0.80998E-03
  weight for this iteration     100.00

 eigenvalues of (default mixing * dielectric matrix)
  average eigenvalue GAMMA=   1.1267
  2.7233  2.0296  2.0296  0.4873  0.4873  0.6677  0.6677  0.7726  0.7726  0.6293

 Free energy of the ion-electron system (eV)
  ---------------------------------------------------
  alpha Z        PSCENC =        92.14382556
  Ewald energy   TEWEN  =    110962.05600897
  -Hartree energ DENC   =   -124840.81761015
  -exchange      EXHF   =         0.00000000
  -V(xc)+E(xc)   XCENC  =      1587.56372711
  PAW double counting   =     40512.70647644   -40679.53518409
  entropy T*S    EENTRO =        -0.02595504
  eigenvalues    EBANDS =     -5049.92362389
  atomic energy  EATOM  =     16689.68470767
  Solvation  Ediel_sol  =       -49.09234219
  ---------------------------------------------------
  free energy    TOTEN  =      -775.23996961 eV

  energy without entropy =     -775.21401458  energy(sigma->0) =     -775.22699210


--------------------------------------------------------------------------------------------------------




--------------------------------------- Iteration      1(  12)  ---------------------------------------


    POTLOK:  cpu time   61.5441: real time   61.6783
    SETDIJ:  cpu time    1.2063: real time    0.8408
    EDDIAG:  cpu time   47.1150: real time   39.2550
  RMM-DIIS:  cpu time  278.6010: real time  208.9465
    ORTHCH:  cpu time    2.1114: real time    1.0599
       DOS:  cpu time    0.0047: real time    0.0024
    CHARGE:  cpu time   33.9147: real time   32.6835
    MIXING:  cpu time    0.1239: real time    0.1218
    --------------------------------------------
      LOOP:  cpu time  424.6211: real time  344.5884

 eigenvalue-minimisations  :  4269
 total energy-change (2. order) :-0.1103521E-04  (-0.5651209E-06)
 number of electron     346.3999969 magnetization       0.8615922
 augmentation part       16.0565462 magnetization       0.1635507

 Broyden mixing:
  rms(total) = 0.53139E-03    rms(broyden)= 0.53120E-03
  rms(prec ) = 0.55425E-03
  weight for this iteration     100.00

 eigenvalues of (default mixing * dielectric matrix)
  average eigenvalue GAMMA=   1.1350
  2.7902  2.3197  1.9199  0.4873  0.4873  0.6625  0.6625  0.8645  0.8645  0.8105
  0.6158

 Free energy of the ion-electron system (eV)
  ---------------------------------------------------
  alpha Z        PSCENC =        92.14382556
  Ewald energy   TEWEN  =    110962.05600897
  -Hartree energ DENC   =   -124840.82364868
  -exchange      EXHF   =         0.00000000
  -V(xc)+E(xc)   XCENC  =      1587.56360908
  PAW double counting   =     40512.69538768   -40679.52411606
  entropy T*S    EENTRO =        -0.02592675
  eigenvalues    EBANDS =     -5049.92085815
  atomic energy  EATOM  =     16689.68470767
  Solvation  Ediel_sol  =       -49.08896997
  ---------------------------------------------------
  free energy    TOTEN  =      -775.23998065 eV

  energy without entropy =     -775.21405390  energy(sigma->0) =     -775.22701727


--------------------------------------------------------------------------------------------------------




--------------------------------------- Iteration      1(  13)  ---------------------------------------


    POTLOK:  cpu time   60.5242: real time   60.6542
    SETDIJ:  cpu time    1.2431: real time    0.8596
    EDDIAG:  cpu time   47.0943: real time   39.2393
  RMM-DIIS:  cpu time  276.1126: real time  207.1596
    ORTHCH:  cpu time    2.1304: real time    1.0698
       DOS:  cpu time    0.0035: real time    0.0018
    --------------------------------------------
      LOOP:  cpu time  387.1080: real time  308.9843

 eigenvalue-minimisations  :  4243
 total energy-change (2. order) : 0.9175528E-06  (-0.3822240E-06)
 number of electron     346.3999969 magnetization       0.8615922
 augmentation part       16.0565462 magnetization       0.1635507

 Free energy of the ion-electron system (eV)
  ---------------------------------------------------
  alpha Z        PSCENC =        92.14382556
  Ewald energy   TEWEN  =    110962.05600897
  -Hartree energ DENC   =   -124840.82212435
  -exchange      EXHF   =         0.00000000
  -V(xc)+E(xc)   XCENC  =      1587.56345128
  PAW double counting   =     40512.70133303   -40679.53000647
  entropy T*S    EENTRO =        -0.02588255
  eigenvalues    EBANDS =     -5049.92253098
  atomic energy  EATOM  =     16689.68470767
  Solvation  Ediel_sol  =       -49.08876189
  ---------------------------------------------------
  free energy    TOTEN  =      -775.23997973 eV

  energy without entropy =     -775.21409718  energy(sigma->0) =     -775.22703846


--------------------------------------------------------------------------------------------------------




 average (electrostatic) potential at core
  the test charge radii are     0.7672  0.7089  0.6991  0.7167  0.7215
  (the norm of the test charge is              1.0000)
       1 -38.8118       2 -38.8139       3 -38.8113       4 -38.8090       5 -38.8084
       6 -38.8092       7 -38.8120       8 -38.8189       9 -38.8198      10 -38.8124
      11 -38.8090      12 -38.8090      13 -38.8101      14 -38.8149      15 -38.8200
      16 -38.8161      17 -38.8101      18 -38.8088      19 -38.8086      20 -38.8100
      21 -38.8121      22 -38.8120      23 -38.8096      24 -38.8084      25 -38.8081
      26 -38.8084      27 -38.8087      28 -38.8088      29 -38.8083      30 -38.8082
      31 -38.8092      32 -38.8088      33 -38.8086      34 -38.8083      35 -38.8082
      36 -38.8086      37 -76.3884      38 -76.3876      39 -76.3862      40 -76.3857
      41 -76.3857      42 -76.3866      43 -76.3918      44 -76.3982      45 -76.3930
      46 -76.3865      47 -76.3859      48 -76.3869      49 -76.3893      50 -76.3987
      51 -76.4022      52 -76.3902      53 -76.3862      54 -76.3866      55 -76.3866
      56 -76.3895      57 -76.3931      58 -76.3896      59 -76.3859      60 -76.3857
      61 -76.3855      62 -76.3862      63 -76.3865      64 -76.3861      65 -76.3857
      66 -76.3854      67 -76.3857      68 -76.3857      69 -76.3856      70 -76.3856
      71 -76.3855      72 -76.3858      73 -68.0082      74 -66.7528      75 -65.5161
      76 -92.3131      77 -92.2505      78 -92.3106      79 -92.5514      80 -92.5350
      81 -85.9443      82 -85.9299
 
 
 
 E-fermi :  -6.4632     XC(G=0):  -1.3740     alpha+bet : -1.1425


 spin component 1

 k-point     1 :       0.0000    0.0000    0.0000
  band No.  band energies     occupation 
      1     -36.1562      1.00000
      2     -35.4490      1.00000
      3     -34.0131      1.00000
      4     -33.6873      1.00000
      5     -33.6683      1.00000
      6     -30.3046      1.00000
      7     -28.7966      1.00000
      8     -25.0397      1.00000
      9     -24.4995      1.00000
     10     -24.4959      1.00000
     11     -24.4956      1.00000
     12     -24.4936      1.00000
     13     -24.4934      1.00000
     14     -24.4929      1.00000
     15     -23.4844      1.00000
     16     -23.4836      1.00000
     17     -23.4835      1.00000
     18     -23.4827      1.00000
     19     -23.4826      1.00000
     20     -23.4822      1.00000
     21     -23.0451      1.00000
     22     -23.0446      1.00000
     23     -23.0445      1.00000
     24     -23.0439      1.00000
     25     -23.0439      1.00000
     26     -23.0435      1.00000
     27     -21.9915      1.00000
     28     -21.9908      1.00000
     29     -21.9890      1.00000
     30     -21.9881      1.00000
     31     -21.9880      1.00000
     32     -21.9875      1.00000
     33     -21.9863      1.00000
     34     -21.9862      1.00000
     35     -21.9860      1.00000
     36     -21.9857      1.00000
     37     -21.9854      1.00000
     38     -21.9853      1.00000
     39     -21.9006      1.00000
     40     -21.9005      1.00000
     41     -21.9004      1.00000
     42     -21.3866      1.00000
     43     -21.3239      1.00000
     44     -21.3239      1.00000
     45     -18.5007      1.00000
     46     -16.8219      1.00000
     47     -16.6422      1.00000
     48     -16.5283      1.00000
     49     -15.6930      1.00000
     50     -15.6668      1.00000
     51     -15.5927      1.00000
     52     -15.5926      1.00000
     53     -15.5925      1.00000
     54     -14.7431      1.00000
     55     -14.7429      1.00000
     56     -14.7423      1.00000
     57     -14.7413      1.00000
     58     -14.7401      1.00000
     59     -14.7397      1.00000
     60     -14.7397      1.00000
     61     -14.7396      1.00000
     62     -14.7388      1.00000
     63     -14.7387      1.00000
     64     -14.7386      1.00000
     65     -14.7385      1.00000
     66     -14.4800      1.00000
     67     -14.4799      1.00000
     68     -14.1833      1.00000
     69     -13.8724      1.00000
     70     -13.8723      1.00000
     71     -13.5348      1.00000
     72     -13.5346      1.00000
     73     -13.5345      1.00000
     74     -13.5341      1.00000
     75     -13.5340      1.00000
     76     -13.5339      1.00000
[...]
   0.255E+01 0.488E+01 0.702E+02   -.252E+01 -.493E+01 -.700E+02   -.313E-02 -.125E-02 -.475E-02   -.332E-04 0.169E-04 -.170E-03
   -.665E+01 0.186E+02 0.794E+02   0.670E+01 -.186E+02 -.792E+02   -.459E-02 -.129E-02 -.406E-02   -.152E-04 -.614E-04 -.185E-03
   -.245E+02 0.227E+02 0.914E+02   0.245E+02 -.226E+02 -.912E+02   -.105E-01 0.257E-02 0.127E-02   0.738E-04 -.124E-03 -.260E-03
   -.322E+02 0.996E+01 0.914E+02   0.321E+02 -.984E+01 -.911E+02   -.823E-02 0.101E-02 0.103E-01   0.154E-03 -.837E-04 -.321E-03
   -.202E+02 -.322E+01 0.794E+02   0.200E+02 0.324E+01 -.791E+02   -.370E-02 -.565E-03 0.630E-02   0.125E-03 0.966E-05 -.283E-03
   -.316E+01 -.434E+01 0.700E+02   0.311E+01 0.430E+01 -.698E+02   -.122E-02 -.253E-02 -.648E-02   0.285E-04 0.496E-04 -.210E-03
   0.188E+02 -.103E+02 0.776E+02   -.187E+02 0.103E+02 -.773E+02   -.408E-03 -.158E-02 -.385E-02   -.126E-03 0.670E-04 -.257E-03
   0.973E+01 -.915E+01 0.760E+02   -.962E+01 0.907E+01 -.758E+02   -.320E-02 -.209E-02 0.192E-03   -.925E-04 0.821E-04 -.246E-03
   -.476E+01 0.226E+00 0.731E+02   0.480E+01 -.281E+00 -.729E+02   -.316E-02 -.243E-02 -.693E-02   -.986E-06 0.294E-04 -.214E-03
   -.112E+02 0.614E+01 0.722E+02   0.112E+02 -.613E+01 -.720E+02   -.169E-04 0.106E-03 -.646E-02   0.613E-04 -.347E-04 -.200E-03
   -.318E+01 0.388E+01 0.726E+02   0.310E+01 -.384E+01 -.724E+02   0.943E-03 0.658E-03 -.805E-02   0.377E-04 -.437E-04 -.206E-03
   0.123E+02 -.325E+01 0.751E+02   -.123E+02 0.327E+01 -.749E+02   0.301E-02 -.300E-03 -.113E-01   -.582E-04 0.162E-05 -.231E-03
   0.315E+01 0.252E+02 -.414E+03   -.389E+01 -.239E+02 0.406E+03   0.887E+00 -.974E+00 0.823E+01   0.739E-04 -.929E-03 0.256E-02
   -.110E+02 -.425E+02 -.323E+03   0.167E+02 0.515E+02 0.330E+03   -.538E+01 -.833E+01 -.671E+01   -.119E-02 -.269E-02 0.364E-03
   -.434E+02 -.114E+03 -.310E+03   0.431E+02 0.113E+03 0.311E+03   0.581E+00 0.117E+01 -.127E+00   0.919E-03 0.192E-02 -.899E-03
   -.536E+03 0.875E+02 -.905E+03   0.595E+03 -.906E+02 0.921E+03   -.576E+02 0.360E+01 -.157E+02   0.165E-02 -.122E-02 0.233E-02
   0.246E+03 0.515E+03 -.883E+03   -.272E+03 -.565E+03 0.901E+03   0.259E+02 0.497E+02 -.159E+02   -.680E-03 -.213E-02 0.172E-02
   0.243E+03 -.365E+03 -.103E+04   -.270E+03 0.411E+03 0.106E+04   0.256E+02 -.443E+02 -.305E+02   -.849E-03 0.263E-03 0.286E-02
   -.215E+03 0.417E+03 -.308E+03   0.246E+03 -.458E+03 0.277E+03   -.293E+02 0.420E+02 0.318E+02   0.125E-02 -.549E-02 -.276E-02
   0.554E+03 0.292E+02 -.435E+03   -.612E+03 -.255E+02 0.420E+03   0.581E+02 -.208E+01 0.164E+02   -.548E-02 -.210E-02 -.152E-02
   -.451E+03 -.125E+03 -.440E+03   0.510E+03 0.114E+03 0.435E+03   -.574E+02 0.106E+02 0.652E+01   0.361E-02 0.900E-03 -.117E-02
   0.207E+03 -.434E+03 -.479E+03   -.253E+03 0.474E+03 0.480E+03   0.444E+02 -.387E+02 0.112E+01   -.154E-02 0.338E-02 -.931E-03
 -----------------------------------------------------------------------------------------------
   -.580E+01 -.128E+02 0.486E+01   0.284E-13 -.171E-12 -.114E-11   0.576E+01 0.128E+02 -.482E+01   -.224E-02 -.809E-02 -.161E-01
 
 
 POSITION                                       TOTAL-FORCE (eV/Angst)
 -----------------------------------------------------------------------------------
      1.25599     -0.72491     17.55789         0.000380      0.000673      0.000134
      2.51201      1.45068     17.55669         0.000187      0.006553      0.001267
      3.76825      3.62634     17.55594        -0.000013     -0.002042      0.000670
      5.02452      5.80191     17.55634         0.000335     -0.000255     -0.000178
      6.28065      7.97755     17.55804        -0.000061      0.000445     -0.000190
      7.53661     10.15313     17.55878         0.001415      0.001620      0.000568
      2.51221     -2.90074     17.55864         0.000292     -0.000258     -0.000155
      3.76805     -0.72524     17.55640         0.001111      0.002990      0.003698
      5.02432      1.45060     17.55559        -0.003043      0.008602      0.000653
      6.28055      3.62627     17.55576         0.000662      0.002007      0.000854
      7.53671      5.80188     17.55663        -0.000313     -0.000579     -0.000134
      8.79277      7.97745     17.55857         0.000367      0.001588     -0.000163
      3.76835     -5.07638     17.55900         0.003411      0.003228      0.000857
      5.02450     -2.90086     17.55897         0.000406     -0.000718      0.001187
      6.28081     -0.72534     17.55675        -0.000174      0.002532      0.004861
      7.53687      1.45070     17.55686        -0.000161      0.001297      0.001588
      8.79281      3.62625     17.55614         0.000232      0.000925     -0.000119
     10.04889      5.80189     17.55763        -0.000118     -0.000531     -0.000013
      5.02456     -7.25183     17.55847         0.000015      0.000639      0.000201
      6.28061     -5.07634     17.55887         0.002070      0.003007      0.000841
      7.53683     -2.90077     17.55781        -0.000681      0.000825      0.001324
      8.79290     -0.72496     17.55649         0.000672      0.001086      0.001041
     10.04888      1.45069     17.55625         0.000595      0.000710     -0.000402
     11.30494      3.62634     17.55724         0.000129     -0.000046     -0.000029
      6.28060     -9.42734     17.55816         0.000453      0.000095     -0.000170
      7.53678     -7.25177     17.55819         0.000428      0.000614      0.000123
      8.79290     -5.07618     17.55814         0.000413      0.001507      0.000096
     10.04897     -2.90047     17.55750        -0.000635     -0.000355      0.000210
     11.30499     -0.72483     17.55724        -0.000535     -0.000494      0.000257
     12.56103      1.45081     17.55779        -0.000428     -0.000215     -0.000522
      7.53657    -11.60296     17.55801         0.000379      0.002154     -0.000257
      8.79270     -9.42733     17.55714         0.002085     -0.001390      0.000273
     10.04895     -7.25176     17.55713         0.000727     -0.000628     -0.000132
     11.30508     -5.07612     17.55792        -0.000891      0.000288     -0.000820
     12.56105     -2.90051     17.55840         0.001015      0.001529      0.000080
     13.81707     -0.72487     17.55855         0.000359      0.001320     -0.000267
      1.25614      0.72554     17.55750        -0.000189     -0.004141     -0.000024
      2.51224      2.90106     17.55617         0.001145     -0.001337      0.001619
      3.76845      5.07660     17.55600        -0.000310      0.004932      0.001237
      5.02460      7.25236     17.55744        -0.001377     -0.001183     -0.000357
      6.28058      9.42799     17.55871         0.000234     -0.000698     -0.001115
      7.53659     11.60360     17.55874         0.001263      0.000495     -0.001352
      2.51215     -1.45026     17.55750         0.002040      0.001262      0.001088
      3.76830      0.72531     17.55672         0.002826     -0.002919     -0.000195
      5.02441      2.90090     17.55556         0.001162      0.000375      0.001692
      6.28059      5.07661     17.55570         0.000325      0.001128      0.001394
      7.53673      7.25230     17.55784        -0.001270     -0.000472     -0.000756
      8.79273      9.42790     17.55902         0.000187      0.000424     -0.001497
      3.76840     -3.62584     17.55936        -0.000526      0.000251     -0.001156
      5.02446     -1.45017     17.55858        -0.000447     -0.000082     -0.001380
      6.28039      0.72529     17.55874         0.002756     -0.001202     -0.002190
      7.53656      2.90097     17.55605         0.002378     -0.000194      0.002619
      8.79278      5.07663     17.55645         0.000395      0.000964      0.000530
     10.04888      7.25230     17.55863        -0.001229     -0.000772     -0.001429
      5.02453     -5.80139     17.55896        -0.001234     -0.001666     -0.000902
      6.28063     -3.62579     17.55904        -0.000598     -0.000844     -0.000634
      7.53675     -1.45027     17.55675        -0.002014      0.001411      0.002395
      8.79266      0.72544     17.55588         0.001810      0.000180      0.004003
     10.04883      2.90103     17.55607         0.000429      0.002430      0.001498
     11.30499      5.07675     17.55784        -0.000474     -0.000710     -0.000797
      6.28070     -7.97694     17.55840        -0.001571     -0.000452     -0.000718
      7.53679     -5.80133     17.55850        -0.001671     -0.001622     -0.000827
      8.79289     -3.62573     17.55774        -0.000345     -0.001338     -0.000200
     10.04890     -1.45006     17.55667         0.000079     -0.000578      0.000775
     11.30494      0.72555     17.55682         0.000449      0.000694      0.000303
     12.56105      2.90122     17.55789         0.000106     -0.000946     -0.001047
      7.53670    -10.15254     17.55785        -0.001637     -0.001445     -0.000683
      8.79288     -7.97698     17.55742        -0.001528      0.001320     -0.000510
     10.04899     -5.80133     17.55790        -0.000300     -0.001674     -0.001264
     11.30502     -3.62567     17.55811        -0.000184     -0.001796     -0.000913
     12.56104     -1.45005     17.55827         0.000387     -0.001673     -0.001097
     13.81709      0.72560     17.55844         0.000830     -0.002189     -0.001448
      5.17834     -0.78232     23.62713        -0.009095     -0.007966     -0.049805
      5.02131     -0.57376     22.10891         0.004304      0.028617      0.011847
      5.77532      1.05945     21.66368        -0.003964     -0.020764      0.028162
      6.46858     -0.85787     23.95999        -0.006232      0.032379     -0.015847
      4.57594     -1.93144     23.97487        -0.003621     -0.018857      0.028868
      4.60087      0.22192     24.29330         0.019131      0.012778     -0.009789
      5.66109     -1.51313     21.42543         0.000719     -0.025186     -0.006577
      3.74071     -0.54461     21.76794        -0.022609     -0.023034     -0.001666
      6.95356      0.84352     21.53088         0.030806     -0.016574     -0.005196
      4.87057      1.85317     21.64110        -0.022421      0.013951      0.006107
 -----------------------------------------------------------------------------------
    total drift:                               -0.039424     -0.067002      0.024987


--------------------------------------------------------------------------------------------------------



  FREE ENERGIE OF THE ION-ELECTRON SYSTEM (eV)
  ---------------------------------------------------
  free  energy   TOTEN  =      -775.23997973 eV

  energy  without entropy=     -775.21409718  energy(sigma->0) =     -775.22703846
 


--------------------------------------------------------------------------------------------------------


    POTLOK:  cpu time   61.3806: real time   61.1924


--------------------------------------------------------------------------------------------------------


 stress matrix after NEB project (eV)
    -28.49384      0.61828      0.34284
      0.61833    -27.56633      0.25767
      0.34140      0.25768     -0.07061
  FORCES: max atom, RMS     0.051251    0.012206
  FORCE total and by dimension    0.110527    0.049805
  Stress total and by dimension   39.660278   28.493837
 writing wavefunctions
     LOOP+:  cpu time 7055.1146: real time 5688.9923
    4ORBIT:  cpu time    0.0000: real time    0.0000
 


 total charge     
 
# of ion       s       p       d       tot
------------------------------------------
    1        0.744   1.392   0.000   2.136
    2        0.744   1.393   0.000   2.136
    3        0.744   1.393   0.000   2.136
    4        0.744   1.392   0.000   2.136
    5        0.744   1.393   0.000   2.136
    6        0.744   1.393   0.000   2.136
    7        0.744   1.393   0.000   2.136
    8        0.744   1.393   0.000   2.137
    9        0.744   1.393   0.000   2.137
   10        0.744   1.393   0.000   2.136
   11        0.744   1.392   0.000   2.136
   12        0.744   1.393   0.000   2.136
   13        0.744   1.393   0.000   2.136
   14        0.744   1.393   0.000   2.136
   15        0.744   1.393   0.000   2.137
   16        0.744   1.393   0.000   2.136
   17        0.744   1.392   0.000   2.136
   18        0.744   1.393   0.000   2.136
   19        0.744   1.393   0.000   2.136
   20        0.744   1.393   0.000   2.136
   21        0.744   1.393   0.000   2.136
   22        0.744   1.393   0.000   2.136
   23        0.744   1.393   0.000   2.136
   24        0.744   1.393   0.000   2.136
   25        0.744   1.393   0.000   2.136
   26        0.744   1.393   0.000   2.136
   27        0.744   1.393   0.000   2.136
   28        0.744   1.393   0.000   2.136
   29        0.744   1.393   0.000   2.136
   30        0.744   1.393   0.000   2.136
   31        0.744   1.393   0.000   2.136
   32        0.744   1.393   0.000   2.136
   33        0.744   1.393   0.000   2.136
   34        0.744   1.393   0.000   2.136
   35        0.744   1.393   0.000   2.136
   36        0.744   1.393   0.000   2.136
   37        1.239   2.819   0.000   4.058
   38        1.239   2.819   0.000   4.058
   39        1.239   2.819   0.000   4.058
   40        1.239   2.819   0.000   4.058
   41        1.239   2.819   0.000   4.058
   42        1.239   2.819   0.000   4.058
   43        1.239   2.819   0.000   4.058
   44        1.239   2.819   0.000   4.057
   45        1.239   2.819   0.000   4.058
   46        1.239   2.819   0.000   4.058
   47        1.239   2.819   0.000   4.058
   48        1.239   2.819   0.000   4.058
   49        1.239   2.819   0.000   4.058
   50        1.239   2.819   0.000   4.057
   51        1.239   2.818   0.000   4.057
   52        1.239   2.819   0.000   4.058
   53        1.239   2.819   0.000   4.058
   54        1.239   2.819   0.000   4.058
   55        1.239   2.819   0.000   4.058
   56        1.239   2.819   0.000   4.058
   57        1.239   2.819   0.000   4.058
   58        1.239   2.819   0.000   4.058
   59        1.239   2.819   0.000   4.058
   60        1.239   2.819   0.000   4.058
   61        1.239   2.819   0.000   4.058
   62        1.239   2.819   0.000   4.058
   63        1.239   2.819   0.000   4.058
   64        1.239   2.819   0.000   4.058
   65        1.239   2.819   0.000   4.058
   66        1.239   2.819   0.000   4.058
   67        1.239   2.819   0.000   4.058
   68        1.239   2.819   0.000   4.058
   69        1.239   2.819   0.000   4.058
   70        1.239   2.819   0.000   4.058
   71        1.239   2.819   0.000   4.058
   72        1.239   2.819   0.000   4.058
   73        0.813   1.564   0.000   2.377
   74        0.837   1.551   0.000   2.388
   75        0.904   1.729   0.000   2.633
   76        1.759   4.414   0.000   6.172
   77        1.759   4.407   0.000   6.166
   78        1.759   4.413   0.000   6.172
   79        1.759   4.401   0.000   6.160
   80        1.759   4.403   0.000   6.161
   81        1.605   3.555   0.000   5.160
   82        1.605   3.558   0.000   5.162
--------------------------------------------------
tot         85.935 185.604   0.000 271.539
 


 magnetization (x)
 
# of ion       s       p       d       tot
------------------------------------------
    1       -0.000  -0.000   0.000  -0.000
    2       -0.000  -0.000   0.000  -0.000
    3       -0.000  -0.000   0.000  -0.000
    4       -0.000  -0.000   0.000  -0.000
    5       -0.000  -0.000   0.000  -0.000
    6       -0.000  -0.000   0.000  -0.000
    7       -0.000  -0.000   0.000  -0.000
    8       -0.000  -0.000   0.000  -0.000
    9       -0.000  -0.000   0.000  -0.000
   10       -0.000  -0.000   0.000  -0.000
   11       -0.000  -0.000   0.000  -0.000
   12       -0.000  -0.000   0.000  -0.000
   13       -0.000  -0.000   0.000  -0.000
   14       -0.000  -0.000   0.000  -0.000
   15       -0.000  -0.000   0.000  -0.000
   16       -0.000   0.000   0.000   0.000
   17       -0.000  -0.000   0.000  -0.000
   18       -0.000  -0.000   0.000  -0.000
   19       -0.000  -0.000   0.000  -0.000
   20       -0.000  -0.000   0.000  -0.000
   21       -0.000  -0.000   0.000  -0.000
   22       -0.000  -0.000   0.000  -0.000
   23       -0.000  -0.000   0.000  -0.000
   24       -0.000  -0.000   0.000  -0.000
   25       -0.000  -0.000   0.000  -0.000
   26       -0.000  -0.000   0.000  -0.000
   27       -0.000  -0.000   0.000  -0.000
   28       -0.000  -0.000   0.000  -0.000
   29       -0.000  -0.000   0.000  -0.000
   30       -0.000  -0.000   0.000  -0.000
   31       -0.000  -0.000   0.000  -0.000
   32       -0.000  -0.000   0.000  -0.000
   33       -0.000  -0.000   0.000  -0.000
   34       -0.000  -0.000   0.000  -0.000
   35       -0.000  -0.000   0.000  -0.000
   36       -0.000  -0.000   0.000  -0.000
   37        0.000   0.000   0.000   0.000
   38        0.000   0.000   0.000   0.000
   39        0.000   0.000   0.000   0.000
   40        0.000   0.000   0.000   0.000
   41        0.000   0.000   0.000   0.000
   42        0.000   0.000   0.000   0.000
   43        0.000   0.000   0.000   0.000
   44        0.000   0.000   0.000   0.000
   45        0.000   0.000   0.000   0.000
   46        0.000   0.000   0.000   0.000
   47        0.000   0.000   0.000   0.000
   48        0.000   0.000   0.000   0.000
   49        0.000   0.000   0.000   0.000
   50        0.000   0.000   0.000   0.000
   51        0.000   0.000   0.000   0.000
   52        0.000   0.000   0.000   0.000
   53        0.000   0.000   0.000   0.000
   54        0.000   0.000   0.000   0.000
   55        0.000   0.000   0.000   0.000
   56        0.000   0.000   0.000   0.000
   57        0.000   0.000   0.000   0.000
   58        0.000   0.000   0.000   0.000
   59        0.000   0.000   0.000   0.000
   60        0.000   0.000   0.000   0.000
   61        0.000   0.000   0.000   0.000
   62        0.000   0.000   0.000   0.000
   63        0.000   0.000   0.000   0.000
   64        0.000   0.000   0.000   0.000
   65        0.000   0.000   0.000   0.000
   66        0.000   0.000   0.000   0.000
   67        0.000   0.000   0.000   0.000
   68        0.000   0.000   0.000   0.000
   69        0.000   0.000   0.000   0.000
   70        0.000   0.000   0.000   0.000
   71        0.000   0.000   0.000   0.000
   72        0.000   0.000   0.000   0.000
   73        0.005   0.014   0.000   0.019
   74        0.035   0.189   0.000   0.223
   75       -0.014  -0.025   0.000  -0.039
   76       -0.000  -0.000   0.000  -0.000
   77        0.000   0.018   0.000   0.019
   78       -0.000  -0.001   0.000  -0.001
   79        0.001   0.048   0.000   0.050
   80        0.001   0.046   0.000   0.047
   81        0.002   0.168   0.000   0.171
   82        0.002   0.160   0.000   0.162
--------------------------------------------------
tot          0.033   0.619   0.000   0.653
 

 total amount of memory used by VASP MPI-rank0  1463179. kBytes
=======================================================================

   base      :      30000. kBytes
   nonlr-proj:      37383. kBytes
   fftplans  :      81109. kBytes
   grid      :     794361. kBytes
   one-center:        503. kBytes
   wavefun   :     519823. kBytes
 
  
  
 General timing and accounting informations for this job:
 ========================================================
  
                  Total CPU time used (sec):     8476.975
                            User time (sec):     7807.956
                          System time (sec):      669.019
                         Elapsed time (sec):     6480.013
  
                   Maximum memory used (kb):     3162180.
                   Average memory used (kb):           0.
  
                          Minor page faults:      1894532
                          Major page faults:           11
                 Voluntary context switches:        54778
