 vasp.5.4.4.18Apr17-6-g9f103f2a35 (build May 01 2020 14:57:12) complex          
  
 executed on             LinuxIFC date 2021.03.17  21:11:56
 running on  192 total cores
 distrk:  each k-point on   48 cores,    4 groups
 distr:  one band on NCORES_PER_BAND=   1 cores,   48 groups


--------------------------------------------------------------------------------------------------------


 INCAR:
 POTCAR:    PAW_PBE B 06Sep2000                   
 POTCAR:    PAW_PBE N 08Apr2002                   
 POTCAR:    PAW_PBE O 08Apr2002                   

 ----------------------------------------------------------------------------- 
|                                                                             |
|           W    W    AA    RRRRR   N    N  II  N    N   GGGG   !!!           |
|           W    W   A  A   R    R  NN   N  II  NN   N  G    G  !!!           |
|           W    W  A    A  R    R  N N  N  II  N N  N  G       !!!           |
|           W WW W  AAAAAA  RRRRR   N  N N  II  N  N N  G  GGG   !            |
|           WW  WW  A    A  R   R   N   NN  II  N   NN  G    G                |
|           W    W  A    A  R    R  N    N  II  N    N   GGGG   !!!           |
|                                                                             |
|      For optimal performance we recommend to set                            |
|        NCORE= 4 - approx SQRT( number of cores)                             |
|      NCORE specifies how many cores store one orbital (NPAR=cpu/NCORE).     |
|      This setting can  greatly improve the performance of VASP for DFT.     |
|      The default,   NCORE=1            might be grossly inefficient         |
|      on modern multi-core architectures or massively parallel machines.     |
|      Do your own testing !!!!                                               |
|      Unfortunately you need to use the default for GW and RPA calculations. |
|      (for HF NCORE is supported but not extensively tested yet)             |
|                                                                             |
 ----------------------------------------------------------------------------- 


 ----------------------------------------------------------------------------- 
|                                                                             |
|           W    W    AA    RRRRR   N    N  II  N    N   GGGG   !!!           |
|           W    W   A  A   R    R  NN   N  II  NN   N  G    G  !!!           |
|           W    W  A    A  R    R  N N  N  II  N N  N  G       !!!           |
|           W WW W  AAAAAA  RRRRR   N  N N  II  N  N N  G  GGG   !            |
|           WW  WW  A    A  R   R   N   NN  II  N   NN  G    G                |
|           W    W  A    A  R    R  N    N  II  N    N   GGGG   !!!           |
|                                                                             |
|      You have enabled k-point parallelism (KPAR>1).                         |
|      This developmental code was originally  written by Paul Kent at ORNL,  |
|      and carefully double checked in Vienna.                                |
|      GW as well as linear response parallelism added by Martijn Marsman     |
|      and Georg Kresse.                                                      |
|      Carefully verify results versus KPAR=1.                                |
|      Report problems to Paul Kent and Vienna.                               |
|                                                                             |
 ----------------------------------------------------------------------------- 

 POTCAR:    PAW_PBE B 06Sep2000                   
   VRHFIN =B: s2p1                                                              
   LEXCH  = PE                                                                  
   EATOM  =    71.1703 eV,    5.2309 Ry                                         
                                                                                
   TITEL  = PAW_PBE B 06Sep2000                                                 
   LULTRA =        F    use ultrasoft PP ?                                      
   IUNSCR =        1    unscreen: 0-lin 1-nonlin 2-no                           
   RPACOR =    1.200    partial core radius                                     
   POMASS =   10.811; ZVAL   =    3.000    mass and valenz                      
   RCORE  =    1.700    outmost cutoff radius                                   
   RWIGS  =    1.710; RWIGS  =    0.905    wigner-seitz radius (au A)           
   ENMAX  =  318.614; ENMIN  =  238.960 eV                                      
   ICORE  =        2    local potential                                         
   LCOR   =        T    correct aug charges                                     
   LPAW   =        T    paw PP                                                  
   EAUG   =  535.514                                                            
   DEXC   =    0.000                                                            
   RMAX   =    1.732    core radius for proj-oper                               
   RAUG   =    1.300    factor for augmentation sphere                          
   RDEP   =    1.757    radius for radial grids                                 
   RDEPT  =    1.436    core radius for aug-charge                              
                                                                                
   Atomic configuration                                                         
    4 entries                                                                   
     n  l   j            E        occ.                                          
     1  0  0.50      -180.5896   2.0000                                         
     2  0  0.50        -9.4431   2.0000                                         
     2  1  0.50        -3.6068   1.0000                                         
     3  2  1.50        -4.0817   0.0000                                         
   Description                                                                  
     l       E           TYP  RCUT    TYP  RCUT                                 
     0     -9.4430752     23  1.500                                             
     0      0.8675899     23  1.500                                             
     1     -3.6067955     23  1.700                                             
     1      6.1086146     23  1.700                                             
     2     -4.0817478      7  1.700                                             
  local pseudopotential read in
  partial core-charges read in
  partial kinetic energy density read in
  atomic valenz-charges read in
  non local Contribution for L=           0  read in
    real space projection operators read in
  non local Contribution for L=           0  read in
    real space projection operators read in
  non local Contribution for L=           1  read in
    real space projection operators read in
  non local Contribution for L=           1  read in
    real space projection operators read in
    PAW grid and wavefunctions read in
 
   number of l-projection  operators is LMAX  =           4
   number of lm-projection operators is LMMAX =           8
 
 POTCAR:    PAW_PBE N 08Apr2002                   
   VRHFIN =N: s2p3                                                              
   LEXCH  = PE                                                                  
   EATOM  =   264.5486 eV,   19.4438 Ry                                         
                                                                                
   TITEL  = PAW_PBE N 08Apr2002                                                 
   LULTRA =        F    use ultrasoft PP ?                                      
   IUNSCR =        1    unscreen: 0-lin 1-nonlin 2-no                           
   RPACOR =    1.200    partial core radius                                     
   POMASS =   14.001; ZVAL   =    5.000    mass and valenz                      
   RCORE  =    1.500    outmost cutoff radius                                   
   RWIGS  =    1.400; RWIGS  =    0.741    wigner-seitz radius (au A)           
   ENMAX  =  400.000; ENMIN  =  300.000 eV                                      
   ICORE  =        2    local potential                                         
   LCOR   =        T    correct aug charges                                     
   LPAW   =        T    paw PP                                                  
   EAUG   =  627.112                                                            
   DEXC   =    0.000                                                            
   RMAX   =    1.529    core radius for proj-oper                               
   RAUG   =    1.300    factor for augmentation sphere                          
   RDEP   =    1.514    radius for radial grids                                 
   RDEPT  =    1.338    core radius for aug-charge                              
                                                                                
   Atomic configuration                                                         
    4 entries                                                                   
     n  l   j            E        occ.                                          
     1  0  0.50      -384.7179   2.0000                                         
     2  0  0.50       -18.5828   2.0000                                         
     2  1  0.50        -7.0898   3.0000                                         
     3  2  1.50        -6.8029   0.0000                                         
   Description                                                                  
     l       E           TYP  RCUT    TYP  RCUT                                 
     0    -18.5828119     23  1.200                                             
     0    -13.5018863     23  1.200                                             
     1     -7.0897853     23  1.500                                             
     1      9.5240782     23  1.500                                             
     2     -6.8029130      7  1.500                                             
  local pseudopotential read in
  partial core-charges read in
  partial kinetic energy density read in
  atomic valenz-charges read in
  non local Contribution for L=           0  read in
    real space projection operators read in
  non local Contribution for L=           0  read in
    real space projection operators read in
  non local Contribution for L=           1  read in
    real space projection operators read in
  non local Contribution for L=           1  read in
    real space projection operators read in
    PAW grid and wavefunctions read in
 
   number of l-projection  operators is LMAX  =           4
   number of lm-projection operators is LMMAX =           8
 
 POTCAR:    PAW_PBE O 08Apr2002                   
   VRHFIN =O: s2p4                                                              
   LEXCH  = PE                                                                  
   EATOM  =   432.3788 eV,   31.7789 Ry                                         
                                                                                
   TITEL  = PAW_PBE O 08Apr2002                                                 
   LULTRA =        F    use ultrasoft PP ?                                      
   IUNSCR =        1    unscreen: 0-lin 1-nonlin 2-no                           
   RPACOR =    1.200    partial core radius                                     
   POMASS =   16.000; ZVAL   =    6.000    mass and valenz                      
   RCORE  =    1.520    outmost cutoff radius                                   
   RWIGS  =    1.550; RWIGS  =    0.820    wigner-seitz radius (au A)           
   ENMAX  =  400.000; ENMIN  =  300.000 eV                                      
   ICORE  =        2    local potential                                         
   LCOR   =        T    correct aug charges                                     
   LPAW   =        T    paw PP                                                  
   EAUG   =  605.392                                                            
   DEXC   =    0.000                                                            
   RMAX   =    1.553    core radius for proj-oper                               
   RAUG   =    1.300    factor for augmentation sphere                          
   RDEP   =    1.550    radius for radial grids                                 
   RDEPT  =    1.329    core radius for aug-charge                              
                                                                                
   Atomic configuration                                                         
    4 entries                                                                   
     n  l   j            E        occ.                                          
     1  0  0.50      -514.6923   2.0000                                         
     2  0  0.50       -23.9615   2.0000                                         
     2  1  0.50        -9.0305   4.0000                                         
     3  2  1.50        -9.5241   0.0000                                         
   Description                                                                  
     l       E           TYP  RCUT    TYP  RCUT                                 
     0    -23.9615318     23  1.200                                             
     0     -9.5240782     23  1.200                                             
     1     -9.0304911     23  1.520                                             
     1      8.1634956     23  1.520                                             
     2     -9.5240782      7  1.500                                             
  local pseudopotential read in
  partial core-charges read in
  partial kinetic energy density read in
  kinetic energy density of atom read in
  atomic valenz-charges read in
  non local Contribution for L=           0  read in
    real space projection operators read in
  non local Contribution for L=           0  read in
    real space projection operators read in
  non local Contribution for L=           1  read in
    real space projection operators read in
  non local Contribution for L=           1  read in
    real space projection operators read in
    PAW grid and wavefunctions read in
 
   number of l-projection  operators is LMAX  =           4
   number of lm-projection operators is LMMAX =           8
 
 Optimization of the real space projectors (new method)

 maximal supplied QI-value         = 22.11
 optimisation between [QCUT,QGAM] = [ 11.94, 23.88] = [ 39.92,159.67] Ry 
 Optimized for a Real-space Cutoff    1.18 Angstroem

   l    n(q)    QCUT    max X(q) W(low)/X(q) W(high)/X(q)  e(spline) 
   0      8    11.939    53.033    0.11E-03    0.34E-03    0.60E-07
   0      8    11.939    34.740    0.11E-03    0.34E-03    0.59E-07
   1      8    11.939    30.949    0.22E-03    0.20E-03    0.17E-06
   1      8    11.939    19.518    0.20E-03    0.18E-03    0.16E-06
 Optimization of the real space projectors (new method)

 maximal supplied QI-value         = 25.13
 optimisation between [QCUT,QGAM] = [ 11.81, 23.88] = [ 39.08,159.64] Ry 
 Optimized for a Real-space Cutoff    1.41 Angstroem

   l    n(q)    QCUT    max X(q) W(low)/X(q) W(high)/X(q)  e(spline) 
   0     10    11.813    79.467    0.48E-04    0.30E-04    0.67E-06
   0     10    11.813    66.151    0.47E-04    0.30E-04    0.67E-06
   1     10    11.813    20.169    0.11E-03    0.17E-03    0.11E-05
   1     10    11.813    14.454    0.11E-03    0.17E-03    0.11E-05
 Optimization of the real space projectors (new method)

 maximal supplied QI-value         = 24.76
 optimisation between [QCUT,QGAM] = [ 11.88, 24.01] = [ 39.54,161.47] Ry 
 Optimized for a Real-space Cutoff    1.18 Angstroem

   l    n(q)    QCUT    max X(q) W(low)/X(q) W(high)/X(q)  e(spline) 
   0      8    11.883    20.381    0.86E-04    0.11E-03    0.31E-06
   0      8    11.883    15.268    0.94E-04    0.12E-03    0.33E-06
   1      8    11.883     5.964    0.19E-03    0.18E-04    0.33E-06
   1      8    11.883     5.382    0.17E-03    0.20E-04    0.29E-06
  PAW_PBE B 06Sep2000                   :
 energy of atom  1       EATOM=  -71.1703
 kinetic energy error for atom=    0.0009 (will be added to EATOM!!)
  PAW_PBE N 08Apr2002                   :
 energy of atom  2       EATOM= -264.5486
 kinetic energy error for atom=    0.0116 (will be added to EATOM!!)
  PAW_PBE O 08Apr2002                   :
 energy of atom  3       EATOM= -432.3788
 kinetic energy error for atom=    0.0194 (will be added to EATOM!!)
 
 
 POSCAR: B N O                                   
  positions in direct lattice
  velocities in cartesian coordinates

 METAGGA = SCAN     LMAXTAU =  6    LMIXTAU =  F

 exchange correlation table for  LEXCH =        8
   RHO(1)=    0.500       N(1)  =     2000
   RHO(2)=  100.500       N(2)  =     4000
 


--------------------------------------------------------------------------------------------------------


 ion  position               nearest neighbor table
   1  0.166  0.083  0.500-  17 1.45  20 1.45  21 1.47
   2  0.166  0.333  0.500-  17 1.45  18 1.45  22 1.47
   3  0.167  0.583  0.500-  18 1.45  23 1.45  19 1.45
   4  0.167  0.833  0.500-  20 1.45  19 1.45  24 1.45
   5  0.416  0.083  0.500-  24 1.44  25 1.45  21 1.45
   6  0.412  0.331  0.500-  21 1.42  22 1.42  32 1.49
   7  0.416  0.584  0.500-  23 1.44  22 1.45  26 1.45
   8  0.417  0.833  0.500-  27 1.45  23 1.45  24 1.45
   9  0.667  0.083  0.500-  28 1.45  27 1.45  25 1.47
  10  0.669  0.331  0.500-  25 1.42  29 1.42  32 1.49
  11  0.669  0.588  0.500-  30 1.42  26 1.42  32 1.49
  12  0.667  0.834  0.500-  31 1.45  27 1.45  26 1.47
  13  0.917  0.083  0.500-  17 1.45  31 1.45  28 1.45
  14  0.917  0.333  0.500-  28 1.45  18 1.45  29 1.47
  15  0.917  0.584  0.500-  19 1.44  29 1.45  30 1.45
  16  0.917  0.834  0.500-  31 1.45  20 1.45  30 1.47
  17  0.083  0.167  0.500-   2 1.45   1 1.45  13 1.45
  18  0.083  0.417  0.500-  14 1.45   2 1.45   3 1.45
  19  0.083  0.667  0.500-  15 1.44   4 1.45   3 1.45
  20  0.083  0.917  0.500-   1 1.45  16 1.45   4 1.45
  21  0.335  0.168  0.500-   6 1.42   5 1.45   1 1.47
  22  0.335  0.417  0.500-   6 1.42   7 1.45   2 1.47
  23  0.333  0.667  0.500-   7 1.44   3 1.45   8 1.45
  24  0.333  0.917  0.500-   5 1.44   4 1.45   8 1.45
  25  0.583  0.168  0.500-  10 1.42   5 1.45   9 1.47
  26  0.583  0.665  0.500-  11 1.42   7 1.45  12 1.47
  27  0.583  0.917  0.500-   9 1.45  12 1.45   8 1.45
  28  0.833  0.167  0.500-   9 1.45  14 1.45  13 1.45
  29  0.832  0.417  0.500-  10 1.42  15 1.45  14 1.47
  30  0.832  0.665  0.500-  11 1.42  15 1.45  16 1.47
  31  0.833  0.917  0.500-  12 1.45  16 1.45  13 1.45
  32  0.583  0.417  0.500-   6 1.49  11 1.49  10 1.49
 
  LATTYP: Found a hexagonal cell.
 ALAT       =    10.0487671536
 C/A-ratio  =     3.4944251219
  
  Lattice vectors:
  
 A1 = (   5.0243667045,  -8.7024973730,   0.0000000000)
 A2 = (   5.0243667045,   8.7024973730,   0.0000000000)
 A3 = (   0.0000000000,   0.0000000000,  35.1146643856)


Analysis of symmetry for initial positions (statically):
=====================================================================
 Subroutine PRICEL returns:
 Original cell was already a primitive cell.
 

 Routine SETGRP: Setting up the symmetry group for a 
 hexagonal supercell.


 Subroutine GETGRP returns: Found 12 space group operations
 (whereof  4 operations were pure point group operations)
 out of a pool of 24 trial point group operations.


The static configuration has the point symmetry C_2v.
 The point group associated with its full space group is D_3h.


Analysis of symmetry for dynamics (positions and initial velocities):
=====================================================================
 Subroutine PRICEL returns:
 Original cell was already a primitive cell.
 

 Routine SETGRP: Setting up the symmetry group for a 
 hexagonal supercell.


 Subroutine GETGRP returns: Found 12 space group operations
 (whereof  4 operations were pure point group operations)
 out of a pool of 24 trial point group operations.


The dynamic configuration has the point symmetry C_2v.
 The point group associated with its full space group is D_3h.


Analysis of constrained symmetry for selective dynamics:
=====================================================================
 Subroutine PRICEL returns:
 Original cell was already a primitive cell.
 

 Routine SETGRP: Setting up the symmetry group for a 
 hexagonal supercell.


 Subroutine GETGRP returns: Found 12 space group operations
 (whereof  4 operations were pure point group operations)
 out of a pool of 24 trial point group operations.


The constrained configuration has the point symmetry C_2v.
 The point group associated with its full space group is D_3h.


Analysis of structural, dynamic, and magnetic symmetry:
=====================================================================
 Subroutine PRICEL returns:
 Original cell was already a primitive cell.
 

 Routine SETGRP: Setting up the symmetry group for a 
 hexagonal supercell.


 Subroutine GETGRP returns: Found 12 space group operations
 (whereof  4 operations were pure point group operations)
 out of a pool of 24 trial point group operations.


The magnetic configuration has the point symmetry C_2v.
 The point group associated with its full space group is D_3h.


 Subroutine INISYM returns: Found 12 space group operations
 (whereof  4 operations are pure point group operations),
 and found     1 'primitive' translations

 
 
 KPOINTS: K-Point Grid                            

Automatic generation of k-mesh.
Space group operators:
 irot       det(A)        alpha          n_x          n_y          n_z        tau_x        tau_y        tau_z
    1     1.000000     0.000000     1.000000     0.000000     0.000000     0.000000     0.000000     0.000000
    2    -1.000000   180.000000     0.000000     0.000000     1.000000     0.000000     0.000000     0.000000
    3     1.000000   180.000000     0.000000     1.000000     0.000000     0.000000     0.000000     0.000000
    4    -1.000000   180.000000     1.000000     0.000000     0.000000     0.000000     0.000000     0.000000
    5    -1.000000    60.000000     0.000000     0.000000    -1.000000     0.750001     0.000001     0.000000
    6     1.000000   120.000000     0.000000     0.000000    -1.000000     0.000001     0.250000     0.000000
    7     1.000000   120.000000     0.000000     0.000000     1.000000     0.750001     0.000001     0.000000
    8    -1.000000    60.000000     0.000000     0.000000     1.000000     0.000001     0.250000     0.000000
    9    -1.000000   180.000000     0.500002    -0.866024     0.000000     0.750001     0.000000     0.000000
   10    -1.000000   180.000000    -0.500002    -0.866024     0.000000     0.000000     0.250000     0.000000
   11     1.000000   180.000000     0.866026     0.499998     0.000000     0.750001     0.000000     0.000000
   12     1.000000   180.000000     0.866026    -0.499998     0.000000     0.000000     0.250000     0.000000
 
 Subroutine IBZKPT returns following result:
 ===========================================
 
 Found      6 irreducible k-points:
 
 Following reciprocal coordinates:
            Coordinates               Weight
  0.125000  0.125000  0.000000     48.000000
  0.375000  0.125000  0.000000     96.000000
 -0.375000  0.125000  0.000000     96.000000
 -0.125000  0.125000  0.000000     48.000000
  0.375000  0.375000  0.000000     48.000000
 -0.375000  0.375000  0.000000     48.000000
 
 Following cartesian coordinates:
            Coordinates               Weight
  0.024879  0.000000  0.000000     48.000000
  0.049758 -0.014364  0.000000     96.000000
 -0.024879  0.028727  0.000000     96.000000
  0.000000  0.014364  0.000000     48.000000
  0.074636  0.000000  0.000000     48.000000
  0.000000  0.043091  0.000000     48.000000
 


--------------------------------------------------------------------------------------------------------




 Dimension of arrays:
   k-points           NKPTS =      6   k-points in BZ     NKDIM =      6   number of bands    NBANDS=    144
   number of dos      NEDOS =   1200   number of ions     NIONS =     32
   non local maximal  LDIM  =      4   non local SUM 2l+1 LMDIM =      8
   total plane-waves  NPLWV = ******
   max r-space proj   IRMAX =   6598   max aug-charges    IRDMAX=   8974
   dimension x,y,z NGX =    80 NGY =   80 NGZ =  270
   dimension x,y,z NGXF=   160 NGYF=  160 NGZF=  540
   support grid    NGXF=   160 NGYF=  160 NGZF=  540
   ions per type =              16  15   1
   NGX,Y,Z   is equivalent  to a cutoff of  13.24, 13.24, 12.78 a.u.
   NGXF,Y,Z  is equivalent  to a cutoff of  26.47, 26.47, 25.57 a.u.

 SYSTEM =  SiC                                     
 POSCAR =  B N O                                   

 Startparameter for this run:
   NWRITE =      2    write-flag & timer
   PREC   = accura    normal or accurate (medium, high low for compatibility)
   ISTART =      1    job   : 0-new  1-cont  2-samecut
   ICHARG =      0    charge: 1-file 2-atom 10-const
   ISPIN  =      2    spin polarized calculation?
   LNONCOLLINEAR =      F non collinear calculations
   LSORBIT =      F    spin-orbit coupling
   INIWAV =      1    electr: 0-lowe 1-rand  2-diag
   LASPH  =      T    aspherical Exc in radial PAW
   METAGGA=      F    non-selfconsistent MetaGGA calc.

 Electronic Relaxation 1
   ENCUT  =  550.0 eV  40.42 Ry    6.36 a.u.  19.22 19.22 67.15*2*pi/ulx,y,z
   ENINI  =  550.0     initial cutoff
   ENAUG  =  627.1 eV  augmentation charge cutoff
   NELM   =    100;   NELMIN=  2; NELMDL=  0     # of ELM steps 
   EDIFF  = 0.1E-04   stopping-criterion for ELM
   LREAL  =      T    real-space projection
   NLSPLINE    = F    spline interpolate recip. space projectors
   LCOMPAT=      F    compatible to vasp.4.4
   GGA_COMPAT  = T    GGA compatible to vasp.4.4-vasp.4.6
   LMAXPAW     = -100 max onsite density
   LMAXMIX     =    2 max onsite mixed and CHGCAR
   VOSKOWN=      0    Vosko Wilk Nusair interpolation
   ROPT   =   -0.00025  -0.00025  -0.00025
 Ionic relaxation
   EDIFFG = -.2E-01   stopping-criterion for IOM
   NSW    =    500    number of steps for IOM
   NBLOCK =      1;   KBLOCK =    500    inner block; outer block 
   IBRION =      2    ionic relax: 0-MD 1-quasi-New 2-CG
   NFREE  =      1    steps in history (QN), initial steepest desc. (CG)
   ISIF   =      2    stress and relaxation
   IWAVPR =     11    prediction:  0-non 1-charg 2-wave 3-comb
   ISYM   =      2    0-nonsym 1-usesym 2-fastsym
   LCORR  =      T    Harris-Foulkes like correction to forces

   POTIM  = 0.5000    time-step for ionic-motion
   TEIN   =    0.0    initial temperature
   TEBEG  =    0.0;   TEEND  =   0.0 temperature during run
   SMASS  =  -3.00    Nose mass-parameter (am)
   estimated Nose-frequenzy (Omega)   =  0.10E-29 period in steps =****** mass=  -0.231E-26a.u.
   SCALEE = 1.0000    scale energy and forces
   NPACO  =    256;   APACO  = 16.0  distance and # of slots for P.C.
   PSTRESS=    0.0 pullay stress

  Mass of Ions in am
   POMASS =  10.81 14.00 16.00
  Ionic Valenz
   ZVAL   =   3.00  5.00  6.00
  Atomic Wigner-Seitz radii
   RWIGS  =  -1.00 -1.00 -1.00
  virtual crystal weights 
   VCA    =   1.00  1.00  1.00
   NELECT =     129.0000    total number of electrons
   NUPDOWN=      -1.0000    fix difference up-down

 DOS related values:
   EMIN   =  10.00;   EMAX   =-10.00  energy-range for DOS
   EFERMI =   0.00
   ISMEAR =     0;   SIGMA  =   0.05  broadening in eV -4-tet -1-fermi 0-gaus

 Electronic relaxation 2 (details)
   IALGO  =     68    algorithm
   LDIAG  =      T    sub-space diagonalisation (order eigenvalues)
   LSUBROT=      F    optimize rotation matrix (better conditioning)
   TURBO    =      0    0=normal 1=particle mesh
   IRESTART =      0    0=no restart 2=restart with 2 vectors
   NREBOOT  =      0    no. of reboots
   NMIN     =      0    reboot dimension
   EREF     =   0.00    reference energy to select bands
   IMIX   =      4    mixing-type and parameters
     AMIX     =   0.40;   BMIX     =  1.00
     AMIX_MAG =   1.60;   BMIX_MAG =  1.00
     AMIN     =   0.10
     WC   =   100.;   INIMIX=   1;  MIXPRE=   1;  MAXMIX= -45

 Intra band minimization:
   WEIMIN = 0.0010     energy-eigenvalue tresh-hold
   EBREAK =  0.17E-07  absolut break condition
   DEPER  =   0.30     relativ break condition  

   TIME   =   0.40     timestep for ELM

  volume/ion in A,a.u.               =      95.96       647.58
  Fermi-wavevector in a.u.,A,eV,Ry     =   0.569102  1.075447  4.406616  0.323877
  Thomas-Fermi vector in A             =   1.608603
 
 Write flags
   LWAVE        =      T    write WAVECAR
   LDOWNSAMPLE  =      F    k-point downsampling of WAVECAR
   LCHARG       =      F    write CHGCAR
   LVTOT        =      F    write LOCPOT, total local potential
   LVHAR        =      T    write LOCPOT, Hartree potential only
   LELF         =      F    write electronic localiz. function (ELF)
   LORBIT       =     11    0 simple, 1 ext, 2 COOP (PROOUT), +10 PAW based schemes


 Dipole corrections
   LMONO  =      F    monopole corrections only (constant potential shift)
   LDIPOL =      F    correct potential (dipole corrections)
   IDIPOL =      0    1-x, 2-y, 3-z, 4-all directions 
   EPSILON=  1.0000000 bulk dielectric constant

 Exchange correlation treatment:
   GGA     =    --    GGA type
   LEXCH   =     8    internal setting for exchange type
   VOSKOWN=      0    Vosko Wilk Nusair interpolation
   LHFCALC =     F    Hartree Fock is set to
   LHFONE  =     F    Hartree Fock one center treatment
   AEXX    =    0.0000 exact exchange contribution

 Linear response parameters
   LEPSILON=     F    determine dielectric tensor
   LRPA    =     F    only Hartree local field effects (RPA)
   LNABLA  =     F    use nabla operator in PAW spheres
   LVEL    =     F    velocity operator in full k-point grid
   LINTERFAST=   F  fast interpolation
   KINTER  =     0    interpolate to denser k-point grid
   CSHIFT  =0.1000    complex shift for real part using Kramers Kronig
   OMEGAMAX=  -1.0    maximum frequency
   DEG_THRESHOLD= 0.2000000E-02 threshold for treating states as degnerate
   RTIME   =   -0.100 relaxation time in fs
  (WPLASMAI=    0.000 imaginary part of plasma frequency in eV, 0.658/RTIME)
   DFIELD  = 0.0000000 0.0000000 0.0000000 field for delta impulse in time
 
 Orbital magnetization related:
   ORBITALMAG=     F  switch on orbital magnetization
   LCHIMAG   =     F  perturbation theory with respect to B field
   DQ        =  0.001000  dq finite difference perturbation B field
   LLRAUG    =     F  two centre corrections for induced B field

 Solvation model:
   LSOL    =     T         switch on solvation model
   EB_K    = 78.400000     relative permittivity of the bulk solvent
   SIGMA_K =  0.600000     width of the dielectric cavity
   NC_K    =  0.002500     cutoff charge density
   TAU     =  0.000000     cavity surface tension
   LAMBDA_D_K    =  3.040000     Debye length in Angstroms
   LRHOB     =     F     write boundcharge  density
   LRHOION     =     F     write ioniccharge density



--------------------------------------------------------------------------------------------------------


 conjugate gradient relaxation of ions
   using selective dynamics as specified on POSCAR
 charge density and potential will be updated during run
 spin polarized calculation
 RMM-DIIS sequential band-by-band and
  variant of blocked Davidson during initial phase
 perform sub-space diagonalisation
    before iterative eigenvector-optimisation
 modified Broyden-mixing scheme, WC =      100.0
 initial mixing is a Kerker type mixing with AMIX =  0.4000 and BMIX =      1.0000
 Hartree-type preconditioning will be used
 using additional bands           79
 real space projection scheme for non local part
 use partial core corrections
 calculate Harris-corrections to forces 
   (improved forces if not selfconsistent)
 use gradient corrections 
 use of overlap-Matrix (Vanderbilt PP)
 Gauss-broadening in eV      SIGMA  =   0.05


--------------------------------------------------------------------------------------------------------


  energy-cutoff  :      550.00
  volume of cell :     3070.74
      direct lattice vectors                 reciprocal lattice vectors
     5.024366704 -8.702497373  0.000000000     0.099515029 -0.057454772  0.000000000
     5.024366704  8.702497373  0.000000000     0.099515029  0.057454772  0.000000000
     0.000000000  0.000000000 35.114664386     0.000000000  0.000000000  0.028478131

  length of vectors
    10.048767154 10.048767154 35.114664386     0.114909929  0.114909929  0.028478131


 
 old parameters found on file WAVECAR:
  energy-cutoff  :      550.00
  volume of cell :     3070.74
      direct lattice vectors                 reciprocal lattice vectors
     5.024366704 -8.702497373  0.000000000     0.099515029 -0.057454772  0.000000000
     5.024366704  8.702497373  0.000000000     0.099515029  0.057454772  0.000000000
     0.000000000  0.000000000 35.114664386     0.000000000  0.000000000  0.028478131

  length of vectors

 
 k-points in units of 2pi/SCALE and weight: K-Point Grid                            
   0.02487876  0.00000000  0.00000000       0.125
   0.04975751 -0.01436369  0.00000000       0.250
  -0.02487876  0.02872739  0.00000000       0.250
   0.00000000  0.01436369  0.00000000       0.125
   0.07463627  0.00000000  0.00000000       0.125
   0.00000000  0.04309108  0.00000000       0.125
 
 k-points in reciprocal lattice and weights: K-Point Grid                            
   0.12500000  0.12500000  0.00000000       0.125
   0.37500000  0.12500000  0.00000000       0.250
  -0.37500000  0.12500000  0.00000000       0.250
  -0.12500000  0.12500000  0.00000000       0.125
   0.37500000  0.37500000  0.00000000       0.125
  -0.37500000  0.37500000  0.00000000       0.125
 
 position of ions in fractional coordinates (direct lattice) 
   0.16604295  0.08319826  0.50000000
   0.16604295  0.33284525  0.50000000
   0.16662531  0.58325019  0.50000000
   0.16662531  0.83337568  0.50000000
   0.41635568  0.08271092  0.50000000
   0.41181186  0.33090621  0.50000000
   0.41635568  0.58364532  0.50000000
   0.41675081  0.83337568  0.50000000
   0.66715575  0.08319826  0.50000000
   0.66909479  0.33090621  0.50000000
   0.66909479  0.58818914  0.50000000
   0.66715575  0.83395805  0.50000000
   0.91666715  0.08333385  0.50000000
   0.91680274  0.33284525  0.50000000
   0.91729008  0.58364532  0.50000000
   0.91680274  0.83395805  0.50000000
   0.08348133  0.16674088  0.50000000
   0.08327349  0.41654642  0.50000000
   0.08302603  0.66651323  0.50000000
   0.08327349  0.91672751  0.50000000
   0.33453698  0.16774768  0.50000000
   0.33453698  0.41678974  0.50000000
   0.33348777  0.66651323  0.50000000
   0.33348777  0.91697497  0.50000000
   0.58321126  0.16774768  0.50000000
   0.58321126  0.66546402  0.50000000
   0.58345458  0.91672751  0.50000000
   0.83326012  0.16674088  0.50000000
   0.83225332  0.41678974  0.50000000
   0.83225332  0.66546402  0.50000000
   0.83326012  0.91651967  0.50000000
   0.58333385  0.41666715  0.50000000
 
 position of ions in cartesian coordinates  (Angst):
   1.25227924 -0.72095571 17.55733219
   2.50659727  1.45159658 17.55733219
   3.76764952  3.62567689 17.55733219
   5.02437172  5.80239334 17.55733219
   2.50749363 -2.90354263 17.55733219
   3.73168792 -0.70408120 17.55733219
   5.02437172  1.45583762 17.55733219
   6.28109392  3.62567689 17.55733219
   3.77005368 -5.08188850 17.55733219
   5.02437172 -2.94308524 17.55733219
   6.31705552 -0.70408120 17.55733219
   7.54214617  1.45159658 17.55733219
   5.02437172 -7.25208079 17.55733219
   6.27868976 -5.08188850 17.55733219
   7.54124981 -2.90354263 17.55733219
   8.79646420 -0.72095571 17.55733219
   1.25720813  0.72456607 17.55733219
   2.51127852  2.90030681 17.55733219
   3.76596009  5.07779588 17.55733219
   5.02437172  7.25313140 17.55733219
   2.52366232 -1.45148342 17.55733219
   3.77494093  0.71580440 17.55733219
   5.02437172  2.89815324 17.55733219
   6.28278335  5.07779588 17.55733219
   3.77309312 -3.61557072 17.55733219
   6.27380251  0.71580440 17.55733219
   7.53746492  2.90030681 17.55733219
   5.02437172 -5.80038188 17.55733219
   6.27565032 -3.61557072 17.55733219
   7.52508112 -1.45148342 17.55733219
   8.79153531  0.72456607 17.55733219
   5.02437172 -1.45041658 17.55733219
 


--------------------------------------------------------------------------------------------------------


 k-point  1 :   0.1250 0.1250 0.0000  plane waves:   89921
 k-point  2 :   0.3750 0.1250 0.0000  plane waves:   89970
 k-point  3 :  -0.3750 0.1250 0.0000  plane waves:   89943
 k-point  4 :  -0.1250 0.1250 0.0000  plane waves:   89893
 k-point  5 :   0.3750 0.3750 0.0000  plane waves:   89957
 k-point  6 :  -0.3750 0.3750 0.0000  plane waves:   89980

 maximum and minimum number of plane-waves per node :     89980    89893

 maximum number of plane-waves:     89980
 maximum index in each direction: 
   IXMAX=   19   IYMAX=   19   IZMAX=   67
   IXMIN=  -19   IYMIN=  -19   IZMIN=  -67


 serial   3D FFT for wavefunctions
 parallel 3D FFT for charge:
    minimum data exchange during FFTs selected (reduces bandwidth)


 total amount of memory used by VASP MPI-rank0   400144. kBytes
=======================================================================

   base      :      30000. kBytes
   nonlr-proj:      14748. kBytes
   fftplans  :      18104. kBytes
   grid      :     285091. kBytes
   one-center:        196. kBytes
   wavefun   :      52005. kBytes
 
     INWAV:  cpu time   11.3869: real time   11.4592
 Broyden mixing: mesh for mixing (old mesh)
   NGX = 39   NGY = 39   NGZ =135
  (NGX  =160   NGY  =160   NGZ  =540)
  gives a total of 205335 points

 charge density for first step will be calculated from the start-wavefunctions


--------------------------------------------------------------------------------------------------------


 Maximum index for non-local projection operator         6351
 Maximum index for augmentation-charges          486 (set IRDMAX)


--------------------------------------------------------------------------------------------------------


 initial charge from wavefunction
 First call to EWALD:  gamma=   0.122
 Maximum number of real-space cells 4x 4x 1
 Maximum number of reciprocal cells 2x 2x 6

    FEWALD:  cpu time    0.0329: real time    0.0330


--------------------------------------- Iteration      1(   1)  ---------------------------------------


    POTLOK:  cpu time   12.0875: real time   12.1360
    SETDIJ:  cpu time    0.6306: real time    0.4877
     EDDAV:  cpu time   29.9619: real time   16.4683
       DOS:  cpu time    0.0108: real time    0.0109
    CHARGE:  cpu time    8.1575: real time    6.1158
    MIXING:  cpu time    0.0631: real time    0.0633
    --------------------------------------------
      LOOP:  cpu time   50.9115: real time   35.2820

 eigenvalue-minimisations  :  3888
 total energy-change (2. order) :-0.3090341E+03  (-0.1880708E-02)
 number of electron     128.9999988 magnetization       0.9025239
 augmentation part        4.0897784 magnetization       0.0118466

 Broyden mixing:
  rms(total) = 0.85184E-02    rms(broyden)= 0.84961E-02
  rms(prec ) = 0.85507E-02
  weight for this iteration     100.00

 Free energy of the ion-electron system (eV)
  ---------------------------------------------------
  alpha Z        PSCENC =        29.96544587
  Ewald energy   TEWEN  =     41539.00478565
  -Hartree energ DENC   =    -45242.00709761
  -exchange      EXHF   =         0.00000000
  -V(xc)+E(xc)   XCENC  =       561.72981633
  PAW double counting   =     15420.47003541   -15477.19502272
  entropy T*S    EENTRO =        -0.00491940
  eigenvalues    EBANDS =     -1855.82714762
  atomic energy  EATOM  =      5539.12394832
  Solvation  Ediel_sol  =      -824.29392199
  ---------------------------------------------------
  free energy    TOTEN  =      -309.03407776 eV

  energy without entropy =     -309.02915836  energy(sigma->0) =     -309.03161806


--------------------------------------------------------------------------------------------------------




--------------------------------------- Iteration      1(   2)  ---------------------------------------


    POTLOK:  cpu time    8.7424: real time    8.7654
    SETDIJ:  cpu time    0.6077: real time    0.4086
    EDDIAG:  cpu time    6.0289: real time    3.4985
  RMM-DIIS:  cpu time   32.5774: real time   19.7024
    ORTHCH:  cpu time    0.1776: real time    0.0901
       DOS:  cpu time    0.0048: real time    0.0024
    CHARGE:  cpu time    8.3871: real time    6.1210
    MIXING:  cpu time    0.0987: real time    0.0989
    --------------------------------------------
      LOOP:  cpu time   56.6247: real time   38.6874

 eigenvalue-minimisations  :  3456
 total energy-change (2. order) :-0.1938414E-03  (-0.1339545E-03)
 number of electron     128.9999988 magnetization       0.9046969
 augmentation part        4.0895635 magnetization      -0.0279374

 Broyden mixing:
  rms(total) = 0.58515E-02    rms(broyden)= 0.58491E-02
  rms(prec ) = 0.58805E-02
  weight for this iteration     100.00

 eigenvalues of (default mixing * dielectric matrix)
  average eigenvalue GAMMA=   1.3065
  1.3065

 Free energy of the ion-electron system (eV)
  ---------------------------------------------------
  alpha Z        PSCENC =        29.96544587
  Ewald energy   TEWEN  =     41539.00478565
  -Hartree energ DENC   =    -45241.96247103
  -exchange      EXHF   =         0.00000000
  -V(xc)+E(xc)   XCENC  =       561.73461418
  PAW double counting   =     15430.28014894   -15487.00146007
  entropy T*S    EENTRO =        -0.00363215
  eigenvalues    EBANDS =     -1855.89963741
  atomic energy  EATOM  =      5539.12394832
  Solvation  Ediel_sol  =      -824.27601391
  ---------------------------------------------------
  free energy    TOTEN  =      -309.03427160 eV

  energy without entropy =     -309.03063946  energy(sigma->0) =     -309.03245553


--------------------------------------------------------------------------------------------------------




--------------------------------------- Iteration      1(   3)  ---------------------------------------


    POTLOK:  cpu time    8.8826: real time    8.9051
    SETDIJ:  cpu time    0.6547: real time    0.4569
    EDDIAG:  cpu time    6.0181: real time    3.4903
  RMM-DIIS:  cpu time   32.4972: real time   19.6573
    ORTHCH:  cpu time    0.1741: real time    0.0884
       DOS:  cpu time    0.0048: real time    0.0024
    CHARGE:  cpu time    8.3438: real time    6.0948
    MIXING:  cpu time    0.0656: real time    0.0658
    --------------------------------------------
      LOOP:  cpu time   56.6409: real time   38.7610

 eigenvalue-minimisations  :  3456
 total energy-change (2. order) : 0.1271184E-03  (-0.2055313E-03)
 number of electron     128.9999988 magnetization       0.9030642
 augmentation part        4.0894559 magnetization       0.0944647

 Broyden mixing:
  rms(total) = 0.72348E-02    rms(broyden)= 0.72346E-02
  rms(prec ) = 0.72688E-02
  weight for this iteration     100.00

 eigenvalues of (default mixing * dielectric matrix)
  average eigenvalue GAMMA=   1.3716
  2.3978  0.3453

 Free energy of the ion-electron system (eV)
  ---------------------------------------------------
  alpha Z        PSCENC =        29.96544587
  Ewald energy   TEWEN  =     41539.00478565
  -Hartree energ DENC   =    -45241.89619429
  -exchange      EXHF   =         0.00000000
  -V(xc)+E(xc)   XCENC  =       561.73278292
  PAW double counting   =     15439.24272366   -15495.96114917
  entropy T*S    EENTRO =        -0.00659644
  eigenvalues    EBANDS =     -1855.97836328
  atomic energy  EATOM  =      5539.12394832
  Solvation  Ediel_sol  =      -824.26152772
  ---------------------------------------------------
  free energy    TOTEN  =      -309.03414449 eV

  energy without entropy =     -309.02754805  energy(sigma->0) =     -309.03084627


--------------------------------------------------------------------------------------------------------




--------------------------------------- Iteration      1(   4)  ---------------------------------------


    POTLOK:  cpu time    8.6039: real time    8.6286
    SETDIJ:  cpu time    0.6369: real time    0.4391
    EDDIAG:  cpu time    6.0110: real time    3.4874
  RMM-DIIS:  cpu time   32.4909: real time   19.6450
    ORTHCH:  cpu time    0.1760: real time    0.0893
       DOS:  cpu time    0.0131: real time    0.0066
    CHARGE:  cpu time    9.4441: real time    6.7294
    MIXING:  cpu time    0.4295: real time    0.4304
    --------------------------------------------
      LOOP:  cpu time   57.8054: real time   39.4559

 eigenvalue-minimisations  :  3456
 total energy-change (2. order) : 0.2362066E-03  (-0.7578053E-03)
 number of electron     128.9999988 magnetization       0.9044382
 augmentation part        4.0893901 magnetization      -0.0842392

 Broyden mixing:
  rms(total) = 0.54110E-02    rms(broyden)= 0.54110E-02
  rms(prec ) = 0.54490E-02
  weight for this iteration     100.00

 eigenvalues of (default mixing * dielectric matrix)
  average eigenvalue GAMMA=   1.2022
  2.5396  0.8257  0.2414

 Free energy of the ion-electron system (eV)
  ---------------------------------------------------
  alpha Z        PSCENC =        29.96544587
  Ewald energy   TEWEN  =     41539.00478565
  -Hartree energ DENC   =    -45241.84181665
  -exchange      EXHF   =         0.00000000
  -V(xc)+E(xc)   XCENC  =       561.72443261
  PAW double counting   =     15445.40272743   -15502.11926273
  entropy T*S    EENTRO =        -0.00090787
  eigenvalues    EBANDS =     -1856.04568492
  atomic energy  EATOM  =      5539.12394832
  Solvation  Ediel_sol  =      -824.24757599
  ---------------------------------------------------
  free energy    TOTEN  =      -309.03390828 eV

  energy without entropy =     -309.03300041  energy(sigma->0) =     -309.03345434


--------------------------------------------------------------------------------------------------------




--------------------------------------- Iteration      1(   5)  ---------------------------------------


    POTLOK:  cpu time    8.6156: real time    8.6366
    SETDIJ:  cpu time    0.6198: real time    0.4198
    EDDIAG:  cpu time    6.0151: real time    3.4869
  RMM-DIIS:  cpu time   32.8428: real time   20.0085
    ORTHCH:  cpu time    0.1751: real time    0.0890
       DOS:  cpu time    0.0055: real time    0.0027
    CHARGE:  cpu time    8.3820: real time    6.1151
    MIXING:  cpu time    0.0496: real time    0.0498
    --------------------------------------------
      LOOP:  cpu time   56.7054: real time   38.8083

 eigenvalue-minimisations  :  3458
 total energy-change (2. order) :-0.8849763E-02  (-0.1057402E-02)
 number of electron     128.9999988 magnetization       0.9029297
 augmentation part        4.0894605 magnetization       0.2589325

 Broyden mixing:
  rms(total) = 0.16913E-01    rms(broyden)= 0.16913E-01
  rms(prec ) = 0.16991E-01
  weight for this iteration     100.00

 eigenvalues of (default mixing * dielectric matrix)
  average eigenvalue GAMMA=   1.1139
  2.5289  1.1810  0.5807  0.1648

 Free energy of the ion-electron system (eV)
  ---------------------------------------------------
  alpha Z        PSCENC =        29.96544587
  Ewald energy   TEWEN  =     41539.00478565
  -Hartree energ DENC   =    -45241.81326383
  -exchange      EXHF   =         0.00000000
  -V(xc)+E(xc)   XCENC  =       561.72829081
  PAW double counting   =     15445.73116370   -15502.44780982
  entropy T*S    EENTRO =        -0.00929335
  eigenvalues    EBANDS =     -1856.08180904
  atomic energy  EATOM  =      5539.12394832
  Solvation  Ediel_sol  =      -824.24421635
  ---------------------------------------------------
  free energy    TOTEN  =      -309.04275804 eV

  energy without entropy =     -309.03346469  energy(sigma->0) =     -309.03811137


--------------------------------------------------------------------------------------------------------




--------------------------------------- Iteration      1(   6)  ---------------------------------------


    POTLOK:  cpu time    8.1365: real time    8.1584
    SETDIJ:  cpu time    0.6374: real time    0.4395
    EDDIAG:  cpu time    6.0096: real time    3.4851
  RMM-DIIS:  cpu time   32.8090: real time   19.9820
    ORTHCH:  cpu time    0.1749: real time    0.0887
       DOS:  cpu time    0.0064: real time    0.0032
    CHARGE:  cpu time    8.3651: real time    6.0990
    MIXING:  cpu time    0.0701: real time    0.0703
    --------------------------------------------
      LOOP:  cpu time   56.2090: real time   38.3263

 eigenvalue-minimisations  :  3458
 total energy-change (2. order) : 0.2068189E-02  (-0.2976176E-02)
 number of electron     128.9999988 magnetization       0.9032502
 augmentation part        4.0894944 magnetization      -0.0953198

 Broyden mixing:
  rms(total) = 0.57248E-02    rms(broyden)= 0.57248E-02
  rms(prec ) = 0.57322E-02
  weight for this iteration     100.00

 eigenvalues of (default mixing * dielectric matrix)
  average eigenvalue GAMMA=   1.0233
  2.5426  1.3252  0.5995  0.4934  0.1559

 Free energy of the ion-electron system (eV)
  ---------------------------------------------------
  alpha Z        PSCENC =        29.96544587
  Ewald energy   TEWEN  =     41539.00478565
  -Hartree energ DENC   =    -45241.80646588
  -exchange      EXHF   =         0.00000000
  -V(xc)+E(xc)   XCENC  =       561.72026892
  PAW double counting   =     15445.76701254   -15502.48377454
  entropy T*S    EENTRO =        -0.00014638
  eigenvalues    EBANDS =     -1856.08998779
  atomic energy  EATOM  =      5539.12394832
  Solvation  Ediel_sol  =      -824.24177656
  ---------------------------------------------------
  free energy    TOTEN  =      -309.04068985 eV

  energy without entropy =     -309.04054347  energy(sigma->0) =     -309.04061666


--------------------------------------------------------------------------------------------------------




--------------------------------------- Iteration      1(   7)  ---------------------------------------


    POTLOK:  cpu time    7.9435: real time    7.9669
    SETDIJ:  cpu time    0.6338: real time    0.4359
    EDDIAG:  cpu time    6.0215: real time    3.4910
  RMM-DIIS:  cpu time   32.9199: real time   20.0634
    ORTHCH:  cpu time    0.1747: real time    0.0887
       DOS:  cpu time    0.0063: real time    0.0031
    CHARGE:  cpu time    8.3343: real time    6.0965
    MIXING:  cpu time    0.0668: real time    0.0670
    --------------------------------------------
      LOOP:  cpu time   56.1008: real time   38.2290

 eigenvalue-minimisations  :  3458
 total energy-change (2. order) : 0.6211715E-03  (-0.2739450E-02)
 number of electron     128.9999988 magnetization       0.9029471
 augmentation part        4.0895139 magnetization       0.1049669

 Broyden mixing:
  rms(total) = 0.65441E-02    rms(broyden)= 0.65441E-02
  rms(prec ) = 0.66012E-02
  weight for this iteration     100.00

 eigenvalues of (default mixing * dielectric matrix)
  average eigenvalue GAMMA=   0.9036
  2.5619  1.2934  0.6155  0.6155  0.2020  0.1330

 Free energy of the ion-electron system (eV)
  ---------------------------------------------------
  alpha Z        PSCENC =        29.96544587
  Ewald energy   TEWEN  =     41539.00478565
  -Hartree energ DENC   =    -45241.81039257
  -exchange      EXHF   =         0.00000000
  -V(xc)+E(xc)   XCENC  =       561.72944302
  PAW double counting   =     15445.80243487   -15502.51924199
  entropy T*S    EENTRO =        -0.00730650
  eigenvalues    EBANDS =     -1856.09248970
  atomic energy  EATOM  =      5539.12394832
  Solvation  Ediel_sol  =      -824.23669566
  ---------------------------------------------------
  free energy    TOTEN  =      -309.04006868 eV

  energy without entropy =     -309.03276219  energy(sigma->0) =     -309.03641543


--------------------------------------------------------------------------------------------------------




--------------------------------------- Iteration      1(   8)  ---------------------------------------


    POTLOK:  cpu time    7.9412: real time    7.9781
    SETDIJ:  cpu time    0.6433: real time    0.4456
    EDDIAG:  cpu time    6.0124: real time    3.4890
  RMM-DIIS:  cpu time   33.2524: real time   20.4328
    ORTHCH:  cpu time    0.1748: real time    0.0886
       DOS:  cpu time    0.0055: real time    0.0028
    CHARGE:  cpu time    8.3435: real time    6.0880
    MIXING:  cpu time    0.0765: real time    0.0766
    --------------------------------------------
      LOOP:  cpu time   56.4495: real time   38.5850

 eigenvalue-minimisations  :  3458
 total energy-change (2. order) : 0.5559173E-02  (-0.1103354E-02)
 number of electron     128.9999988 magnetization       0.9033460
 augmentation part        4.0895077 magnetization      -0.0898023

 Broyden mixing:
  rms(total) = 0.57894E-02    rms(broyden)= 0.57894E-02
  rms(prec ) = 0.58208E-02
  weight for this iteration     100.00

 eigenvalues of (default mixing * dielectric matrix)
  average eigenvalue GAMMA=   0.8877
  2.5988  1.3799  0.6137  0.6137  0.5802  0.2863  0.1414

 Free energy of the ion-electron system (eV)
  ---------------------------------------------------
  alpha Z        PSCENC =        29.96544587
  Ewald energy   TEWEN  =     41539.00478565
  -Hartree energ DENC   =    -45241.81151662
  -exchange      EXHF   =         0.00000000
  -V(xc)+E(xc)   XCENC  =       561.72265321
  PAW double counting   =     15445.83426873   -15502.55108973
  entropy T*S    EENTRO =        -0.00059054
  eigenvalues    EBANDS =     -1856.08579979
  atomic energy  EATOM  =      5539.12394832
  Solvation  Ediel_sol  =      -824.23661460
  ---------------------------------------------------
  free energy    TOTEN  =      -309.03450951 eV

  energy without entropy =     -309.03391897  energy(sigma->0) =     -309.03421424


--------------------------------------------------------------------------------------------------------




--------------------------------------- Iteration      1(   9)  ---------------------------------------


    POTLOK:  cpu time    7.9552: real time    7.9764
    SETDIJ:  cpu time    0.6499: real time    0.4521
    EDDIAG:  cpu time    6.0123: real time    3.4864
  RMM-DIIS:  cpu time   32.3874: real time   19.5742
    ORTHCH:  cpu time    0.1755: real time    0.0891
       DOS:  cpu time    0.0049: real time    0.0025
    CHARGE:  cpu time    8.3763: real time    6.1093
    MIXING:  cpu time    0.0719: real time    0.0721
    --------------------------------------------
      LOOP:  cpu time   55.6335: real time   37.7620

 eigenvalue-minimisations  :  3430
 total energy-change (2. order) :-0.5772941E-02  (-0.2206629E-02)
 number of electron     128.9999988 magnetization       0.9031833
 augmentation part        4.0895025 magnetization       0.1309035

 Broyden mixing:
  rms(total) = 0.82049E-02    rms(broyden)= 0.82049E-02
  rms(prec ) = 0.82622E-02
  weight for this iteration     100.00

 eigenvalues of (default mixing * dielectric matrix)
  average eigenvalue GAMMA=   0.8311
  2.6039  1.3876  0.7000  0.7000  0.5998  0.3183  0.2005  0.1386

 Free energy of the ion-electron system (eV)
  ---------------------------------------------------
  alpha Z        PSCENC =        29.96544587
  Ewald energy   TEWEN  =     41539.00478565
  -Hartree energ DENC   =    -45241.81304408
  -exchange      EXHF   =         0.00000000
  -V(xc)+E(xc)   XCENC  =       561.72814222
  PAW double counting   =     15445.89988135   -15502.61677594
  entropy T*S    EENTRO =        -0.00787408
  eigenvalues    EBANDS =     -1856.08841668
  atomic energy  EATOM  =      5539.12394832
  Solvation  Ediel_sol  =      -824.23637509
  ---------------------------------------------------
  free energy    TOTEN  =      -309.04028245 eV

  energy without entropy =     -309.03240837  energy(sigma->0) =     -309.03634541


--------------------------------------------------------------------------------------------------------




--------------------------------------- Iteration      1(  10)  ---------------------------------------


    POTLOK:  cpu time    7.6643: real time    7.6846
    SETDIJ:  cpu time    0.6499: real time    0.4523
    EDDIAG:  cpu time    6.0122: real time    3.4863
  RMM-DIIS:  cpu time   32.6303: real time   19.8353
    ORTHCH:  cpu time    0.1811: real time    0.0919
       DOS:  cpu time    0.0024: real time    0.0012
    CHARGE:  cpu time    8.3496: real time    6.0949
    MIXING:  cpu time    0.0797: real time    0.0799
    --------------------------------------------
      LOOP:  cpu time   55.5695: real time   37.7265

 eigenvalue-minimisations  :  3395
 total energy-change (2. order) : 0.3657200E-02  (-0.3906981E-02)
 number of electron     128.9999988 magnetization       0.9032790
 augmentation part        4.0894977 magnetization      -0.0917604

 Broyden mixing:
  rms(total) = 0.56591E-02    rms(broyden)= 0.56591E-02
  rms(prec ) = 0.56875E-02
  weight for this iteration     100.00

 eigenvalues of (default mixing * dielectric matrix)
  average eigenvalue GAMMA=   0.9047
  2.6620  1.7520  1.0048  1.0048  0.6112  0.3853  0.3853  0.1985  0.1384

 Free energy of the ion-electron system (eV)
  ---------------------------------------------------
  alpha Z        PSCENC =        29.96544587
  Ewald energy   TEWEN  =     41539.00478565
  -Hartree energ DENC   =    -45241.81503550
  -exchange      EXHF   =         0.00000000
  -V(xc)+E(xc)   XCENC  =       561.72323728
  PAW double counting   =     15445.88620875   -15502.60313352
  entropy T*S    EENTRO =        -0.00044484
  eigenvalues    EBANDS =     -1856.08628854
  atomic energy  EATOM  =      5539.12394832
  Solvation  Ediel_sol  =      -824.23534873
  ---------------------------------------------------
  free energy    TOTEN  =      -309.03662525 eV

  energy without entropy =     -309.03618041  energy(sigma->0) =     -309.03640283


--------------------------------------------------------------------------------------------------------




--------------------------------------- Iteration      1(  11)  ---------------------------------------


    POTLOK:  cpu time    7.8074: real time    7.8264
    SETDIJ:  cpu time    0.5753: real time    0.3773
    EDDIAG:  cpu time    6.0131: real time    3.4861
  RMM-DIIS:  cpu time   33.1663: real time   20.3378
    ORTHCH:  cpu time    0.1745: real time    0.0885
       DOS:  cpu time    0.0058: real time    0.0029
    CHARGE:  cpu time    8.3454: real time    6.0872
    MIXING:  cpu time    0.0834: real time    0.0836
    --------------------------------------------
      LOOP:  cpu time   56.1711: real time   38.2896

 eigenvalue-minimisations  :  3432
 total energy-change (2. order) :-0.3228687E-02  (-0.1462115E-02)
 number of electron     128.9999988 magnetization       0.9032269
 augmentation part        4.0894971 magnetization       0.1520100

 Broyden mixing:
  rms(total) = 0.94730E-02    rms(broyden)= 0.94730E-02
  rms(prec ) = 0.95421E-02
  weight for this iteration     100.00

 eigenvalues of (default mixing * dielectric matrix)
  average eigenvalue GAMMA=   0.8640
  2.6678  1.8627  1.0603  1.0603  0.6144  0.3748  0.3748  0.2929  0.1382  0.1940

 Free energy of the ion-electron system (eV)
  ---------------------------------------------------
  alpha Z        PSCENC =        29.96544587
  Ewald energy   TEWEN  =     41539.00478565
  -Hartree energ DENC   =    -45241.81760962
  -exchange      EXHF   =         0.00000000
  -V(xc)+E(xc)   XCENC  =       561.72880228
  PAW double counting   =     15445.88490618   -15502.60188083
  entropy T*S    EENTRO =        -0.00818136
  eigenvalues    EBANDS =     -1856.08634895
  atomic energy  EATOM  =      5539.12394832
  Solvation  Ediel_sol  =      -824.23372148
  ---------------------------------------------------
  free energy    TOTEN  =      -309.03985394 eV

  energy without entropy =     -309.03167258  energy(sigma->0) =     -309.03576326


--------------------------------------------------------------------------------------------------------




--------------------------------------- Iteration      1(  12)  ---------------------------------------


    POTLOK:  cpu time    7.6662: real time    7.6843
    SETDIJ:  cpu time    0.6350: real time    0.4365
    EDDIAG:  cpu time    6.0326: real time    3.4945
  RMM-DIIS:  cpu time   32.7299: real time   19.9061
    ORTHCH:  cpu time    0.5218: real time    0.2625
       DOS:  cpu time    0.0977: real time    0.0489
    CHARGE:  cpu time    8.8805: real time    6.3877
    MIXING:  cpu time    0.0733: real time    0.0735
    --------------------------------------------
      LOOP:  cpu time   56.6371: real time   38.2942

 eigenvalue-minimisations  :  3411
 total energy-change (2. order) : 0.4133204E-02  (-0.2697962E-02)
 number of electron     128.9999988 magnetization       0.9033030
 augmentation part        4.0894943 magnetization      -0.0911107

 Broyden mixing:
  rms(total) = 0.55612E-02    rms(broyden)= 0.55612E-02
  rms(prec ) = 0.55893E-02
  weight for this iteration     100.00

 eigenvalues of (default mixing * dielectric matrix)
  average eigenvalue GAMMA=   0.9301
  2.8259  2.2282  1.2407  0.7652  0.7652  0.7187  0.6367  0.3621  0.3621  0.1885
  0.1381

 Free energy of the ion-electron system (eV)
  ---------------------------------------------------
  alpha Z        PSCENC =        29.96544587
  Ewald energy   TEWEN  =     41539.00478565
  -Hartree energ DENC   =    -45241.81844299
  -exchange      EXHF   =         0.00000000
  -V(xc)+E(xc)   XCENC  =       561.72303331
  PAW double counting   =     15445.87592880   -15502.59291306
  entropy T*S    EENTRO =        -0.00049356
  eigenvalues    EBANDS =     -1856.08396635
  atomic energy  EATOM  =      5539.12394832
  Solvation  Ediel_sol  =      -824.23304674
  ---------------------------------------------------
  free energy    TOTEN  =      -309.03572073 eV

  energy without entropy =     -309.03522718  energy(sigma->0) =     -309.03547396


--------------------------------------------------------------------------------------------------------




--------------------------------------- Iteration      1(  13)  ---------------------------------------


    POTLOK:  cpu time    7.7602: real time    7.7823
    SETDIJ:  cpu time    0.6338: real time    0.4359
    EDDIAG:  cpu time    6.0116: real time    3.4861
  RMM-DIIS:  cpu time   32.3616: real time   19.5404
    ORTHCH:  cpu time    0.1780: real time    0.0902
       DOS:  cpu time    0.0025: real time    0.0012
    CHARGE:  cpu time    8.3390: real time    6.0888
    MIXING:  cpu time    0.1093: real time    0.1096
    --------------------------------------------
      LOOP:  cpu time   55.3960: real time   37.5345

 eigenvalue-minimisations  :  3425
 total energy-change (2. order) :-0.6372777E-02  (-0.4431489E-02)
 number of electron     128.9999988 magnetization       0.9032838
 augmentation part        4.0894928 magnetization       0.1483194

 Broyden mixing:
  rms(total) = 0.92447E-02    rms(broyden)= 0.92447E-02
  rms(prec ) = 0.93106E-02
  weight for this iteration     100.00

 eigenvalues of (default mixing * dielectric matrix)
  average eigenvalue GAMMA=   0.8995
  2.9479  2.2992  1.2914  0.8202  0.8202  0.6232  0.6232  0.3747  0.3747  0.2949
  0.1380  0.1860

 Free energy of the ion-electron system (eV)
  ---------------------------------------------------
  alpha Z        PSCENC =        29.96544587
  Ewald energy   TEWEN  =     41539.00478565
  -Hartree energ DENC   =    -45241.82043593
  -exchange      EXHF   =         0.00000000
  -V(xc)+E(xc)   XCENC  =       561.72738699
  PAW double counting   =     15445.88507299   -15502.60207508
  entropy T*S    EENTRO =        -0.00806116
  eigenvalues    EBANDS =     -1856.08657397
  atomic energy  EATOM  =      5539.12394832
  Solvation  Ediel_sol  =      -824.23158720
  ---------------------------------------------------
  free energy    TOTEN  =      -309.04209351 eV

  energy without entropy =     -309.03403235  energy(sigma->0) =     -309.03806293


--------------------------------------------------------------------------------------------------------




--------------------------------------- Iteration      1(  14)  ---------------------------------------


    POTLOK:  cpu time    7.4837: real time    7.5034
    SETDIJ:  cpu time    0.6191: real time    0.4212
    EDDIAG:  cpu time    6.0165: real time    3.4882
  RMM-DIIS:  cpu time   32.7224: real time   19.9094
    ORTHCH:  cpu time    0.1746: real time    0.0885
       DOS:  cpu time    0.0051: real time    0.0025
    CHARGE:  cpu time    8.3772: real time    6.1039
    MIXING:  cpu time    0.1014: real time    0.1016
    --------------------------------------------
      LOOP:  cpu time   55.5000: real time   37.6188

 eigenvalue-minimisations  :  3428
 total energy-change (2. order) : 0.3265510E-02  (-0.5808778E-02)
 number of electron     128.9999988 magnetization       0.9033183
 augmentation part        4.0894902 magnetization      -0.0925704

 Broyden mixing:
  rms(total) = 0.56302E-02    rms(broyden)= 0.56302E-02
  rms(prec ) = 0.56584E-02
  weight for this iteration     100.00

 eigenvalues of (default mixing * dielectric matrix)
  average eigenvalue GAMMA=   0.9049
  3.0288  2.2954  1.3418  0.8683  0.8683  0.5185  0.5185  0.6905  0.6216  0.3437
  0.3437  0.1380  0.1863

 Free energy of the ion-electron system (eV)
  ---------------------------------------------------
  alpha Z        PSCENC =        29.96544587
  Ewald energy   TEWEN  =     41539.00478565
  -Hartree energ DENC   =    -45241.82379714
  -exchange      EXHF   =         0.00000000
  -V(xc)+E(xc)   XCENC  =       561.72290820
  PAW double counting   =     15445.89541829   -15502.61241674
  entropy T*S    EENTRO =        -0.00037946
  eigenvalues    EBANDS =     -1856.08631931
  atomic energy  EATOM  =      5539.12394832
  Solvation  Ediel_sol  =      -824.22842169
  ---------------------------------------------------
  free energy    TOTEN  =      -309.03882800 eV

  energy without entropy =     -309.03844854  energy(sigma->0) =     -309.03863827


--------------------------------------------------------------------------------------------------------




--------------------------------------- Iteration      1(  15)  ---------------------------------------


    POTLOK:  cpu time    7.6699: real time    7.6900
    SETDIJ:  cpu time    0.6119: real time    0.4139
    EDDIAG:  cpu time    6.0142: real time    3.4849
  RMM-DIIS:  cpu time   33.1744: real time   20.3409
    ORTHCH:  cpu time    0.1755: real time    0.0891
       DOS:  cpu time    0.0042: real time    0.0021
    CHARGE:  cpu time    8.3436: real time    6.0916
    MIXING:  cpu time    0.0820: real time    0.0822
    --------------------------------------------
      LOOP:  cpu time   56.0757: real time   38.1946

 eigenvalue-minimisations  :  3430
 total energy-change (2. order) :-0.1380182E-02  (-0.1582653E-02)
 number of electron     128.9999988 magnetization       0.9031974
 augmentation part        4.0894933 magnetization       0.1588028

 Broyden mixing:
  rms(total) = 0.99364E-02    rms(broyden)= 0.99364E-02
  rms(prec ) = 0.10004E-01
  weight for this iteration     100.00

 eigenvalues of (default mixing * dielectric matrix)
  average eigenvalue GAMMA=   0.9079
  3.0964  2.3303  1.3964  1.0420  1.0420  0.5247  0.5247  0.7329  0.6196  0.3879
  0.3879  0.3013  0.1380  0.1860

 Free energy of the ion-electron system (eV)
  ---------------------------------------------------
  alpha Z        PSCENC =        29.96544587
  Ewald energy   TEWEN  =     41539.00478565
  -Hartree energ DENC   =    -45241.82851643
  -exchange      EXHF   =         0.00000000
  -V(xc)+E(xc)   XCENC  =       561.72889596
  PAW double counting   =     15445.89608897   -15502.61309298
  entropy T*S    EENTRO =        -0.00827464
  eigenvalues    EBANDS =     -1856.08536275
  atomic energy  EATOM  =      5539.12394832
  Solvation  Ediel_sol  =      -824.22412615
  ---------------------------------------------------
  free energy    TOTEN  =      -309.04020818 eV

  energy without entropy =     -309.03193354  energy(sigma->0) =     -309.03607086


--------------------------------------------------------------------------------------------------------




--------------------------------------- Iteration      1(  16)  ---------------------------------------


    POTLOK:  cpu time    7.4981: real time    7.5186
    SETDIJ:  cpu time    0.5979: real time    0.4000
    EDDIAG:  cpu time    6.0144: real time    3.4874
  RMM-DIIS:  cpu time   32.6147: real time   19.7920
    ORTHCH:  cpu time    0.1744: real time    0.0883
       DOS:  cpu time    0.0047: real time    0.0024
    CHARGE:  cpu time    8.3367: real time    6.0911
    MIXING:  cpu time    0.0841: real time    0.0843
    --------------------------------------------
      LOOP:  cpu time   55.3251: real time   37.4641

 eigenvalue-minimisations  :  3411
 total energy-change (2. order) : 0.3924823E-02  (-0.2797528E-02)
 number of electron     128.9999988 magnetization       0.9033052
 augmentation part        4.0894912 magnetization      -0.0923145

 Broyden mixing:
  rms(total) = 0.56608E-02    rms(broyden)= 0.56608E-02
  rms(prec ) = 0.56885E-02
  weight for this iteration     100.00

 eigenvalues of (default mixing * dielectric matrix)
  average eigenvalue GAMMA=   0.9416
  3.2734  2.4325  1.4985  1.1887  1.1887  0.7751  0.5968  0.5968  0.6222  0.4764
  0.4764  0.3652  0.3100  0.1380  0.1860

 Free energy of the ion-electron system (eV)
  ---------------------------------------------------
  alpha Z        PSCENC =        29.96544587
  Ewald energy   TEWEN  =     41539.00478565
  -Hartree energ DENC   =    -45241.82994610
  -exchange      EXHF   =         0.00000000
  -V(xc)+E(xc)   XCENC  =       561.72255949
  PAW double counting   =     15445.88173915   -15502.59873995
  entropy T*S    EENTRO =        -0.00040055
  eigenvalues    EBANDS =     -1856.08300174
  atomic energy  EATOM  =      5539.12394832
  Solvation  Ediel_sol  =      -824.22267350
  ---------------------------------------------------
  free energy    TOTEN  =      -309.03628336 eV

  energy without entropy =     -309.03588281  energy(sigma->0) =     -309.03608309


--------------------------------------------------------------------------------------------------------




--------------------------------------- Iteration      1(  17)  ---------------------------------------


    POTLOK:  cpu time    7.6203: real time    7.6408
    SETDIJ:  cpu time    0.5794: real time    0.3813
    EDDIAG:  cpu time    6.0157: real time    3.4886
  RMM-DIIS:  cpu time   33.1445: real time   20.3299
    ORTHCH:  cpu time    0.1753: real time    0.0888
       DOS:  cpu time    0.0059: real time    0.0029
    CHARGE:  cpu time    8.3593: real time    6.0989
    MIXING:  cpu time    0.0775: real time    0.0776
    --------------------------------------------
      LOOP:  cpu time   55.9778: real time   38.1090

 eigenvalue-minimisations  :  3419
 total energy-change (2. order) :-0.5670321E-02  (-0.4790161E-02)
 number of electron     128.9999988 magnetization       0.9032967
 augmentation part        4.0894920 magnetization       0.1352711

 Broyden mixing:
  rms(total) = 0.84040E-02    rms(broyden)= 0.84040E-02
  rms(prec ) = 0.84596E-02
  weight for this iteration     100.00

 eigenvalues of (default mixing * dielectric matrix)
  average eigenvalue GAMMA=   0.9187
  3.3182  2.4436  1.4725  1.2943  1.2943  0.7565  0.5940  0.5940  0.6158  0.4969
  0.4969  0.3504  0.3504  0.2967  0.1380  0.1860

 Free energy of the ion-electron system (eV)
  ---------------------------------------------------
  alpha Z        PSCENC =        29.96544587
  Ewald energy   TEWEN  =     41539.00478565
  -Hartree energ DENC   =    -45241.83214551
  -exchange      EXHF   =         0.00000000
  -V(xc)+E(xc)   XCENC  =       561.72689610
  PAW double counting   =     15445.88736660   -15502.60437107
  entropy T*S    EENTRO =        -0.00792346
  eigenvalues    EBANDS =     -1856.08533072
  atomic energy  EATOM  =      5539.12394832
  Solvation  Ediel_sol  =      -824.22062546
  ---------------------------------------------------
  free energy    TOTEN  =      -309.04195368 eV

  energy without entropy =     -309.03403022  energy(sigma->0) =     -309.03799195


--------------------------------------------------------------------------------------------------------




--------------------------------------- Iteration      1(  18)  ---------------------------------------


    POTLOK:  cpu time    7.1381: real time    7.1592
    SETDIJ:  cpu time    0.6369: real time    0.4389
    EDDIAG:  cpu time    6.0089: real time    3.4845
  RMM-DIIS:  cpu time   33.0929: real time   20.2855
    ORTHCH:  cpu time    0.1743: real time    0.0884
       DOS:  cpu time    0.0055: real time    0.0028
    CHARGE:  cpu time    8.3492: real time    6.0904
    MIXING:  cpu time    0.0747: real time    0.0748
    --------------------------------------------
      LOOP:  cpu time   55.4804: real time   37.6245

 eigenvalue-minimisations  :  3422
 total energy-change (2. order) : 0.6961223E-02  (-0.2609156E-02)
 number of electron     128.9999988 magnetization       0.9033520
 augmentation part        4.0894926 magnetization      -0.0915632

 Broyden mixing:
  rms(total) = 0.56210E-02    rms(broyden)= 0.56210E-02
  rms(prec ) = 0.56515E-02
  weight for this iteration     100.00

 eigenvalues of (default mixing * dielectric matrix)
  average eigenvalue GAMMA=   0.8964
  3.3152  2.4465  1.4440  1.3552  1.3552  0.5995  0.5995  0.7078  0.6348  0.4414
  0.4414  0.4546  0.4546  0.3576  0.3071  0.1380  0.1860

 Free energy of the ion-electron system (eV)
  ---------------------------------------------------
  alpha Z        PSCENC =        29.96544587
  Ewald energy   TEWEN  =     41539.00478565
  -Hartree energ DENC   =    -45241.83535403
  -exchange      EXHF   =         0.00000000
  -V(xc)+E(xc)   XCENC  =       561.72259628
  PAW double counting   =     15445.89878675   -15502.61578485
  entropy T*S    EENTRO =        -0.00045481
  eigenvalues    EBANDS =     -1856.08140450
  atomic energy  EATOM  =      5539.12394832
  Solvation  Ediel_sol  =      -824.21755714
  ---------------------------------------------------
  free energy    TOTEN  =      -309.03499246 eV

  energy without entropy =     -309.03453765  energy(sigma->0) =     -309.03476505


--------------------------------------------------------------------------------------------------------




--------------------------------------- Iteration      1(  19)  ---------------------------------------


    POTLOK:  cpu time    7.3994: real time    7.4193
    SETDIJ:  cpu time    0.6166: real time    0.4186
    EDDIAG:  cpu time    6.0155: real time    3.4866
  RMM-DIIS:  cpu time   32.7163: real time   19.9095
    ORTHCH:  cpu time    0.1758: real time    0.0890
       DOS:  cpu time    0.0041: real time    0.0020
    CHARGE:  cpu time    8.3628: real time    6.1011
    MIXING:  cpu time    0.0761: real time    0.0762
    --------------------------------------------
      LOOP:  cpu time   55.3664: real time   37.5024

 eigenvalue-minimisations  :  3408
 total energy-change (2. order) :-0.5524834E-02  (-0.2080510E-02)
 number of electron     128.9999988 magnetization       0.9032247
 augmentation part        4.0894944 magnetization       0.1447406

 Broyden mixing:
  rms(total) = 0.90694E-02    rms(broyden)= 0.90694E-02
  rms(prec ) = 0.91298E-02
  weight for this iteration     100.00

 eigenvalues of (default mixing * dielectric matrix)
  average eigenvalue GAMMA=   0.9183
  3.3324  2.4568  1.4853  1.4853  1.4186  0.7586  0.7586  0.7534  0.5651  0.5651
  0.6138  0.4747  0.4747  0.3801  0.3801  0.3023  0.1380  0.1860

 Free energy of the ion-electron system (eV)
  ---------------------------------------------------
  alpha Z        PSCENC =        29.96544587
  Ewald energy   TEWEN  =     41539.00478565
  -Hartree energ DENC   =    -45241.83594999
  -exchange      EXHF   =         0.00000000
  -V(xc)+E(xc)   XCENC  =       561.72896649
  PAW double counting   =     15445.88796521   -15502.60497211
  entropy T*S    EENTRO =        -0.00816429
  eigenvalues    EBANDS =     -1856.08543949
  atomic energy  EATOM  =      5539.12394832
  Solvation  Ediel_sol  =      -824.21710295
  ---------------------------------------------------
  free energy    TOTEN  =      -309.04051729 eV

  energy without entropy =     -309.03235300  energy(sigma->0) =     -309.03643515


--------------------------------------------------------------------------------------------------------




--------------------------------------- Iteration      1(  20)  ---------------------------------------


    POTLOK:  cpu time    7.5030: real time    7.5252
    SETDIJ:  cpu time    0.5975: real time    0.3995
    EDDIAG:  cpu time    6.0081: real time    3.4815
  RMM-DIIS:  cpu time   32.6926: real time   19.8826
    ORTHCH:  cpu time    0.1747: real time    0.0887
       DOS:  cpu time    0.0040: real time    0.0020
    CHARGE:  cpu time    8.3487: real time    6.0929
    MIXING:  cpu time    0.0791: real time    0.0793
    --------------------------------------------
      LOOP:  cpu time   55.4076: real time   37.5516

 eigenvalue-minimisations  :  3406
 total energy-change (2. order) : 0.3620647E-02  (-0.3404383E-02)
 number of electron     128.9999988 magnetization       0.9033440
 augmentation part        4.0894916 magnetization      -0.0922134

 Broyden mixing:
  rms(total) = 0.57117E-02    rms(broyden)= 0.57117E-02
  rms(prec ) = 0.57425E-02
  weight for this iteration     100.00

 eigenvalues of (default mixing * dielectric matrix)
  average eigenvalue GAMMA=   0.9508
  3.5501  2.4567  1.5938  1.5938  1.4738  0.9597  0.9597  0.5593  0.5593  0.7271
  0.5574  0.5574  0.6033  0.4559  0.4559  0.3738  0.3035  0.1380  0.1860

 Free energy of the ion-electron system (eV)
  ---------------------------------------------------
  alpha Z        PSCENC =        29.96544587
  Ewald energy   TEWEN  =     41539.00478565
  -Hartree energ DENC   =    -45241.83711434
  -exchange      EXHF   =         0.00000000
  -V(xc)+E(xc)   XCENC  =       561.72255641
  PAW double counting   =     15445.88314264   -15502.60014328
  entropy T*S    EENTRO =        -0.00040428
  eigenvalues    EBANDS =     -1856.08320838
  atomic energy  EATOM  =      5539.12394832
  Solvation  Ediel_sol  =      -824.21590525
  ---------------------------------------------------
  free energy    TOTEN  =      -309.03689664 eV

  energy without entropy =     -309.03649236  energy(sigma->0) =     -309.03669450


--------------------------------------------------------------------------------------------------------




--------------------------------------- Iteration      1(  21)  ---------------------------------------


    POTLOK:  cpu time    7.2092: real time    7.2284
    SETDIJ:  cpu time    0.6543: real time    0.4564
    EDDIAG:  cpu time    6.0155: real time    3.4873
  RMM-DIIS:  cpu time   33.1070: real time   20.2819
    ORTHCH:  cpu time    0.1748: real time    0.0886
       DOS:  cpu time    0.0054: real time    0.0027
    CHARGE:  cpu time    8.3457: real time    6.0907
    MIXING:  cpu time    0.0733: real time    0.0734
    --------------------------------------------
      LOOP:  cpu time   55.5852: real time   37.7095

 eigenvalue-minimisations  :  3424
[...]
  6.861  10.471  -0.000   0.000   0.001  -0.001   0.000   0.002
 10.471  15.979  -0.001   0.000   0.001  -0.001   0.000   0.003
 -0.000  -0.001  -2.432  -0.000  -0.000  -4.189  -0.000  -0.000
  0.000   0.000  -0.000  -2.427   0.000  -0.000  -4.173   0.000
  0.001   0.001  -0.000   0.000  -2.432  -0.000   0.000  -4.189
 -0.001  -0.001  -4.189  -0.000  -0.000  -7.011  -0.000  -0.001
  0.000   0.000  -0.000  -4.173   0.000  -0.000  -6.974   0.000
  0.002   0.003  -0.000   0.000  -4.189  -0.001   0.000  -7.009
 total augmentation occupancy for first ion, spin component:           1
  4.432  -1.342   0.054   0.000  -0.056  -0.017   0.000   0.017
 -1.342   0.433  -0.014   0.000   0.011   0.005   0.000  -0.004
  0.054  -0.014   5.121   0.000   0.069  -1.584   0.000  -0.018
  0.000   0.000   0.000   1.626   0.000   0.000  -0.429   0.000
 -0.056   0.011   0.069   0.000   5.034  -0.018   0.000  -1.561
 -0.017   0.005  -1.584   0.000  -0.018   0.505   0.000   0.005
  0.000   0.000   0.000  -0.429   0.000   0.000   0.114   0.000
  0.017  -0.004  -0.018   0.000  -1.561   0.005   0.000   0.498
 total augmentation occupancy for first ion, spin component:           2
  0.000  -0.000  -0.000   0.000   0.000   0.000   0.000  -0.000
 -0.000   0.000   0.000   0.000  -0.000  -0.000   0.000   0.000
 -0.000   0.000  -0.000   0.000  -0.000   0.000   0.000   0.000
  0.000   0.000   0.000  -0.000   0.000   0.000   0.000   0.000
  0.000  -0.000  -0.000   0.000  -0.000   0.000   0.000   0.000
  0.000  -0.000   0.000   0.000   0.000  -0.000   0.000  -0.000
  0.000   0.000   0.000   0.000   0.000   0.000  -0.000   0.000
 -0.000   0.000   0.000   0.000   0.000  -0.000   0.000  -0.000


------------------------ aborting loop because EDIFF is reached ----------------------------------------


 


 total charge     
 
# of ion       s       p       d       tot
------------------------------------------
    1        0.740   1.379   0.000   2.119
    2        0.740   1.379   0.000   2.119
    3        0.742   1.385   0.000   2.127
    4        0.742   1.384   0.000   2.126
    5        0.742   1.388   0.000   2.131
    6        0.731   1.340   0.000   2.071
    7        0.742   1.388   0.000   2.131
    8        0.742   1.384   0.000   2.126
    9        0.740   1.379   0.000   2.119
   10        0.731   1.340   0.000   2.071
   11        0.731   1.340   0.000   2.071
   12        0.740   1.379   0.000   2.119
   13        0.742   1.385   0.000   2.127
   14        0.740   1.379   0.000   2.119
   15        0.743   1.389   0.000   2.131
   16        0.740   1.379   0.000   2.119
   17        1.238   2.827   0.000   4.066
   18        1.237   2.825   0.000   4.062
   19        1.237   2.826   0.000   4.063
   20        1.237   2.825   0.000   4.062
   21        1.237   2.833   0.000   4.070
   22        1.237   2.833   0.000   4.070
   23        1.237   2.826   0.000   4.063
   24        1.237   2.826   0.000   4.064
   25        1.237   2.833   0.000   4.070
   26        1.237   2.833   0.000   4.070
   27        1.237   2.825   0.000   4.062
   28        1.238   2.827   0.000   4.066
   29        1.237   2.833   0.000   4.070
   30        1.237   2.833   0.000   4.070
   31        1.238   2.827   0.000   4.066
   32        1.546   3.706   0.000   5.253
--------------------------------------------------
tot         31.934  68.136   0.000 100.070
 


 magnetization (x)
 
# of ion       s       p       d       tot
------------------------------------------
    1       -0.000  -0.000   0.000  -0.000
    2       -0.000  -0.000   0.000  -0.000
    3       -0.000  -0.000   0.000  -0.000
    4       -0.000  -0.000   0.000  -0.000
    5       -0.000  -0.000   0.000  -0.000
    6       -0.000  -0.000   0.000  -0.000
    7       -0.000  -0.000   0.000  -0.000
    8       -0.000  -0.000   0.000  -0.000
    9       -0.000  -0.000   0.000  -0.000
   10       -0.000  -0.000   0.000  -0.000
   11       -0.000  -0.000   0.000  -0.000
   12       -0.000  -0.000   0.000  -0.000
   13       -0.000  -0.000   0.000  -0.000
   14       -0.000  -0.000   0.000  -0.000
   15       -0.000  -0.000   0.000  -0.000
   16       -0.000  -0.000   0.000  -0.000
   17        0.000  -0.000   0.000   0.000
   18        0.000  -0.000   0.000   0.000
   19        0.000  -0.000   0.000   0.000
   20        0.000  -0.000   0.000   0.000
   21        0.000  -0.000   0.000   0.000
   22        0.000  -0.000   0.000   0.000
   23        0.000  -0.000   0.000   0.000
   24        0.000  -0.000   0.000   0.000
   25        0.000  -0.000   0.000   0.000
   26        0.000  -0.000   0.000   0.000
   27        0.000  -0.000   0.000   0.000
   28        0.000  -0.000   0.000   0.000
   29        0.000  -0.000   0.000   0.000
   30        0.000  -0.000   0.000   0.000
   31        0.000  -0.000   0.000   0.000
   32        0.000  -0.000   0.000   0.000
--------------------------------------------------
tot          0.000  -0.000   0.000   0.000
 
    CHARGE:  cpu time    1.5243: real time    0.9054
    FORLOC:  cpu time    0.1377: real time    0.0690
    FORNL :  cpu time    2.6247: real time    1.3229
    STRESS:  cpu time   75.1960: real time   59.1937
    FORCOR:  cpu time    0.7634: real time    0.7650
    FORHAR:  cpu time    0.0835: real time    0.0837
    MIXING:  cpu time    0.0687: real time    0.0689
    OFIELD:  cpu time    0.0001: real time    0.0001

  FORCE on cell =-STRESS in cart. coord.  units (eV):
  Direction    XX          YY          ZZ          XY          YZ          ZX
  --------------------------------------------------------------------------------------
  Alpha Z    29.96545    29.96545    29.96545
  Ewald   45960.03926 45960.03386-50381.07356     0.00000    -0.00000     0.00000
  Hartree 44732.58671 44732.58707-44223.31278     0.00012    -0.00000     0.00000
  E(xc)    -521.47112  -521.47120  -525.73836     0.01699     0.00003     0.00000
  Local  -92049.65282-92049.66006 92965.31253     0.00188     0.00002    -0.00003
  n-local  -249.00900  -249.00818  -250.96471    -0.06279    -0.00001     0.00000
  augment    22.84701    22.84697    27.29319     0.00002     0.00001    -0.00000
  Kinetic  2065.86990  2065.86519  2350.58738     0.72699     0.00007    -0.00001
  Fock        0.00000     0.00000     0.00000     0.00000     0.00000     0.00000
  -------------------------------------------------------------------------------------
  Total      -8.83271    -8.83279    -7.93086    -0.00000    -0.00000    -0.00000
  in kB      -4.60851    -4.60855    -4.13797    -0.00000    -0.00000    -0.00000
  external pressure =       -4.45 kB  Pullay stress =        0.00 kB


 VOLUME and BASIS-vectors are now :
 -----------------------------------------------------------------------------
  energy-cutoff  :      550.00
  volume of cell :     3070.74
      direct lattice vectors                 reciprocal lattice vectors
     5.024366704 -8.702497373  0.000000000     0.099515029 -0.057454772  0.000000000
     5.024366704  8.702497373  0.000000000     0.099515029  0.057454772  0.000000000
     0.000000000  0.000000000 35.114664386     0.000000000  0.000000000  0.028478131

  length of vectors
    10.048767154 10.048767154 35.114664386     0.114909929  0.114909929  0.028478131


 FORCES acting on ions
    electron-ion (+dipol)            ewald-force                    non-local-force                 convergence-correction
 -----------------------------------------------------------------------------------------------
   -.426E+00 0.215E+01 0.296E-06   -.461E+00 -.174E+01 -.153E-20   0.442E+00 -.284E+00 0.000E+00   0.581E-05 0.671E-07 0.321E-10
   -.207E+01 -.705E+00 -.885E-05   0.128E+01 0.127E+01 -.314E-18   0.467E+00 -.241E+00 0.000E+00   0.284E-05 -.506E-05 -.638E-10
   -.583E+00 -.337E+00 -.731E-05   0.637E+00 0.369E+00 -.180E-18   0.102E-01 0.591E-02 0.132E-22   -.196E-05 -.113E-05 -.287E-10
   0.388E-04 0.672E+00 0.789E-05   -.222E-14 -.735E+00 0.191E-18   0.434E-18 -.118E-01 -.662E-23   0.356E-11 0.226E-05 0.575E-10
   0.254E+01 0.147E+01 -.946E-05   -.363E+01 -.209E+01 0.923E-19   0.430E+00 0.248E+00 0.000E+00   0.695E-05 0.401E-05 -.572E-10
   0.369E+01 -.213E+01 -.570E-04   -.846E+01 0.489E+01 -.283E-18   0.370E+01 -.214E+01 0.000E+00   -.332E-05 0.192E-05 -.324E-10
   0.279E-04 -.294E+01 0.494E-05   0.696E-14 0.419E+01 -.206E-18   0.173E-17 -.496E+00 0.000E+00   0.141E-10 -.803E-05 0.119E-09
   0.583E+00 -.337E+00 -.385E-05   -.637E+00 0.369E+00 0.102E-18   -.102E-01 0.591E-02 0.000E+00   0.196E-05 -.113E-05 -.281E-10
   0.165E+01 -.144E+01 -.181E-05   -.174E+01 0.474E+00 0.180E-18   -.253E-01 0.525E+00 0.000E+00   0.296E-05 0.499E-05 0.276E-10
   0.723E-04 0.426E+01 0.652E-04   -.191E-11 -.977E+01 -.519E-19   0.000E+00 0.427E+01 -.579E-23   0.183E-10 -.384E-05 0.658E-10
   -.369E+01 -.213E+01 -.968E-05   0.846E+01 0.489E+01 -.761E-19   -.370E+01 -.214E+01 -.662E-23   0.332E-05 0.192E-05 -.307E-10
   0.207E+01 -.705E+00 -.181E-06   -.128E+01 0.127E+01 0.308E-18   -.467E+00 -.241E+00 0.000E+00   -.284E-05 -.506E-05 -.556E-10
   0.483E-04 -.426E-03 0.639E-06   0.130E-14 0.787E-03 0.256E-18   0.453E-18 -.108E-18 0.000E+00   -.452E-12 0.479E-10 0.928E-12
   -.165E+01 -.144E+01 0.110E-04   0.174E+01 0.474E+00 0.303E-19   0.253E-01 0.525E+00 0.000E+00   -.296E-05 0.499E-05 0.362E-10
   -.254E+01 0.147E+01 0.818E-05   0.363E+01 -.209E+01 0.202E-18   -.430E+00 0.248E+00 0.000E+00   -.695E-05 0.401E-05 -.599E-10
   0.426E+00 0.215E+01 0.234E-05   0.461E+00 -.174E+01 0.433E-18   -.442E+00 -.284E+00 0.000E+00   -.581E-05 0.671E-07 0.274E-10
   0.166E+01 -.961E+00 -.575E-05   -.237E+01 0.137E+01 -.129E-18   0.258E+00 -.149E+00 0.000E+00   0.294E-05 -.170E-05 -.603E-10
   -.888E+00 -.512E+00 -.223E-04   0.109E+01 0.631E+00 -.453E-18   -.200E+00 -.116E+00 0.000E+00   -.375E-05 -.217E-05 -.180E-09
   -.233E+01 0.134E+01 -.547E-05   0.326E+01 -.188E+01 0.136E-18   -.480E+00 0.277E+00 0.000E+00   -.593E-05 0.342E-05 -.581E-10
   -.162E-02 0.102E+01 0.168E-04   -.329E-13 -.126E+01 0.350E-18   0.000E+00 0.231E+00 0.000E+00   0.486E-10 0.433E-05 0.306E-09
   0.117E+02 0.261E+01 0.191E-05   -.152E+02 -.363E+01 -.458E-18   0.218E+01 0.101E+01 0.000E+00   0.720E-06 0.163E-05 -.163E-09
   0.356E+01 -.114E+02 -.189E-04   -.448E+01 0.150E+02 -.732E-18   0.213E+00 -.240E+01 0.331E-22   -.105E-05 -.144E-05 0.933E-10
   -.162E-02 -.269E+01 0.263E-04   0.178E-13 0.377E+01 -.282E-18   0.000E+00 -.554E+00 0.212E-21   0.489E-10 -.684E-05 0.149E-09
   0.233E+01 0.134E+01 -.205E-04   -.326E+01 -.188E+01 0.731E-19   0.480E+00 0.277E+00 0.212E-21   0.593E-05 0.342E-05 -.862E-10
   0.809E+01 0.879E+01 0.997E-05   -.108E+02 -.114E+02 -.161E-18   0.197E+01 0.138E+01 0.000E+00   0.177E-05 -.192E-06 0.677E-10
   -.357E+01 -.114E+02 0.158E-04   0.448E+01 0.150E+02 -.178E-18   -.213E+00 -.240E+01 0.000E+00   0.105E-05 -.144E-05 0.696E-10
   0.885E+00 -.512E+00 0.567E-05   -.109E+01 0.631E+00 0.365E-18   0.200E+00 -.116E+00 -.265E-22   0.375E-05 -.217E-05 -.125E-09
   -.162E-02 0.192E+01 0.267E-04   0.344E-11 -.273E+01 0.243E-18   0.260E-17 0.298E+00 0.000E+00   0.180E-10 0.339E-05 0.150E-09
   -.809E+01 0.879E+01 -.906E-05   0.108E+02 -.114E+02 0.211E-19   -.197E+01 0.138E+01 0.265E-22   -.177E-05 -.192E-06 0.986E-10
   -.117E+02 0.261E+01 0.138E-06   0.152E+02 -.363E+01 0.255E-18   -.218E+01 0.101E+01 0.106E-21   -.720E-06 0.163E-05 -.166E-09
   -.167E+01 -.961E+00 -.210E-04   0.237E+01 0.137E+01 0.721E-18   -.258E+00 -.149E+00 -.106E-21   -.294E-05 -.170E-05 -.848E-10
   -.280E-02 -.108E-02 0.131E-07   0.249E-13 -.871E-03 -.454E-18   0.207E-18 0.474E-19 0.000E+00   0.625E-10 -.346E-10 0.584E-11
 -----------------------------------------------------------------------------------------------
   -.258E-01 -.162E-01 -.181E-04   -.533E-13 0.787E-13 0.000E+00   0.333E-15 0.136E-14 0.451E-21   -.477E-10 -.570E-09 0.269E-10
 
 
 POSITION                                       TOTAL-FORCE (eV/Angst)
 -----------------------------------------------------------------------------------
      1.25228     -0.72096     17.55733        -0.006047     -0.007720      0.000000
      2.50660      1.45160     17.55733         0.003662      0.009097      0.000000
      3.76765      3.62568     17.55733        -0.013103     -0.007565      0.000000
      5.02437      5.80239     17.55733         0.000000      0.015131      0.000000
      2.50749     -2.90354     17.55733         0.000255      0.000147     -0.000000
      3.73169     -0.70408     17.55733        -0.013944      0.008051      0.000000
      5.02437      1.45584     17.55733         0.000000     -0.000294      0.000000
      6.28109      3.62568     17.55733         0.013103     -0.007565     -0.000000
      3.77005     -5.08189     17.55733        -0.009709     -0.001377     -0.000000
      5.02437     -2.94309     17.55733         0.000000     -0.016101     -0.000000
      6.31706     -0.70408     17.55733         0.013944      0.008051      0.000000
      7.54215      1.45160     17.55733        -0.003662      0.009097      0.000000
      5.02437     -7.25208     17.55733         0.000000     -0.000000      0.000000
      6.27869     -5.08189     17.55733         0.009709     -0.001377      0.000000
      7.54125     -2.90354     17.55733        -0.000255      0.000147      0.000000
      8.79646     -0.72096     17.55733         0.006047     -0.007720      0.000000
      1.25721      0.72457     17.55733         0.003684     -0.002127     -0.000000
      2.51128      2.90031     17.55733         0.010232      0.005908      0.000000
      3.76596      5.07780     17.55733         0.004985     -0.002878      0.000000
      5.02437      7.25313     17.55733         0.000000     -0.011815     -0.000000
      2.52366     -1.45148     17.55733        -0.007019     -0.000700      0.000000
      3.77494      0.71580     17.55733        -0.002903      0.006428      0.000000
      5.02437      2.89815     17.55733        -0.000000      0.005756      0.000000
      6.28278      5.07780     17.55733        -0.004985     -0.002878      0.000000
      3.77309     -3.61557     17.55733        -0.004116     -0.005728      0.000000
      6.27380      0.71580     17.55733         0.002903      0.006428      0.000000
      7.53746      2.90031     17.55733        -0.010232      0.005908     -0.000000
      5.02437     -5.80038     17.55733         0.000000      0.004254      0.000000
      6.27565     -3.61557     17.55733         0.004116     -0.005728      0.000000
      7.52508     -1.45148     17.55733         0.007019     -0.000700     -0.000000
      8.79154      0.72457     17.55733        -0.003684     -0.002127      0.000000
      5.02437     -1.45042     17.55733         0.000000     -0.000000      0.000000
 -----------------------------------------------------------------------------------
    total drift:                               -0.025773     -0.016209     -0.000018


--------------------------------------------------------------------------------------------------------



  FREE ENERGIE OF THE ION-ELECTRON SYSTEM (eV)
  ---------------------------------------------------
  free  energy   TOTEN  =      -309.03680087 eV

  energy  without entropy=     -309.03638817  energy(sigma->0) =     -309.03659452
 


--------------------------------------------------------------------------------------------------------


    POTLOK:  cpu time    7.4678: real time    7.2846


--------------------------------------------------------------------------------------------------------




--------------------------------------------------------------------------------------------------------


  
 reached required accuracy - stopping structural energy minimisation
 writing wavefunctions
     LOOP+:  cpu time 5628.5592: real time 3817.1879
    4ORBIT:  cpu time    0.0000: real time    0.0000
 


 total charge     
 
# of ion       s       p       d       tot
------------------------------------------
    1        0.740   1.379   0.000   2.119
    2        0.740   1.379   0.000   2.119
    3        0.742   1.385   0.000   2.127
    4        0.742   1.384   0.000   2.126
    5        0.742   1.388   0.000   2.131
    6        0.731   1.340   0.000   2.071
    7        0.742   1.388   0.000   2.131
    8        0.742   1.384   0.000   2.126
    9        0.740   1.379   0.000   2.119
   10        0.731   1.340   0.000   2.071
   11        0.731   1.340   0.000   2.071
   12        0.740   1.379   0.000   2.119
   13        0.742   1.385   0.000   2.127
   14        0.740   1.379   0.000   2.119
   15        0.743   1.389   0.000   2.131
   16        0.740   1.379   0.000   2.119
   17        1.238   2.827   0.000   4.066
   18        1.237   2.825   0.000   4.062
   19        1.237   2.826   0.000   4.063
   20        1.237   2.825   0.000   4.062
   21        1.237   2.833   0.000   4.070
   22        1.237   2.833   0.000   4.070
   23        1.237   2.826   0.000   4.063
   24        1.237   2.826   0.000   4.064
   25        1.237   2.833   0.000   4.070
   26        1.237   2.833   0.000   4.070
   27        1.237   2.825   0.000   4.062
   28        1.238   2.827   0.000   4.066
   29        1.237   2.833   0.000   4.070
   30        1.237   2.833   0.000   4.070
   31        1.238   2.827   0.000   4.066
   32        1.546   3.706   0.000   5.253
--------------------------------------------------
tot         31.934  68.136   0.000 100.070
 


 magnetization (x)
 
# of ion       s       p       d       tot
------------------------------------------
    1       -0.000  -0.000   0.000  -0.000
    2       -0.000  -0.000   0.000  -0.000
    3       -0.000  -0.000   0.000  -0.000
    4       -0.000  -0.000   0.000  -0.000
    5       -0.000  -0.000   0.000  -0.000
    6       -0.000  -0.000   0.000  -0.000
    7       -0.000  -0.000   0.000  -0.000
    8       -0.000  -0.000   0.000  -0.000
    9       -0.000  -0.000   0.000  -0.000
   10       -0.000  -0.000   0.000  -0.000
   11       -0.000  -0.000   0.000  -0.000
   12       -0.000  -0.000   0.000  -0.000
   13       -0.000  -0.000   0.000  -0.000
   14       -0.000  -0.000   0.000  -0.000
   15       -0.000  -0.000   0.000  -0.000
   16       -0.000  -0.000   0.000  -0.000
   17        0.000  -0.000   0.000   0.000
   18        0.000  -0.000   0.000   0.000
   19        0.000  -0.000   0.000   0.000
   20        0.000  -0.000   0.000   0.000
   21        0.000  -0.000   0.000   0.000
   22        0.000  -0.000   0.000   0.000
   23        0.000  -0.000   0.000   0.000
   24        0.000  -0.000   0.000   0.000
   25        0.000  -0.000   0.000   0.000
   26        0.000  -0.000   0.000   0.000
   27        0.000  -0.000   0.000   0.000
   28        0.000  -0.000   0.000   0.000
   29        0.000  -0.000   0.000   0.000
   30        0.000  -0.000   0.000   0.000
   31        0.000  -0.000   0.000   0.000
   32        0.000  -0.000   0.000   0.000
--------------------------------------------------
tot          0.000  -0.000   0.000   0.000
 

 total amount of memory used by VASP MPI-rank0   400144. kBytes
=======================================================================

   base      :      30000. kBytes
   nonlr-proj:      14748. kBytes
   fftplans  :      18104. kBytes
   grid      :     285091. kBytes
   one-center:        196. kBytes
   wavefun   :      52005. kBytes
 
  
  
 General timing and accounting informations for this job:
 ========================================================
  
                  Total CPU time used (sec):     5829.698
                            User time (sec):     5576.137
                          System time (sec):      253.562
                         Elapsed time (sec):     3933.305
  
                   Maximum memory used (kb):     1400176.
                   Average memory used (kb):           0.
  
                          Minor page faults:      3019975
                          Major page faults:            0
                 Voluntary context switches:        46152
