 vasp.5.4.4.18Apr17-6-g9f103f2a35 (build May 01 2020 14:57:12) complex          
  
 executed on             LinuxIFC date 2021.04.16  00:39:49
 running on  192 total cores
 distrk:  each k-point on   48 cores,    4 groups
 distr:  one band on NCORES_PER_BAND=  12 cores,    4 groups


--------------------------------------------------------------------------------------------------------


 INCAR:
 POTCAR:    PAW_PBE B 06Sep2000                   
 POTCAR:    PAW_PBE C 08Apr2002                   
 POTCAR:    PAW_PBE F 08Apr2002                   
 POTCAR:    PAW_PBE N 08Apr2002                   
 POTCAR:    PAW_PBE O 08Apr2002                   

 ----------------------------------------------------------------------------- 
|                                                                             |
|           W    W    AA    RRRRR   N    N  II  N    N   GGGG   !!!           |
|           W    W   A  A   R    R  NN   N  II  NN   N  G    G  !!!           |
|           W    W  A    A  R    R  N N  N  II  N N  N  G       !!!           |
|           W WW W  AAAAAA  RRRRR   N  N N  II  N  N N  G  GGG   !            |
|           WW  WW  A    A  R   R   N   NN  II  N   NN  G    G                |
|           W    W  A    A  R    R  N    N  II  N    N   GGGG   !!!           |
|                                                                             |
|      You have enabled k-point parallelism (KPAR>1).                         |
|      This developmental code was originally  written by Paul Kent at ORNL,  |
|      and carefully double checked in Vienna.                                |
|      GW as well as linear response parallelism added by Martijn Marsman     |
|      and Georg Kresse.                                                      |
|      Carefully verify results versus KPAR=1.                                |
|      Report problems to Paul Kent and Vienna.                               |
|                                                                             |
 ----------------------------------------------------------------------------- 


 ----------------------------------------------------------------------------- 
|                                                                             |
|  ADVICE TO THIS USER RUNNING 'VASP/VAMP'   (HEAR YOUR MASTER'S VOICE ...):  |
|                                                                             |
|      You have switched on vdW-DFT.                                          |
|      This routine was written and supplied by Jiri Klimes.                  |
|      We recommed that you carefully read and cite the following             |
|      publication                                                            |
|      J. Klimes, D.R. Bowler, A. Michelides                                  |
|        J. Phys.: Cond Matt. 22 022201 (2010)                                |
|      J. Klimes, D.R. Bowler, A. Michelides                                  |
|        Phys. Rev. B. 83, 195131 (2011)                                      |
|      and references therein.                                                |
|                                                                             |
 ----------------------------------------------------------------------------- 

 POTCAR:    PAW_PBE B 06Sep2000                   
   VRHFIN =B: s2p1                                                              
   LEXCH  = PE                                                                  
   EATOM  =    71.1703 eV,    5.2309 Ry                                         
                                                                                
   TITEL  = PAW_PBE B 06Sep2000                                                 
   LULTRA =        F    use ultrasoft PP ?                                      
   IUNSCR =        1    unscreen: 0-lin 1-nonlin 2-no                           
   RPACOR =    1.200    partial core radius                                     
   POMASS =   10.811; ZVAL   =    3.000    mass and valenz                      
   RCORE  =    1.700    outmost cutoff radius                                   
   RWIGS  =    1.710; RWIGS  =    0.905    wigner-seitz radius (au A)           
   ENMAX  =  318.614; ENMIN  =  238.960 eV                                      
   ICORE  =        2    local potential                                         
   LCOR   =        T    correct aug charges                                     
   LPAW   =        T    paw PP                                                  
   EAUG   =  535.514                                                            
   DEXC   =    0.000                                                            
   RMAX   =    1.732    core radius for proj-oper                               
   RAUG   =    1.300    factor for augmentation sphere                          
   RDEP   =    1.757    radius for radial grids                                 
   RDEPT  =    1.436    core radius for aug-charge                              
                                                                                
   Atomic configuration                                                         
    4 entries                                                                   
     n  l   j            E        occ.                                          
     1  0  0.50      -180.5896   2.0000                                         
     2  0  0.50        -9.4431   2.0000                                         
     2  1  0.50        -3.6068   1.0000                                         
     3  2  1.50        -4.0817   0.0000                                         
   Description                                                                  
     l       E           TYP  RCUT    TYP  RCUT                                 
     0     -9.4430752     23  1.500                                             
     0      0.8675899     23  1.500                                             
     1     -3.6067955     23  1.700                                             
     1      6.1086146     23  1.700                                             
     2     -4.0817478      7  1.700                                             
  local pseudopotential read in
  partial core-charges read in
  partial kinetic energy density read in
  atomic valenz-charges read in
  non local Contribution for L=           0  read in
    real space projection operators read in
  non local Contribution for L=           0  read in
    real space projection operators read in
  non local Contribution for L=           1  read in
    real space projection operators read in
  non local Contribution for L=           1  read in
    real space projection operators read in
    PAW grid and wavefunctions read in
 
   number of l-projection  operators is LMAX  =           4
   number of lm-projection operators is LMMAX =           8
 
 POTCAR:    PAW_PBE C 08Apr2002                   
   VRHFIN =C: s2p2                                                              
   LEXCH  = PE                                                                  
   EATOM  =   147.1560 eV,   10.8157 Ry                                         
                                                                                
   TITEL  = PAW_PBE C 08Apr2002                                                 
   LULTRA =        F    use ultrasoft PP ?                                      
   IUNSCR =        1    unscreen: 0-lin 1-nonlin 2-no                           
   RPACOR =    1.200    partial core radius                                     
   POMASS =   12.011; ZVAL   =    4.000    mass and valenz                      
   RCORE  =    1.500    outmost cutoff radius                                   
   RWIGS  =    1.630; RWIGS  =    0.863    wigner-seitz radius (au A)           
   ENMAX  =  400.000; ENMIN  =  300.000 eV                                      
   ICORE  =        2    local potential                                         
   LCOR   =        T    correct aug charges                                     
   LPAW   =        T    paw PP                                                  
   EAUG   =  644.873                                                            
   DEXC   =    0.000                                                            
   RMAX   =    1.529    core radius for proj-oper                               
   RAUG   =    1.300    factor for augmentation sphere                          
   RDEP   =    1.501    radius for radial grids                                 
   RDEPT  =    1.300    core radius for aug-charge                              
                                                                                
   Atomic configuration                                                         
    4 entries                                                                   
     n  l   j            E        occ.                                          
     1  0  0.50      -273.3789   2.0000                                         
     2  0  0.50       -13.7508   2.0000                                         
     2  1  0.50        -5.2854   2.0000                                         
     3  2  1.50        -5.4423   0.0000                                         
   Description                                                                  
     l       E           TYP  RCUT    TYP  RCUT                                 
     0    -13.7508458     23  1.200                                             
     0     -8.2022199     23  1.200                                             
     1     -5.2854383     23  1.500                                             
     1     34.0145650     23  1.500                                             
     2     -5.4423304      7  1.500                                             
  local pseudopotential read in
  partial core-charges read in
  partial kinetic energy density read in
  atomic valenz-charges read in
  non local Contribution for L=           0  read in
    real space projection operators read in
  non local Contribution for L=           0  read in
    real space projection operators read in
  non local Contribution for L=           1  read in
    real space projection operators read in
  non local Contribution for L=           1  read in
    real space projection operators read in
    PAW grid and wavefunctions read in
 
   number of l-projection  operators is LMAX  =           4
   number of lm-projection operators is LMMAX =           8
 
 POTCAR:    PAW_PBE F 08Apr2002                   
   VRHFIN =F: s2p5                                                              
   LEXCH  = PE                                                                  
   EATOM  =   659.6475 eV,   48.4827 Ry                                         
                                                                                
   TITEL  = PAW_PBE F 08Apr2002                                                 
   LULTRA =        F    use ultrasoft PP ?                                      
   IUNSCR =        1    unscreen: 0-lin 1-nonlin 2-no                           
   RPACOR =    1.200    partial core radius                                     
   POMASS =   18.998; ZVAL   =    7.000    mass and valenz                      
   RCORE  =    1.520    outmost cutoff radius                                   
   RWIGS  =    1.500; RWIGS  =    0.794    wigner-seitz radius (au A)           
   ENMAX  =  400.000; ENMIN  =  300.000 eV                                      
   ICORE  =        2    local potential                                         
   LCOR   =        T    correct aug charges                                     
   LPAW   =        T    paw PP                                                  
   EAUG   =  613.614                                                            
   RMAX   =    1.555    core radius for proj-oper                               
   RAUG   =    1.300    factor for augmentation sphere                          
   RDEP   =    1.539    radius for radial grids                                 
   RDEPT  =    1.299    core radius for aug-charge                              
                                                                                
   Atomic configuration                                                         
    4 entries                                                                   
     n  l   j            E        occ.                                          
     1  0  0.50      -663.3661   2.0000                                         
     2  0  0.50       -29.8995   2.0000                                         
     2  1  0.50       -11.1114   5.0000                                         
     3  2  1.50       -10.8847   0.0000                                         
   Description                                                                  
     l       E           TYP  RCUT    TYP  RCUT                                 
     0    -29.8995018     23  1.200                                             
     0     -9.5240782     23  1.200                                             
     1    -11.1113914     23  1.520                                             
     1      1.3605826     23  1.520                                             
     2    -10.8846608      7  1.500                                             
  local pseudopotential read in
  partial core-charges read in
  partial kinetic energy density read in
  atomic valenz-charges read in
  non local Contribution for L=           0  read in
    real space projection operators read in
  non local Contribution for L=           0  read in
    real space projection operators read in
  non local Contribution for L=           1  read in
    real space projection operators read in
  non local Contribution for L=           1  read in
    real space projection operators read in
    PAW grid and wavefunctions read in
 
   number of l-projection  operators is LMAX  =           4
   number of lm-projection operators is LMMAX =           8
 
 POTCAR:    PAW_PBE N 08Apr2002                   
   VRHFIN =N: s2p3                                                              
   LEXCH  = PE                                                                  
   EATOM  =   264.5486 eV,   19.4438 Ry                                         
                                                                                
   TITEL  = PAW_PBE N 08Apr2002                                                 
   LULTRA =        F    use ultrasoft PP ?                                      
   IUNSCR =        1    unscreen: 0-lin 1-nonlin 2-no                           
   RPACOR =    1.200    partial core radius                                     
   POMASS =   14.001; ZVAL   =    5.000    mass and valenz                      
   RCORE  =    1.500    outmost cutoff radius                                   
   RWIGS  =    1.400; RWIGS  =    0.741    wigner-seitz radius (au A)           
   ENMAX  =  400.000; ENMIN  =  300.000 eV                                      
   ICORE  =        2    local potential                                         
   LCOR   =        T    correct aug charges                                     
   LPAW   =        T    paw PP                                                  
   EAUG   =  627.112                                                            
   DEXC   =    0.000                                                            
   RMAX   =    1.529    core radius for proj-oper                               
   RAUG   =    1.300    factor for augmentation sphere                          
   RDEP   =    1.514    radius for radial grids                                 
   RDEPT  =    1.338    core radius for aug-charge                              
                                                                                
   Atomic configuration                                                         
    4 entries                                                                   
     n  l   j            E        occ.                                          
     1  0  0.50      -384.7179   2.0000                                         
     2  0  0.50       -18.5828   2.0000                                         
     2  1  0.50        -7.0898   3.0000                                         
     3  2  1.50        -6.8029   0.0000                                         
   Description                                                                  
     l       E           TYP  RCUT    TYP  RCUT                                 
     0    -18.5828119     23  1.200                                             
     0    -13.5018863     23  1.200                                             
     1     -7.0897853     23  1.500                                             
     1      9.5240782     23  1.500                                             
     2     -6.8029130      7  1.500                                             
  local pseudopotential read in
  partial core-charges read in
  partial kinetic energy density read in
  atomic valenz-charges read in
  non local Contribution for L=           0  read in
    real space projection operators read in
  non local Contribution for L=           0  read in
    real space projection operators read in
  non local Contribution for L=           1  read in
    real space projection operators read in
  non local Contribution for L=           1  read in
    real space projection operators read in
    PAW grid and wavefunctions read in
 
   number of l-projection  operators is LMAX  =           4
   number of lm-projection operators is LMMAX =           8
 
 POTCAR:    PAW_PBE O 08Apr2002                   
   VRHFIN =O: s2p4                                                              
   LEXCH  = PE                                                                  
   EATOM  =   432.3788 eV,   31.7789 Ry                                         
                                                                                
   TITEL  = PAW_PBE O 08Apr2002                                                 
   LULTRA =        F    use ultrasoft PP ?                                      
   IUNSCR =        1    unscreen: 0-lin 1-nonlin 2-no                           
   RPACOR =    1.200    partial core radius                                     
   POMASS =   16.000; ZVAL   =    6.000    mass and valenz                      
   RCORE  =    1.520    outmost cutoff radius                                   
   RWIGS  =    1.550; RWIGS  =    0.820    wigner-seitz radius (au A)           
   ENMAX  =  400.000; ENMIN  =  300.000 eV                                      
   ICORE  =        2    local potential                                         
   LCOR   =        T    correct aug charges                                     
   LPAW   =        T    paw PP                                                  
   EAUG   =  605.392                                                            
   DEXC   =    0.000                                                            
   RMAX   =    1.553    core radius for proj-oper                               
   RAUG   =    1.300    factor for augmentation sphere                          
   RDEP   =    1.550    radius for radial grids                                 
   RDEPT  =    1.329    core radius for aug-charge                              
                                                                                
   Atomic configuration                                                         
    4 entries                                                                   
     n  l   j            E        occ.                                          
     1  0  0.50      -514.6923   2.0000                                         
     2  0  0.50       -23.9615   2.0000                                         
     2  1  0.50        -9.0305   4.0000                                         
     3  2  1.50        -9.5241   0.0000                                         
   Description                                                                  
     l       E           TYP  RCUT    TYP  RCUT                                 
     0    -23.9615318     23  1.200                                             
     0     -9.5240782     23  1.200                                             
     1     -9.0304911     23  1.520                                             
     1      8.1634956     23  1.520                                             
     2     -9.5240782      7  1.500                                             
  local pseudopotential read in
  partial core-charges read in
  partial kinetic energy density read in
  kinetic energy density of atom read in
  atomic valenz-charges read in
  non local Contribution for L=           0  read in
    real space projection operators read in
  non local Contribution for L=           0  read in
    real space projection operators read in
  non local Contribution for L=           1  read in
    real space projection operators read in
  non local Contribution for L=           1  read in
    real space projection operators read in
    PAW grid and wavefunctions read in
 
   number of l-projection  operators is LMAX  =           4
   number of lm-projection operators is LMMAX =           8
 
 Optimization of the real space projectors (new method)

 maximal supplied QI-value         = 22.11
 optimisation between [QCUT,QGAM] = [ 11.94, 23.88] = [ 39.92,159.67] Ry 
 Optimized for a Real-space Cutoff    1.18 Angstroem

   l    n(q)    QCUT    max X(q) W(low)/X(q) W(high)/X(q)  e(spline) 
   0      8    11.939    53.033    0.11E-03    0.34E-03    0.60E-07
   0      8    11.939    34.740    0.11E-03    0.34E-03    0.59E-07
   1      8    11.939    30.949    0.22E-03    0.20E-03    0.17E-06
   1      8    11.939    19.518    0.20E-03    0.18E-03    0.16E-06
 Optimization of the real space projectors (new method)

 maximal supplied QI-value         = 25.13
 optimisation between [QCUT,QGAM] = [ 11.81, 23.88] = [ 39.08,159.64] Ry 
 Optimized for a Real-space Cutoff    1.18 Angstroem

   l    n(q)    QCUT    max X(q) W(low)/X(q) W(high)/X(q)  e(spline) 
   0      8    11.813   115.676    0.10E-03    0.16E-03    0.35E-06
   0      8    11.813    87.132    0.10E-03    0.16E-03    0.35E-06
   1      8    11.813     4.429    0.16E-03    0.13E-04    0.22E-06
   1      8    11.813     2.733    0.13E-03    0.10E-04    0.18E-06
 Optimization of the real space projectors (new method)

 maximal supplied QI-value         = 24.76
 optimisation between [QCUT,QGAM] = [ 11.88, 24.01] = [ 39.54,161.47] Ry 
 Optimized for a Real-space Cutoff    1.18 Angstroem

   l    n(q)    QCUT    max X(q) W(low)/X(q) W(high)/X(q)  e(spline) 
   0      8    11.883    14.049    0.56E-04    0.86E-04    0.22E-06
   0      8    11.883     8.945    0.81E-04    0.11E-03    0.30E-06
   1      8    11.883     7.086    0.16E-03    0.15E-04    0.31E-06
   1      8    11.883     6.747    0.15E-03    0.14E-04    0.28E-06
 Optimization of the real space projectors (new method)

 maximal supplied QI-value         = 25.13
 optimisation between [QCUT,QGAM] = [ 11.81, 23.88] = [ 39.08,159.64] Ry 
 Optimized for a Real-space Cutoff    1.41 Angstroem

   l    n(q)    QCUT    max X(q) W(low)/X(q) W(high)/X(q)  e(spline) 
   0     10    11.813    79.467    0.48E-04    0.30E-04    0.67E-06
   0     10    11.813    66.151    0.47E-04    0.30E-04    0.67E-06
   1     10    11.813    20.169    0.11E-03    0.17E-03    0.11E-05
   1     10    11.813    14.454    0.11E-03    0.17E-03    0.11E-05
 Optimization of the real space projectors (new method)

 maximal supplied QI-value         = 24.76
 optimisation between [QCUT,QGAM] = [ 11.88, 24.01] = [ 39.54,161.47] Ry 
 Optimized for a Real-space Cutoff    1.18 Angstroem

   l    n(q)    QCUT    max X(q) W(low)/X(q) W(high)/X(q)  e(spline) 
   0      8    11.883    20.381    0.86E-04    0.11E-03    0.31E-06
   0      8    11.883    15.268    0.94E-04    0.12E-03    0.33E-06
   1      8    11.883     5.964    0.19E-03    0.18E-04    0.33E-06
   1      8    11.883     5.382    0.17E-03    0.20E-04    0.29E-06
  PAW_PBE B 06Sep2000                   :
 energy of atom  1       EATOM=  -71.1703
 kinetic energy error for atom=    0.0009 (will be added to EATOM!!)
  PAW_PBE C 08Apr2002                   :
 energy of atom  2       EATOM= -147.1560
 kinetic energy error for atom=    0.0066 (will be added to EATOM!!)
  PAW_PBE F 08Apr2002                   :
 energy of atom  3       EATOM= -659.6475
 kinetic energy error for atom=    0.0296 (will be added to EATOM!!)
  PAW_PBE N 08Apr2002                   :
 energy of atom  4       EATOM= -264.5486
 kinetic energy error for atom=    0.0116 (will be added to EATOM!!)
  PAW_PBE O 08Apr2002                   :
 energy of atom  5       EATOM= -432.3788
 kinetic energy error for atom=    0.0194 (will be added to EATOM!!)
 
 
 POSCAR: B C F N O                               
  positions in direct lattice
  velocities in cartesian coordinates

 METAGGA = SCAN     LMAXTAU =  6    LMIXTAU =  F

 exchange correlation table for  LEXCH =        8
   RHO(1)=    0.500       N(1)  =     2000
   RHO(2)=  100.500       N(2)  =     4000
 


--------------------------------------------------------------------------------------------------------


 ion  position               nearest neighbor table
   1  0.111  0.056  0.493-  65 1.45  66 1.45  60 1.45
   2  0.111  0.222  0.493-  60 1.45  61 1.45  67 1.45
   3  0.111  0.389  0.493-  62 1.44  61 1.44  68 1.47
   4  0.111  0.556  0.493-  63 1.44  62 1.45  69 1.47
   5  0.111  0.722  0.493-  64 1.45  63 1.45  70 1.45
   6  0.111  0.889  0.493-  71 1.45  65 1.45  64 1.45
   7  0.278  0.056  0.493-  72 1.45  71 1.45  66 1.45
   8  0.278  0.222  0.492-  66 1.45  73 1.45  67 1.45
   9  0.278  0.389  0.492-  67 1.44  68 1.45  74 1.45
  10  0.274  0.554  0.492-  69 1.41  68 1.42  95 1.50
  11  0.278  0.723  0.493-  70 1.44  69 1.45  75 1.45
  12  0.278  0.889  0.493-  71 1.45  76 1.45  70 1.45
  13  0.445  0.056  0.493-  77 1.45  72 1.45  76 1.45
  14  0.445  0.223  0.492-  78 1.45  72 1.45  73 1.46
  15  0.445  0.389  0.491-  73 1.44  79 1.44  74 1.47
  16  0.446  0.554  0.491-  80 1.42  74 1.42  95 1.49
  17  0.446  0.726  0.492-  75 1.41  81 1.42  95 1.50
  18  0.445  0.890  0.493-  76 1.44  82 1.45  75 1.47
  19  0.611  0.056  0.493-  83 1.45  77 1.45  82 1.46
  20  0.611  0.223  0.492-  84 1.45  77 1.45  78 1.45
  21  0.611  0.389  0.491-  78 1.45  85 1.45  79 1.46
  22  0.611  0.556  0.491-  86 1.44  79 1.44  80 1.47
  23  0.612  0.723  0.491-  87 1.44  81 1.45  80 1.45
  24  0.611  0.890  0.492-  88 1.44  82 1.44  81 1.47
  25  0.778  0.056  0.493-  83 1.45  89 1.45  88 1.45
  26  0.778  0.223  0.493-  84 1.45  83 1.45  90 1.45
  27  0.778  0.389  0.492-  84 1.45  91 1.45  85 1.45
  28  0.778  0.556  0.492-  85 1.45  92 1.45  86 1.46
  29  0.778  0.722  0.492-  93 1.45  86 1.45  87 1.45
  30  0.778  0.889  0.492-  94 1.45  88 1.45  87 1.45
  31  0.944  0.056  0.493-  89 1.45  94 1.45  60 1.45
  32  0.944  0.223  0.493-  90 1.45  89 1.45  61 1.46
  33  0.944  0.389  0.493-  90 1.45  91 1.45  62 1.46
  34  0.945  0.556  0.493-  91 1.45  92 1.45  63 1.45
  35  0.945  0.722  0.493-  92 1.45  64 1.45  93 1.45
  36  0.944  0.889  0.493-  65 1.45  93 1.45  94 1.45
  37  0.522  0.396  0.610-  45 1.35  46 1.35  39 1.55  38 1.56
  38  0.535  0.504  0.615-  47 1.35  48 1.36  40 1.55  37 1.56
  39  0.613  0.387  0.626-  54 1.35  53 1.35  43 1.55  37 1.55
  40  0.434  0.507  0.610-  50 1.35  49 1.36  41 1.55  38 1.55
  41  0.450  0.616  0.603-  51 1.35  52 1.37  42 1.54  40 1.55
  42  0.353  0.625  0.608-  55 1.37  56 1.37  41 1.54  44 1.56
  43  0.619  0.293  0.611-  59 1.34  58 1.34  57 1.34  39 1.55
  44  0.362  0.726  0.592-  97 1.24  96 1.25  42 1.56
  45  0.435  0.326  0.628-  37 1.35
  46  0.514  0.373  0.572-  37 1.35
  47  0.573  0.539  0.650-  38 1.35
  48  0.604  0.567  0.588-  38 1.36
  49  0.385  0.448  0.579-  40 1.36
  50  0.375  0.465  0.641-  40 1.35
  51  0.524  0.679  0.628-  41 1.35
  52  0.485  0.645  0.567-  41 1.37
  53  0.702  0.472  0.618-  39 1.35
  54  0.603  0.378  0.665-  39 1.35
  55  0.275  0.539  0.591-  42 1.37
  56  0.331  0.619  0.646-  42 1.37
  57  0.526  0.209  0.612-  43 1.34
  58  0.654  0.310  0.576-  43 1.34
  59  0.682  0.278  0.633-  43 1.34
  60  0.056  0.112  0.493-   2 1.45   1 1.45  31 1.45
  61  0.056  0.278  0.493-   3 1.44   2 1.45  32 1.46
  62  0.056  0.445  0.493-   3 1.44   4 1.45  33 1.46
  63  0.056  0.611  0.493-   4 1.44   5 1.45  34 1.45
  64  0.056  0.778  0.493-   5 1.45  35 1.45   6 1.45
  65  0.056  0.945  0.493-  36 1.45   1 1.45   6 1.45
  66  0.222  0.112  0.493-   8 1.45   1 1.45   7 1.45
  67  0.223  0.279  0.492-   9 1.44   8 1.45   2 1.45
  68  0.223  0.446  0.492-  10 1.42   9 1.45   3 1.47
  69  0.223  0.612  0.492-  10 1.41  11 1.45   4 1.47
  70  0.223  0.778  0.493-  11 1.44  12 1.45   5 1.45
  71  0.222  0.945  0.493-  12 1.45   7 1.45   6 1.45
  72  0.389  0.111  0.492-  14 1.45   7 1.45  13 1.45
  73  0.389  0.278  0.492-  15 1.44   8 1.45  14 1.46
  74  0.389  0.446  0.491-  16 1.42   9 1.45  15 1.47
  75  0.389  0.777  0.492-  17 1.41  11 1.45  18 1.47
  76  0.389  0.944  0.493-  18 1.44  12 1.45  13 1.45
  77  0.556  0.111  0.492-  19 1.45  13 1.45  20 1.45
  78  0.556  0.278  0.492-  21 1.45  14 1.45  20 1.45
  79  0.555  0.445  0.491-  22 1.44  15 1.44  21 1.46
  80  0.555  0.612  0.491-  16 1.42  23 1.45  22 1.47
  81  0.555  0.777  0.492-  17 1.42  23 1.45  24 1.47
  82  0.556  0.945  0.492-  24 1.44  18 1.45  19 1.46
  83  0.722  0.111  0.493-  19 1.45  25 1.45  26 1.45
  84  0.722  0.278  0.492-  27 1.45  20 1.45  26 1.45
  85  0.722  0.445  0.492-  21 1.45  28 1.45  27 1.45
  86  0.722  0.611  0.492-  22 1.44  29 1.45  28 1.46
  87  0.722  0.778  0.492-  23 1.44  29 1.45  30 1.45
  88  0.722  0.945  0.493-  24 1.44  30 1.45  25 1.45
  89  0.889  0.111  0.493-  32 1.45  25 1.45  31 1.45
  90  0.889  0.278  0.493-  33 1.45  32 1.45  26 1.45
  91  0.889  0.445  0.493-  33 1.45  34 1.45  27 1.45
  92  0.889  0.611  0.493-  28 1.45  35 1.45  34 1.45
  93  0.889  0.778  0.493-  29 1.45  36 1.45  35 1.45
  94  0.889  0.945  0.493-  30 1.45  31 1.45  36 1.45
  95  0.389  0.612  0.492-  16 1.49  10 1.50  17 1.50
  96  0.447  0.804  0.597-  44 1.25
  97  0.283  0.715  0.576-  44 1.24
 
  LATTYP: Found a hexagonal cell.
 ALAT       =    15.0731507304
 C/A-ratio  =     2.3296167479
  
  Lattice vectors:
  
 A1 = (   7.5365500567, -13.0537460594,   0.0000000000)
 A2 = (   7.5365500567,  13.0537460594,   0.0000000000)
 A3 = (   0.0000000000,   0.0000000000,  35.1146643856)


Analysis of symmetry for initial positions (statically):
=====================================================================
 Subroutine PRICEL returns:
 Original cell was already a primitive cell.
 

 Routine SETGRP: Setting up the symmetry group for a 
 hexagonal supercell.


 Subroutine GETGRP returns: Found  1 space group operations
 (whereof  1 operations were pure point group operations)
 out of a pool of 24 trial point group operations.


The static configuration has the point symmetry C_1 .


Analysis of symmetry for dynamics (positions and initial velocities):
=====================================================================
 Subroutine PRICEL returns:
 Original cell was already a primitive cell.
 

 Routine SETGRP: Setting up the symmetry group for a 
 hexagonal supercell.


 Subroutine GETGRP returns: Found  1 space group operations
 (whereof  1 operations were pure point group operations)
 out of a pool of 24 trial point group operations.


The dynamic configuration has the point symmetry C_1 .


Analysis of constrained symmetry for selective dynamics:
=====================================================================
 Subroutine PRICEL returns:
 Original cell was already a primitive cell.
 

 Routine SETGRP: Setting up the symmetry group for a 
 hexagonal supercell.


 Subroutine GETGRP returns: Found  1 space group operations
 (whereof  1 operations were pure point group operations)
 out of a pool of 24 trial point group operations.


The constrained configuration has the point symmetry C_1 .


Analysis of structural, dynamic, and magnetic symmetry:
=====================================================================
 Subroutine PRICEL returns:
 Original cell was already a primitive cell.
 

 Routine SETGRP: Setting up the symmetry group for a 
 hexagonal supercell.


 Subroutine GETGRP returns: Found  1 space group operations
 (whereof  1 operations were pure point group operations)
 out of a pool of 24 trial point group operations.


The magnetic configuration has the point symmetry C_1 .


 Subroutine INISYM returns: Found  1 space group operations
 (whereof  1 operations are pure point group operations),
 and found     1 'primitive' translations

 
 
 KPOINTS: K-Point Grid                            

Automatic generation of k-mesh.
Space group operators:
 irot       det(A)        alpha          n_x          n_y          n_z        tau_x        tau_y        tau_z
    1     1.000000     0.000000     1.000000     0.000000     0.000000     0.000000     0.000000     0.000000
 
 Subroutine IBZKPT returns following result:
 ===========================================
 
 Found      5 irreducible k-points:
 
 Following reciprocal coordinates:
            Coordinates               Weight
  0.000000  0.000000  0.000000      1.000000
  0.333333  0.000000  0.000000      2.000000
  0.000000  0.333333  0.000000      2.000000
  0.333333  0.333333  0.000000      2.000000
 -0.333333  0.333333  0.000000      2.000000
 
 Following cartesian coordinates:
            Coordinates               Weight
  0.000000  0.000000  0.000000      1.000000
  0.022114 -0.012768  0.000000      2.000000
  0.022114  0.012768  0.000000      2.000000
  0.044229  0.000000  0.000000      2.000000
  0.000000  0.025535  0.000000      2.000000
 


--------------------------------------------------------------------------------------------------------




 Dimension of arrays:
   k-points           NKPTS =      5   k-points in BZ     NKDIM =      5   number of bands    NBANDS=    320
   number of dos      NEDOS =   1200   number of ions     NIONS =     97
   non local maximal  LDIM  =      4   non local SUM 2l+1 LMDIM =      8
   total plane-waves  NPLWV = ******
   max r-space proj   IRMAX =   6598   max aug-charges    IRDMAX=   8974
   dimension x,y,z NGX =   120 NGY =  120 NGZ =  270
   dimension x,y,z NGXF=   240 NGYF=  240 NGZF=  540
   support grid    NGXF=   240 NGYF=  240 NGZF=  540
   ions per type =              36   8  15  35   3
   NGX,Y,Z   is equivalent  to a cutoff of  13.24, 13.24, 12.78 a.u.
   NGXF,Y,Z  is equivalent  to a cutoff of  26.47, 26.47, 25.57 a.u.

 SYSTEM =  SiC                                     
 POSCAR =  B C F N O                               

 Startparameter for this run:
   NWRITE =      2    write-flag & timer
   PREC   = accura    normal or accurate (medium, high low for compatibility)
   ISTART =      1    job   : 0-new  1-cont  2-samecut
   ICHARG =      0    charge: 1-file 2-atom 10-const
   ISPIN  =      2    spin polarized calculation?
   LNONCOLLINEAR =      F non collinear calculations
   LSORBIT =      F    spin-orbit coupling
   INIWAV =      1    electr: 0-lowe 1-rand  2-diag
   LASPH  =      T    aspherical Exc in radial PAW
   METAGGA=      F    non-selfconsistent MetaGGA calc.

 Electronic Relaxation 1
   ENCUT  =  550.0 eV  40.42 Ry    6.36 a.u.  28.82 28.82 67.15*2*pi/ulx,y,z
   ENINI  =  550.0     initial cutoff
   ENAUG  =  644.9 eV  augmentation charge cutoff
   NELM   =    100;   NELMIN=  2; NELMDL=  0     # of ELM steps 
   EDIFF  = 0.1E-04   stopping-criterion for ELM
   LREAL  =      T    real-space projection
   NLSPLINE    = F    spline interpolate recip. space projectors
   LCOMPAT=      F    compatible to vasp.4.4
   GGA_COMPAT  = T    GGA compatible to vasp.4.4-vasp.4.6
   LMAXPAW     = -100 max onsite density
   LMAXMIX     =    2 max onsite mixed and CHGCAR
   VOSKOWN=      0    Vosko Wilk Nusair interpolation
   ROPT   =   -0.00025  -0.00025  -0.00025  -0.00025
   ROPT   =   -0.00025
 Ionic relaxation
   EDIFFG = -.2E-01   stopping-criterion for IOM
   NSW    =    500    number of steps for IOM
   NBLOCK =      1;   KBLOCK =    500    inner block; outer block 
   IBRION =      2    ionic relax: 0-MD 1-quasi-New 2-CG
   NFREE  =      1    steps in history (QN), initial steepest desc. (CG)
   ISIF   =      2    stress and relaxation
   IWAVPR =     11    prediction:  0-non 1-charg 2-wave 3-comb
   ISYM   =      2    0-nonsym 1-usesym 2-fastsym
   LCORR  =      T    Harris-Foulkes like correction to forces

   POTIM  = 0.5000    time-step for ionic-motion
   TEIN   =    0.0    initial temperature
   TEBEG  =    0.0;   TEEND  =   0.0 temperature during run
   SMASS  =  -3.00    Nose mass-parameter (am)
   estimated Nose-frequenzy (Omega)   =  0.10E-29 period in steps =****** mass=  -0.519E-26a.u.
   SCALEE = 1.0000    scale energy and forces
   NPACO  =    256;   APACO  = 16.0  distance and # of slots for P.C.
   PSTRESS=    0.0 pullay stress

  Mass of Ions in am
   POMASS =  10.81 12.01 19.00 14.00 16.00
  Ionic Valenz
   ZVAL   =   3.00  4.00  7.00  5.00  6.00
  Atomic Wigner-Seitz radii
   RWIGS  =  -1.00 -1.00 -1.00 -1.00 -1.00
  virtual crystal weights 
   VCA    =   1.00  1.00  1.00  1.00  1.00
   NELECT =     438.0000    total number of electrons
   NUPDOWN=      -1.0000    fix difference up-down

 DOS related values:
   EMIN   =  10.00;   EMAX   =-10.00  energy-range for DOS
   EFERMI =   0.00
   ISMEAR =     0;   SIGMA  =   0.05  broadening in eV -4-tet -1-fermi 0-gaus

 Electronic relaxation 2 (details)
   IALGO  =     68    algorithm
   LDIAG  =      T    sub-space diagonalisation (order eigenvalues)
   LSUBROT=      F    optimize rotation matrix (better conditioning)
   TURBO    =      0    0=normal 1=particle mesh
   IRESTART =      0    0=no restart 2=restart with 2 vectors
   NREBOOT  =      0    no. of reboots
   NMIN     =      0    reboot dimension
   EREF     =   0.00    reference energy to select bands
   IMIX   =      4    mixing-type and parameters
     AMIX     =   0.40;   BMIX     =  1.00
     AMIX_MAG =   1.60;   BMIX_MAG =  1.00
     AMIN     =   0.10
     WC   =   100.;   INIMIX=   1;  MIXPRE=   1;  MAXMIX= -45

 Intra band minimization:
   WEIMIN = 0.0010     energy-eigenvalue tresh-hold
   EBREAK =  0.78E-08  absolut break condition
   DEPER  =   0.30     relativ break condition  

   TIME   =   0.40     timestep for ELM

  volume/ion in A,a.u.               =      71.23       480.67
  Fermi-wavevector in a.u.,A,eV,Ry     =   0.652766  1.233549  5.797487  0.426103
  Thomas-Fermi vector in A             =   1.722791
 
 Write flags
   LWAVE        =      T    write WAVECAR
   LDOWNSAMPLE  =      F    k-point downsampling of WAVECAR
   LCHARG       =      F    write CHGCAR
   LVTOT        =      F    write LOCPOT, total local potential
   LVHAR        =      T    write LOCPOT, Hartree potential only
   LELF         =      F    write electronic localiz. function (ELF)
   LORBIT       =     11    0 simple, 1 ext, 2 COOP (PROOUT), +10 PAW based schemes


 Dipole corrections
   LMONO  =      F    monopole corrections only (constant potential shift)
   LDIPOL =      F    correct potential (dipole corrections)
   IDIPOL =      0    1-x, 2-y, 3-z, 4-all directions 
   EPSILON=  1.0000000 bulk dielectric constant

 Exchange correlation treatment:
   GGA     =    --    GGA type
   LEXCH   =     8    internal setting for exchange type
   VOSKOWN=      0    Vosko Wilk Nusair interpolation
   LHFCALC =     F    Hartree Fock is set to
   LHFONE  =     F    Hartree Fock one center treatment
   AEXX    =    0.0000 exact exchange contribution

 vdW DFT:
   LUSE_VDW   =     T    switch on vdW DFT
   Zab_VDW    =-.8491    correlation parameter
   PARAM1     =0.1234
   PARAM2     =1.0000
   PARAM3     =0.0000
   -- rVV10 --
   BPARAM     =15.7000
   CPARAM     = 0.0093

 Linear response parameters
   LEPSILON=     F    determine dielectric tensor
   LRPA    =     F    only Hartree local field effects (RPA)
   LNABLA  =     F    use nabla operator in PAW spheres
   LVEL    =     F    velocity operator in full k-point grid
   LINTERFAST=   F  fast interpolation
   KINTER  =     0    interpolate to denser k-point grid
   CSHIFT  =0.1000    complex shift for real part using Kramers Kronig
   OMEGAMAX=  -1.0    maximum frequency
   DEG_THRESHOLD= 0.2000000E-02 threshold for treating states as degnerate
   RTIME   =   -0.100 relaxation time in fs
  (WPLASMAI=    0.000 imaginary part of plasma frequency in eV, 0.658/RTIME)
   DFIELD  = 0.0000000 0.0000000 0.0000000 field for delta impulse in time
 
 Orbital magnetization related:
   ORBITALMAG=     F  switch on orbital magnetization
   LCHIMAG   =     F  perturbation theory with respect to B field
   DQ        =  0.001000  dq finite difference perturbation B field
   LLRAUG    =     F  two centre corrections for induced B field

 Solvation model:
   LSOL    =     T         switch on solvation model
   EB_K    = 78.400000     relative permittivity of the bulk solvent
   SIGMA_K =  0.600000     width of the dielectric cavity
   NC_K    =  0.002500     cutoff charge density
   TAU     =  0.000000     cavity surface tension
   LAMBDA_D_K    =  3.040000     Debye length in Angstroms
   LRHOB     =     F     write boundcharge  density
   LRHOION     =     F     write ioniccharge density



--------------------------------------------------------------------------------------------------------


 conjugate gradient relaxation of ions
   using selective dynamics as specified on POSCAR
 charge density and potential will be updated during run
 spin polarized calculation
 RMM-DIIS sequential band-by-band and
  variant of blocked Davidson during initial phase
 perform sub-space diagonalisation
    before iterative eigenvector-optimisation
 modified Broyden-mixing scheme, WC =      100.0
 initial mixing is a Kerker type mixing with AMIX =  0.4000 and BMIX =      1.0000
 Hartree-type preconditioning will be used
 using additional bands          101
 real space projection scheme for non local part
 use partial core corrections
 calculate Harris-corrections to forces 
   (improved forces if not selfconsistent)
 use gradient corrections 
 use of overlap-Matrix (Vanderbilt PP)
 Gauss-broadening in eV      SIGMA  =   0.05


--------------------------------------------------------------------------------------------------------


  energy-cutoff  :      550.00
  volume of cell :     6909.18
      direct lattice vectors                 reciprocal lattice vectors
     7.536550057-13.053746059  0.000000000     0.066343353 -0.038303181  0.000000000
     7.536550057 13.053746059  0.000000000     0.066343353  0.038303181  0.000000000
     0.000000000  0.000000000 35.114664386     0.000000000  0.000000000  0.028478131

  length of vectors
    15.073150730 15.073150730 35.114664386     0.076606620  0.076606620  0.028478131


 
 old parameters found on file WAVECAR:
  energy-cutoff  :      550.00
  volume of cell :     6909.18
      direct lattice vectors                 reciprocal lattice vectors
     7.536550057-13.053746059  0.000000000     0.066343353 -0.038303181  0.000000000
     7.536550057 13.053746059  0.000000000     0.066343353  0.038303181  0.000000000
     0.000000000  0.000000000 35.114664386     0.000000000  0.000000000  0.028478131

  length of vectors

 
 k-points in units of 2pi/SCALE and weight: K-Point Grid                            
   0.00000000  0.00000000  0.00000000       0.111
   0.02211445 -0.01276773  0.00000000       0.222
   0.02211445  0.01276773  0.00000000       0.222
   0.04422890  0.00000000  0.00000000       0.222
   0.00000000  0.02553545  0.00000000       0.222
 
 k-points in reciprocal lattice and weights: K-Point Grid                            
   0.00000000  0.00000000  0.00000000       0.111
   0.33333333  0.00000000  0.00000000       0.222
   0.00000000  0.33333333  0.00000000       0.222
   0.33333333  0.33333333  0.00000000       0.222
  -0.33333333  0.33333333  0.00000000       0.222
 
 position of ions in fractional coordinates (direct lattice) 
   0.11116000  0.05582236  0.49277097
   0.11107383  0.22249599  0.49265483
   0.11077112  0.38909182  0.49272688
   0.11090087  0.55558382  0.49275276
   0.11126281  0.72244048  0.49283944
   0.11120243  0.88909231  0.49286500
   0.27786301  0.05580892  0.49259613
   0.27786870  0.22248748  0.49209945
   0.27759423  0.38881385  0.49175407
   0.27447072  0.55445100  0.49195457
   0.27766639  0.72279762  0.49300858
   0.27789557  0.88911972  0.49279407
   0.44456939  0.05586674  0.49256498
   0.44454861  0.22251525  0.49183917
   0.44475619  0.38910986  0.49092149
   0.44619621  0.55449937  0.49082489
   0.44641106  0.72641299  0.49176476
   0.44483256  0.88963303  0.49262583
   0.61126003  0.05606950  0.49258723
   0.61118195  0.22251655  0.49207168
   0.61120141  0.38901386  0.49136263
   0.61126961  0.55554767  0.49095503
   0.61175586  0.72287146  0.49145484
   0.61138382  0.88978846  0.49231075
   0.77782495  0.05593285  0.49274612
   0.77779168  0.22250597  0.49262540
   0.77779457  0.38904978  0.49230720
   0.77779449  0.55564764  0.49210329
   0.77787938  0.72238294  0.49209986
   0.77786425  0.88927469  0.49245080
   0.94446667  0.05583609  0.49284852
   0.94444703  0.22252511  0.49287476
   0.94432452  0.38903292  0.49285242
   0.94452006  0.55570292  0.49280598
   0.94450425  0.72235875  0.49272064
   0.94446420  0.88909639  0.49276322
   0.52213631  0.39578631  0.60986761
   0.53523025  0.50427459  0.61464662
   0.61274494  0.38669505  0.62648426
   0.43401206  0.50668938  0.60951828
   0.45002109  0.61592134  0.60346709
   0.35319207  0.62514153  0.60797645
   0.61868950  0.29314446  0.61131564
   0.36207891  0.72583592  0.59160959
   0.43502910  0.32644092  0.62752356
   0.51407248  0.37262117  0.57229101
   0.57331021  0.53892650  0.64984428
   0.60368925  0.56706046  0.58833496
   0.38468989  0.44771410  0.57879508
   0.37516376  0.46486515  0.64076503
   0.52374612  0.67944369  0.62803624
   0.48509306  0.64472485  0.56712676
   0.70207302  0.47212521  0.61764525
   0.60319837  0.37836574  0.66471060
   0.27473471  0.53946451  0.59125806
   0.33068788  0.61922102  0.64610068
   0.52587388  0.20873290  0.61203374
   0.65438447  0.30958394  0.57560507
   0.68224707  0.27807809  0.63339750
   0.05568019  0.11155316  0.49281855
   0.05592501  0.27844370  0.49280349
   0.05590276  0.44485282  0.49286329
   0.05594389  0.61127896  0.49292514
   0.05568551  0.77789771  0.49286992
   0.05560347  0.94468184  0.49286583
   0.22236444  0.11156054  0.49251983
   0.22252121  0.27856286  0.49217603
   0.22332595  0.44573119  0.49229731
   0.22324833  0.61154253  0.49223460
   0.22250566  0.77788255  0.49262801
   0.22238170  0.94464028  0.49281668
   0.38898452  0.11143551  0.49234969
   0.38899334  0.27847263  0.49159327
   0.38889481  0.44580748  0.49092142
   0.38898052  0.77728379  0.49225379
   0.38905020  0.94448316  0.49277755
   0.55560087  0.11137651  0.49242454
   0.55554649  0.27810550  0.49162127
   0.55543877  0.44489406  0.49072924
   0.55481504  0.61160167  0.49078694
   0.55500935  0.77732414  0.49178091
   0.55554047  0.94456589  0.49248470
   0.72222351  0.11134836  0.49269161
   0.72224624  0.27802505  0.49220054
   0.72213749  0.44462863  0.49192862
   0.72189816  0.61124337  0.49172349
   0.72193487  0.77785284  0.49196469
   0.72199888  0.94451649  0.49251038
   0.88893635  0.11142708  0.49286977
   0.88899813  0.27808884  0.49283984
   0.88898527  0.44466816  0.49272804
   0.88889137  0.61123295  0.49260324
   0.88878802  0.77788962  0.49257225
   0.88879122  0.94463771  0.49274248
   0.38905689  0.61170139  0.49183548
   0.44677056  0.80379384  0.59742854
   0.28270454  0.71459968  0.57635214
 
 position of ions in cartesian coordinates  (Angst):
   1.25847090 -0.72236361 17.30348706
   2.51396570  1.45447656 17.29940905
   3.76724208  3.63312785 17.30193909
   5.02299523  5.80477840 17.30284792
   6.28324657  7.97815802 17.30589165
   7.53877137 10.15437706 17.30678918
   2.51473518 -2.89863764 17.29734788
   3.77095940 -0.72293239 17.27990689
   5.02241784  1.45183268 17.26777908
   6.24721003  3.65479157 17.27481972
   7.54004714  5.81063007 17.31183075
   8.79526913  7.97876476 17.30429831
   3.77156194 -5.07402577 17.29625400
   5.02736019 -2.89836706 17.27076731
   6.28447328 -0.72639307 17.23854350
   7.54179229  1.41376189 17.23515141
   8.83904716  3.65507421 17.26815464
  10.05726673  5.80631243 17.29839073
   5.02936242 -7.24731612 17.29703524
   6.28321051 -5.07353939 17.27893199
   7.53817250 -2.90037986 17.25403394
   8.79377691 -0.72738006 17.23972097
  10.05848565  1.45047483 17.25727194
  11.31365999  3.63422342 17.28732681
   6.28365745 -9.42339613 17.30261462
   7.53879332 -7.24855855 17.29837553
   8.79398082 -5.07457582 17.28720204
  10.04955338 -2.89984854 17.28004172
  11.30680208 -0.72443645 17.27992159
  12.56447612  1.45432359 17.29224440
   7.53883181-11.59995795 17.30621031
   8.79494394 -9.42378542 17.30713163
  10.04891506 -7.24863560 17.30634748
  11.30650560 -5.07552015 17.30471651
  12.56239638 -2.89983092 17.30171990
  13.81872115 -0.72275736 17.30321521
   6.91796975 -1.64934078 21.41529658
   7.83428025 -0.40408739 21.58310963
   7.53232952 -2.95079788 21.99878454
   7.08964349  0.94871121 21.40302967
   8.03352848  2.16561966 21.19054418
   7.37326020  3.54995922 21.34888911
   6.87208226 -4.24958221 21.46614353
   8.19912454  4.74839167 20.77417220
   5.73885688 -1.41748252 22.03527907
   6.68261107 -1.84646945 20.09580662
   8.38242770 -0.44883619 22.81906383
   8.82341379 -0.47814298 20.65918467
   6.27345430  0.82270198 20.32419514
   6.33091993  1.17093917 22.50024882
   9.06790024  2.03243656 22.05328177
   8.51492922  2.08379284 19.91446570
   8.84940377 -3.00168025 21.68840551
   7.39760700 -2.93490807 23.34108964
   6.13625321  3.45571560 20.76182827
   7.15903602  3.76643834 22.68760866
   5.53640082 -4.13987786 21.49135951
   7.26499616 -4.50093863 20.21217894
   7.23753867 -5.27591927 22.24154060
   1.26036251  0.72935159 17.30515788
   2.51998654  2.90470239 17.30462931
   3.77396949  5.07725539 17.30672899
   5.02855839  7.24920289 17.30890094
   6.28234165  9.42757473 17.30696185
   7.53870033 11.60580322 17.30681805
   2.51664235 -1.44640589 17.29466870
   3.77644523  0.73155346 17.28259610
   5.04238261  2.90322149 17.28685496
   6.29144307  5.06869387 17.28465273
   7.53947579  7.24974885 17.29846714
   8.79531960  9.42818014 17.30509246
   3.77144061 -3.62305438 17.28869427
   5.03039074 -1.44270927 17.26213272
   6.29077565  0.74292355 17.23854078
   8.78960934  5.06881234 17.28532648
  10.05024092  7.25048082 17.30371829
   5.02670841 -5.79879211 17.29132260
   6.28285990 -3.62164426 17.26311589
   7.53905843 -1.44302258 17.23179246
   8.79075788  0.74127829 17.23381885
  10.04119799  2.90204084 17.26872149
  11.30562670  5.07823904 17.29343499
   6.28225609 -7.97420910 17.30070046
   7.53859467 -5.79875066 17.28345676
   8.79339129 -3.62253023 17.27390835
  10.04728785 -1.44445958 17.26670537
  11.30322512  0.72993893 17.27517491
  12.55977643  2.90468838 17.29433675
   7.53928905-10.14940857 17.30695673
   8.79580941 -7.97465473 17.30590546
  10.05114582 -5.80000280 17.30197988
  11.30576201 -3.62448259 17.29759737
  12.56099945 -1.44763959 17.29650940
  13.81772894  0.72900596 17.30248671
   7.54226490  2.90634482 17.27063796
   9.42494117  4.66049126 20.97850263
   7.51623318  5.63784936 20.23841179
 


--------------------------------------------------------------------------------------------------------


 k-point  1 :   0.0000 0.0000 0.0000  plane waves:  202395
 k-point  2 :   0.3333 0.0000 0.0000  plane waves:  202358
 k-point  3 :   0.0000 0.3333 0.0000  plane waves:  202358
 k-point  4 :   0.3333 0.3333 0.0000  plane waves:  202335
 k-point  5 :  -0.3333 0.3333 0.0000  plane waves:  202358

 maximum and minimum number of plane-waves per node :     16913    16836

 maximum number of plane-waves:    202395
 maximum index in each direction: 
   IXMAX=   29   IYMAX=   28   IZMAX=   67
   IXMIN=  -29   IYMIN=  -29   IZMIN=  -67


 real space projection operators:
  total allocation   :      28374.25 KBytes
  max/ min on nodes  :       2385.62       2347.75


 parallel 3D FFT for wavefunctions:
    minimum data exchange during FFTs selected (reduces bandwidth)
 parallel 3D FFT for charge:
    minimum data exchange during FFTs selected (reduces bandwidth)


 total amount of memory used by VASP MPI-rank0   417132. kBytes
=======================================================================

   base      :      30000. kBytes
   nonlr-proj:      13774. kBytes
   fftplans  :      31564. kBytes
   grid      :     124703. kBytes
   one-center:         55. kBytes
   wavefun   :     217036. kBytes
 
     INWAV:  cpu time   41.7811: real time   42.0469
 Broyden mixing: mesh for mixing (old mesh)
   NGX = 57   NGY = 57   NGZ =135
  (NGX  =240   NGY  =240   NGZ  =540)
  gives a total of 438615 points

 charge density for first step will be calculated from the start-wavefunctions


--------------------------------------------------------------------------------------------------------


 Maximum index for non-local projection operator          582
 Maximum index for augmentation-charges          436 (set IRDMAX)


--------------------------------------------------------------------------------------------------------


 initial charge from wavefunction
 First call to EWALD:  gamma=   0.093
 Maximum number of real-space cells 4x 4x 2
 Maximum number of reciprocal cells 2x 2x 5

    FEWALD:  cpu time    0.0139: real time    0.0070


--------------------------------------- Iteration      1(   1)  ---------------------------------------


    POTLOK:  cpu time   41.6647: real time   41.6158
    SETDIJ:  cpu time    0.7261: real time    0.5249
     EDDAV:  cpu time  194.3228: real time   97.5479
       DOS:  cpu time    0.0396: real time    0.0198
    CHARGE:  cpu time   19.0082: real time   18.3272
    MIXING:  cpu time    0.1779: real time    0.0892
    --------------------------------------------
      LOOP:  cpu time  255.9394: real time  158.1249

 eigenvalue-minimisations  :  6520
 total energy-change (2. order) :-0.8762739E+03  (-0.3805642E-02)
 number of electron     437.9999973 magnetization       0.0000000
 augmentation part       29.6912970 magnetization       0.0000012

 Broyden mixing:
  rms(total) = 0.12338E-01    rms(broyden)= 0.12311E-01
  rms(prec ) = 0.12408E-01
  weight for this iteration     100.00

 Free energy of the ion-electron system (eV)
  ---------------------------------------------------
  alpha Z        PSCENC =       138.82557908
  Ewald energy   TEWEN  =    168256.09337077
  -Hartree energ DENC   =   -189078.40820646
  -exchange      EXHF   =         0.00000000
  -V(xc)+E(xc)   XCENC  =      2131.87852260
  PAW double counting   =     48585.15056208   -48817.67482876
  entropy T*S    EENTRO =        -0.00000000
  eigenvalues    EBANDS =     -6741.78822159
  atomic energy  EATOM  =     24189.43282959
  Solvation  Ediel_sol  =       460.21645640
  ---------------------------------------------------
  free energy    TOTEN  =      -876.27393628 eV

  energy without entropy =     -876.27393628  energy(sigma->0) =     -876.27393628


--------------------------------------------------------------------------------------------------------




--------------------------------------- Iteration      1(   2)  ---------------------------------------


    POTLOK:  cpu time   33.8025: real time   33.8060
    SETDIJ:  cpu time    0.7379: real time    0.5366
    EDDIAG:  cpu time   30.2011: real time   21.4347
  RMM-DIIS:  cpu time  239.3947: real time  122.2969
    ORTHCH:  cpu time    1.0918: real time    0.5472
       DOS:  cpu time    0.0029: real time    0.0015
    CHARGE:  cpu time   18.7797: real time   18.0827
    MIXING:  cpu time    0.1265: real time    0.0634
    --------------------------------------------
      LOOP:  cpu time  324.1371: real time  196.7691

 eigenvalue-minimisations  :  6360
 total energy-change (2. order) : 0.1098417E-03  (-0.5611914E-04)
 number of electron     437.9999973 magnetization       0.0000000
 augmentation part       29.6904545 magnetization       0.0000003

 Broyden mixing:
  rms(total) = 0.76840E-02    rms(broyden)= 0.76808E-02
  rms(prec ) = 0.77276E-02
  weight for this iteration     100.00

 eigenvalues of (default mixing * dielectric matrix)
  average eigenvalue GAMMA=   2.2923
  2.2923

 Free energy of the ion-electron system (eV)
  ---------------------------------------------------
  alpha Z        PSCENC =       138.82557908
  Ewald energy   TEWEN  =    168256.09337077
  -Hartree energ DENC   =   -189078.32966902
  -exchange      EXHF   =         0.00000000
  -V(xc)+E(xc)   XCENC  =      2131.89923662
  PAW double counting   =     48604.21157822   -48836.72448329
  entropy T*S    EENTRO =        -0.00000000
  eigenvalues    EBANDS =     -6741.95437939
  atomic energy  EATOM  =     24189.43282959
  Solvation  Ediel_sol  =       460.27211096
  ---------------------------------------------------
  free energy    TOTEN  =      -876.27382644 eV

  energy without entropy =     -876.27382644  energy(sigma->0) =     -876.27382644


--------------------------------------------------------------------------------------------------------




--------------------------------------- Iteration      1(   3)  ---------------------------------------


    POTLOK:  cpu time   34.0789: real time   34.0572
    SETDIJ:  cpu time    0.7601: real time    0.5589
    EDDIAG:  cpu time   30.2597: real time   21.5020
  RMM-DIIS:  cpu time  234.8142: real time  120.1489
    ORTHCH:  cpu time    1.0914: real time    0.5478
       DOS:  cpu time    0.0029: real time    0.0014
    CHARGE:  cpu time   18.8583: real time   18.1732
    MIXING:  cpu time    0.1109: real time    0.0556
    --------------------------------------------
      LOOP:  cpu time  319.9764: real time  195.0451

 eigenvalue-minimisations  :  6170
 total energy-change (2. order) :-0.2187302E-03  (-0.2104603E-04)
 number of electron     437.9999973 magnetization       0.0000000
 augmentation part       29.6898906 magnetization      -0.0000003

 Broyden mixing:
  rms(total) = 0.14784E-02    rms(broyden)= 0.14766E-02
  rms(prec ) = 0.15020E-02
  weight for this iteration     100.00

 eigenvalues of (default mixing * dielectric matrix)
  average eigenvalue GAMMA=   1.8411
  1.2737  2.4085

 Free energy of the ion-electron system (eV)
  ---------------------------------------------------
  alpha Z        PSCENC =       138.82557908
  Ewald energy   TEWEN  =    168256.09337077
  -Hartree energ DENC   =   -189078.07805934
  -exchange      EXHF   =         0.00000000
  -V(xc)+E(xc)   XCENC  =      2131.88095706
  PAW double counting   =     48630.51239358   -48863.01103824
  entropy T*S    EENTRO =        -0.00000000
  eigenvalues    EBANDS =     -6742.29383930
  atomic energy  EATOM  =     24189.43282959
  Solvation  Ediel_sol  =       460.36376162
  ---------------------------------------------------
  free energy    TOTEN  =      -876.27404517 eV

  energy without entropy =     -876.27404517  energy(sigma->0) =     -876.27404517


--------------------------------------------------------------------------------------------------------




--------------------------------------- Iteration      1(   4)  ---------------------------------------


    POTLOK:  cpu time   32.4764: real time   32.4444
    SETDIJ:  cpu time    0.6992: real time    0.4978
    EDDIAG:  cpu time   30.2306: real time   21.4679
  RMM-DIIS:  cpu time  196.5042: real time  101.1127
    ORTHCH:  cpu time    1.0906: real time    0.5474
       DOS:  cpu time    0.0030: real time    0.0015
    CHARGE:  cpu time   18.9172: real time   18.2210
    MIXING:  cpu time    0.1102: real time    0.0552
    --------------------------------------------
      LOOP:  cpu time  280.0315: real time  174.3480

 eigenvalue-minimisations  :  4680
 total energy-change (2. order) : 0.1259942E-04  (-0.2785924E-05)
 number of electron     437.9999973 magnetization       0.0000000
 augmentation part       29.6901543 magnetization      -0.0000001

 Broyden mixing:
  rms(total) = 0.49077E-03    rms(broyden)= 0.49057E-03
  rms(prec ) = 0.49981E-03
  weight for this iteration     100.00

 eigenvalues of (default mixing * dielectric matrix)
  average eigenvalue GAMMA=   1.6896
  2.5749  0.9271  1.5669

 Free energy of the ion-electron system (eV)
  ---------------------------------------------------
  alpha Z        PSCENC =       138.82557908
  Ewald energy   TEWEN  =    168256.09337077
  -Hartree energ DENC   =   -189077.95227187
  -exchange      EXHF   =         0.00000000
  -V(xc)+E(xc)   XCENC  =      2131.87026554
  PAW double counting   =     48632.40287918   -48864.90117098
  entropy T*S    EENTRO =        -0.00000000
  eigenvalues    EBANDS =     -6742.43579749
  atomic energy  EATOM  =     24189.43282959
  Solvation  Ediel_sol  =       460.39028360
  ---------------------------------------------------
  free energy    TOTEN  =      -876.27403257 eV

  energy without entropy =     -876.27403257  energy(sigma->0) =     -876.27403257


--------------------------------------------------------------------------------------------------------




--------------------------------------- Iteration      1(   5)  ---------------------------------------


    POTLOK:  cpu time   32.0992: real time   32.0680
    SETDIJ:  cpu time    0.6923: real time    0.4909
    EDDIAG:  cpu time   30.2562: real time   21.5035
  RMM-DIIS:  cpu time  192.4771: real time   98.4820
    ORTHCH:  cpu time    1.0902: real time    0.5473
       DOS:  cpu time    0.0029: real time    0.0015
    --------------------------------------------
      LOOP:  cpu time  256.6179: real time  153.0931

 eigenvalue-minimisations  :  4533
 total energy-change (2. order) :-0.1910252E-05  (-0.1929911E-05)
 number of electron     437.9999973 magnetization       0.0000000
 augmentation part       29.6901543 magnetization      -0.0000001

 Free energy of the ion-electron system (eV)
  ---------------------------------------------------
  alpha Z        PSCENC =       138.82557908
  Ewald energy   TEWEN  =    168256.09337077
  -Hartree energ DENC   =   -189077.91898654
  -exchange      EXHF   =         0.00000000
  -V(xc)+E(xc)   XCENC  =      2131.87021183
  PAW double counting   =     48633.18173192   -48865.68020208
  entropy T*S    EENTRO =        -0.00000000
  eigenvalues    EBANDS =     -6742.47965934
  atomic energy  EATOM  =     24189.43282959
  Solvation  Ediel_sol  =       460.40109029
  ---------------------------------------------------
  free energy    TOTEN  =      -876.27403448 eV

  energy without entropy =     -876.27403448  energy(sigma->0) =     -876.27403448


--------------------------------------------------------------------------------------------------------




 average (electrostatic) potential at core
  the test charge radii are     0.7672  0.6991  0.7167  0.7089  0.7215
  (the norm of the test charge is              1.0000)
       1 -38.7415       2 -38.8358       3 -39.0274       4 -38.9963       5 -38.7882
       6 -38.7274       7 -38.7413       8 -38.8403       9 -39.2017      10 -40.3048
      11 -39.1243      12 -38.7873      13 -38.7669      14 -38.7840      15 -39.0532
      16 -40.3551      17 -40.2981      18 -38.9919      19 -38.7890      20 -38.7382
      21 -38.8102      22 -39.0479      23 -39.1926      24 -39.0172      25 -38.7744
      26 -38.7356      27 -38.7408      28 -38.7873      29 -38.8380      30 -38.8326
      31 -38.7481      32 -38.7775      33 -38.7929      34 -38.7687      35 -38.7409
      36 -38.7412      37 -66.8708      38 -66.8258      39 -66.8265      40 -66.6835
      41 -66.3440      42 -65.4264      43 -67.9666      44 -63.4945      45 -92.3304
      46 -92.3630      47 -92.2933      48 -92.3026      49 -92.2227      50 -92.1879
      51 -91.9559      52 -92.0435      53 -92.2880      54 -92.2621      55 -91.3665
      56 -91.3796      57 -92.3268      58 -92.3099      59 -92.2879      60 -76.2985
      61 -76.3858      62 -76.4388      63 -76.3583      64 -76.2776      65 -76.2649
      66 -76.2975      67 -76.4625      68 -76.8834      69 -76.8079      70 -76.3612
      71 -76.2779      72 -76.2904      73 -76.4063      74 -76.9051      75 -76.8125
      76 -76.3546      77 -76.2965      78 -76.3062      79 -76.4689      80 -76.8943
      81 -76.8748      82 -76.4313      83 -76.2945      84 -76.2708      85 -76.3152
      86 -76.4047      87 -76.4590      88 -76.3811      89 -76.2911      90 -76.2967
      91 -76.2957      92 -76.2893      93 -76.2963      94 -76.2971      95 -87.9402
      96 -83.4363      97 -83.4837
 
 
 
 E-fermi :  -6.1375     XC(G=0):  -1.5906     alpha+bet : -1.3071


 spin component 1

 k-point     1 :       0.0000    0.0000    0.0000
  band No.  band energies     occupation 
      1     -36.1578      1.00000
      2     -35.6234      1.00000
      3     -35.2285      1.00000
      4     -34.9741      1.00000
      5     -34.9300      1.00000
      6     -34.7056      1.00000
      7     -34.0159      1.00000
      8     -33.9145      1.00000
      9     -33.7614      1.00000
     10     -33.7086      1.00000
     11     -33.5901      1.00000
     12     -33.4656      1.00000
     13     -33.4454      1.00000
     14     -33.2368      1.00000
     15     -32.5255      1.00000
     16     -29.7692      1.00000
     17     -27.9042      1.00000
     18     -25.7390      1.00000
     19     -25.0336      1.00000
     20     -24.7113      1.00000
     21     -24.7016      1.00000
     22     -24.4830      1.00000
     23     -24.4825      1.00000
     24     -24.4281      1.00000
     25     -24.3837      1.00000
     26     -23.6830      1.00000
     27     -23.6781      1.00000
     28     -23.5846      1.00000
     29     -23.5806      1.00000
     30     -23.5306      1.00000
     31     -23.2872      1.00000
     32     -23.1473      1.00000
     33     -23.1457      1.00000
     34     -23.1038      1.00000
     35     -23.1031      1.00000
     36     -23.0881      1.00000
     37     -22.7568      1.00000
     38     -22.5868      1.00000
     39     -22.3442      1.00000
     40     -22.2605      1.00000
     41     -22.2583      1.00000
     42     -22.1146      1.00000
     43     -22.1085      1.00000
     44     -22.0116      1.00000
     45     -21.9914      1.00000
     46     -21.9894      1.00000
     47     -21.9719      1.00000
     48     -21.9666      1.00000
     49     -21.9316      1.00000
     50     -21.9214      1.00000
     51     -21.8861      1.00000
     52     -21.8650      1.00000
     53     -21.8630      1.00000
     54     -21.3803      1.00000
     55     -21.3743      1.00000
     56     -21.2076      1.00000
     57     -20.1492      1.00000
     58     -18.9361      1.00000
     59     -18.0488      1.00000
     60     -17.6758      1.00000
     61     -16.9846      1.00000
     62     -16.8623      1.00000
     63     -16.6257      1.00000
     64     -16.5637      1.00000
     65     -16.5510      1.00000
     66     -16.4377      1.00000
     67     -16.3326      1.00000
     68     -16.3197      1.00000
     69     -15.9758      1.00000
     70     -15.8667      1.00000
     71     -15.7643      1.00000
     72     -15.7365      1.00000
     73     -15.5585      1.00000
     74     -15.3729      1.00000
     75     -15.3692      1.00000
     76     -15.2854      1.00000
     77     -15.2113      1.00000
     78     -15.1121      1.00000
     79     -15.0058      1.00000
     80     -15.0034      1.00000
     81     -14.9838      1.00000
     82     -14.9240      1.00000
     83     -14.8749      1.00000
     84     -14.8334      1.00000
     85     -14.7939      1.00000
     86     -14.7698      1.00000
     87     -14.7654      1.00000
     88     -14.7188      1.00000
     89     -14.7183      1.00000
     90     -14.5422      1.00000
     91     -14.5407      1.00000
     92     -14.5403      1.00000
     93     -14.0495      1.00000
     94     -14.0397      1.00000
     95     -13.7827      1.00000
     96     -13.7776      1.00000
     97     -13.7074      1.00000
     98     -13.6447      1.00000
     99     -13.6429      1.00000
    100     -13.6358      1.00000
    101     -13.2089      1.00000
    102     -13.1088      1.00000
    103     -12.9736      1.00000
    104     -12.8746      1.00000
    105     -12.8422      1.00000
    106     -12.8377      1.00000
    107     -12.7830      1.00000
    108     -12.7154      1.00000
    109     -12.6994      1.00000
    110     -12.6075      1.00000
    111     -12.4725      1.00000
    112     -12.3735      1.00000
    113     -12.3602      1.00000
    114     -12.3359      1.00000
    115     -12.3018      1.00000
    116     -12.2858      1.00000
    117     -12.2837      1.00000
    118     -12.2366      1.00000
    119     -12.1961      1.00000
    120     -12.1841      1.00000
    121     -12.1337      1.00000
    122     -12.0766      1.00000
    123     -12.0704      1.00000
    124     -12.0380      1.00000
    125     -12.0362      1.00000
    126     -12.0328      1.00000
    127     -11.9499      1.00000
    128     -11.9025      1.00000
    129     -11.9002      1.00000
    130     -11.8513      1.00000
    131     -11.8497      1.00000
    132     -11.8314      1.00000
    133     -11.8292      1.00000
    134     -11.7812      1.00000
    135     -11.7434      1.00000
    136     -11.5545      1.00000
    137     -11.5193      1.00000
    138     -11.4820      1.00000
    139     -11.4629      1.00000
    140     -11.3954      1.00000
    141     -11.3506      1.00000
    142     -11.3178      1.00000
    143     -11.2600      1.00000
    144     -11.1930      1.00000
    145     -11.1429      1.00000
    146     -11.1216      1.00000
    147     -11.1113      1.00000
    148     -11.0827      1.00000
    149     -10.9975      1.00000
    150     -10.9916      1.00000
    151     -10.9625      1.00000
    152     -10.9322      1.00000
    153     -10.8995      1.00000
    154     -10.8669      1.00000
    155     -10.8000      1.00000
    156     -10.7319      1.00000
    157     -10.6822      1.00000
    158     -10.6758      1.00000
    159     -10.6531      1.00000
    160     -10.5556      1.00000
    161     -10.5547      1.00000
    162     -10.5492      1.00000
    163     -10.5331      1.00000
    164     -10.4582      1.00000
    165     -10.3933      1.00000
    166     -10.2554      1.00000
    167     -10.1916      1.00000
    168     -10.1893      1.00000
    169     -10.1549      1.00000
    170     -10.1414      1.00000
    171     -10.1407      1.00000
    172     -10.1112      1.00000
    173     -10.0396      1.00000
    174     -10.0365      1.00000
    175      -9.9775      1.00000
    176      -9.8716      1.00000
    177      -9.8699      1.00000
    178      -9.8183      1.00000
    179      -9.7278      1.00000
    180      -9.7249      1.00000
    181      -9.6990      1.00000
    182      -9.6271      1.00000
    183      -9.5974      1.00000
    184      -9.5854      1.00000
    185      -9.2438      1.00000
    186      -9.0476      1.00000
    187      -9.0454      1.00000
    188      -9.0121      1.00000
    189      -9.0023      1.00000
    190      -8.9861      1.00000
    191      -8.9151      1.00000
    192      -8.9121      1.00000
    193      -8.8982      1.00000
    194      -8.8094      1.00000
    195      -8.7207      1.00000
    196      -8.7136      1.00000
    197      -8.6523      1.00000
    198      -8.3944      1.00000
    199      -7.8492      1.00000
    200      -7.8479      1.00000
    201      -7.6734      1.00000
    202      -7.6715      1.00000
    203      -7.6379      1.00000
    204      -7.5226      1.00000
    205      -7.5085      1.00000
    206      -7.4367      1.00000
    207      -7.4205      1.00000
    208      -7.3946      1.00000
    209      -7.3885      1.00000
    210      -7.3761      1.00000
    211      -7.3618      1.00000
    212      -7.2598      1.00000
    213      -7.2530      1.00000
    214      -7.2513      1.00000
    215      -6.9286      1.00000
    216      -6.4913      1.00000
    217      -6.4424      1.00000
    218      -6.4106      1.00000
    219      -6.3796      1.00000
    220      -1.6586      0.00000
    221      -1.4478      0.00000
    222      -1.3207      0.00000
    223      -1.2325      0.00000
    224      -1.2134      0.00000
    225      -1.0397      0.00000
    226      -1.0237      0.00000
    227      -0.9665      0.00000
    228      -0.9331      0.00000
    229      -0.6975      0.00000
    230      -0.4533      0.00000
    231      -0.4491      0.00000
    232      -0.4031      0.00000
    233      -0.3154      0.00000
    234      -0.3037      0.00000
    235      -0.3003      0.00000
    236      -0.2853      0.00000
    237      -0.2813      0.00000
    238      -0.2766      0.00000
    239      -0.2362      0.00000
    240      -0.2251      0.00000
    241      -0.2199      0.00000
    242      -0.2105      0.00000
    243      -0.1833      0.00000
    244      -0.1694      0.00000
    245      -0.1349      0.00000
    246      -0.1020      0.00000
    247      -0.0736      0.00000
    248      -0.0127      0.00000
    249       0.0441      0.00000
    250       0.1029      0.00000
    251       0.1188      0.00000
    252       0.1899      0.00000
    253       0.5154      0.00000
    254       0.5428      0.00000
    255       0.5472      0.00000
    256       0.5748      0.00000
    257       0.6115      0.00000
    258       0.6232      0.00000
    259       0.6936      0.00000
    260       0.6953      0.00000
    261       0.6981      0.00000
    262       0.6994      0.00000
    263       0.7021      0.00000
    264       0.7137      0.00000
    265       0.7624      0.00000
    266       0.8158      0.00000
    267       0.9059      0.00000
    268       0.9294      0.00000
    269       0.9371      0.00000
    270       0.9415      0.00000
    271       0.9464      0.00000
    272       0.9475      0.00000
    273       0.9986      0.00000
    274       1.0081      0.00000
    275       1.0156      0.00000
    276       1.0249      0.00000
    277       1.0364      0.00000
    278       1.0555      0.00000
    279       1.0779      0.00000
    280       1.1045      0.00000
    281       1.2414      0.00000
    282       1.2941      0.00000
    283       1.3098      0.00000
    284       1.3172      0.00000
    285       1.3253      0.00000
    286       1.3547      0.00000
    287       1.4153      0.00000
    288       1.4897      0.00000
    289       1.4979      0.00000
    290       1.5200      0.00000
    291       1.5324      0.00000
    292       1.5527      0.00000
    293       1.5639      0.00000
    294       1.5920      0.00000
    295       1.6320      0.00000
    296       1.6664      0.00000
    297       1.6785      0.00000
    298       1.6907      0.00000
    299       1.7120      0.00000
    300       1.7223      0.00000
    301       1.7296      0.00000
    302       1.7429      0.00000
    303       1.7584      0.00000
    304       1.7634      0.00000
    305       1.7916      0.00000
    306       1.8357      0.00000
    307       1.8860      0.00000
    308       1.9204      0.00000
    309       1.9423      0.00000
    310       1.9747      0.00000
    311       1.9923      0.00000
    312       2.0414      0.00000
    313       2.0489      0.00000
    314       2.2019      0.00000
    315       2.2169      0.00000
    316       2.3041      0.00000
    317       2.3410      0.00000
    318       2.3637      0.00000
    319       2.3864      0.00000
    320       2.4061      0.00000

 k-point     2 :       0.3333    0.0000    0.0000
  band No.  band energies     occupation 
      1     -36.1577      1.00000
      2     -35.6234      1.00000
      3     -35.2285      1.00000
      4     -34.9741      1.00000
      5     -34.9300      1.00000
      6     -34.7056      1.00000
      7     -34.0159      1.00000
      8     -33.9145      1.00000
      9     -33.7614      1.00000
     10     -33.7086      1.00000
     11     -33.5901      1.00000
     12     -33.4656      1.00000
     13     -33.4454      1.00000
     14     -33.2368      1.00000
     15     -32.5255      1.00000
     16     -29.7692      1.00000
     17     -27.9042      1.00000
     18     -25.7390      1.00000
     19     -24.9830      1.00000
     20     -24.8356      1.00000
     21     -24.7441      1.00000
     22     -24.5814      1.00000
     23     -24.3350      1.00000
     24     -24.3225      1.00000
     25     -24.1188      1.00000
     26     -24.0073      1.00000
     27     -23.8836      1.00000
     28     -23.6550      1.00000
     29     -23.5967      1.00000
     30     -23.3896      1.00000
     31     -23.3468      1.00000
     32     -23.3106      1.00000
     33     -23.0982      1.00000
     34     -22.9509      1.00000
     35     -22.8093      1.00000
     36     -22.7755      1.00000
     37     -22.6329      1.00000
     38     -22.5876      1.00000
     39     -22.5712      1.00000
     40     -22.4682      1.00000
     41     -22.4034      1.00000
     42     -22.2884      1.00000
     43     -22.2193      1.00000
     44     -22.1379      1.00000
     45     -22.0638      1.00000
     46     -22.0119      1.00000
     47     -21.9572      1.00000
     48     -21.9167      1.00000
     49     -21.8857      1.00000
     50     -21.8439      1.00000
     51     -21.8266      1.00000
     52     -21.6447      1.00000
     53     -21.6405      1.00000
     54     -21.4469      1.00000
     55     -21.4447      1.00000
     56     -21.2076      1.00000
     57     -20.1492      1.00000
     58     -18.9361      1.00000
     59     -18.0488      1.00000
     60     -17.6759      1.00000
     61     -16.9845      1.00000
     62     -16.8623      1.00000
     63     -16.6254      1.00000
     64     -16.5554      1.00000
     65     -16.5426      1.00000
     66     -16.4363      1.00000
     67     -16.3327      1.00000
     68     -16.3196      1.00000
     69     -15.9750      1.00000
     70     -15.8669      1.00000
     71     -15.7387      1.00000
     72     -15.6464      1.00000
     73     -15.5586      1.00000
     74     -15.3787      1.00000
     75     -15.3411      1.00000
     76     -15.2995      1.00000
     77     -15.2854      1.00000
     78     -15.2581      1.00000
     79     -15.2084      1.00000
     80     -15.1108      1.00000
     81     -15.0455      1.00000
     82     -14.9876      1.00000
     83     -14.9764      1.00000
     84     -14.8802      1.00000
     85     -14.8211      1.00000
     86     -14.6958      1.00000
     87     -14.6019      1.00000
     88     -14.5966      1.00000
     89     -14.5410      1.00000
     90     -14.4932      1.00000
     91     -14.4435      1.00000
     92     -14.2650      1.00000
     93     -14.2164      1.00000
     94     -14.1804      1.00000
     95     -14.0604      1.00000
     96     -13.6622      1.00000
     97     -13.6415      1.00000
     98     -13.3758      1.00000
     99     -13.2608      1.00000
    100     -13.2092      1.00000
    101     -13.1747      1.00000
    102     -13.1174      1.00000
    103     -13.1039      1.00000
    104     -12.9749      1.00000
[...]
   0.260E+00 -.400E+01 0.712E+01   -.114E-11 0.341E-12 0.909E-12   -.617E+00 0.372E+01 -.724E+01   -.554E-01 -.671E-01 0.103E+00
 
 
 POSITION                                       TOTAL-FORCE (eV/Angst)
 -----------------------------------------------------------------------------------
      1.25855     -0.72284     17.30292         0.000176      0.002244     -0.000372
      2.51373      1.45387     17.29898        -0.006027     -0.000381      0.003998
      3.76547      3.63334     17.30130         0.007383      0.004534     -0.000307
      5.02151      5.80639     17.30190         0.004438     -0.006810     -0.001969
      6.28269      7.97922     17.30562         0.004255     -0.003039     -0.002431
      7.53868     10.15467     17.30658        -0.000134      0.000178     -0.004181
      2.51484     -2.89877     17.29710         0.002181     -0.001993      0.004274
      3.77097     -0.72347     17.28012        -0.005404     -0.005370      0.002434
      5.02152      1.45100     17.26819         0.009684      0.002955      0.004240
      6.24433      3.65517     17.27482         0.002318     -0.001382     -0.003406
      7.53931      5.81143     17.31232         0.000649     -0.005123      0.000150
      8.79489      7.97947     17.30395         0.004059     -0.007269     -0.000693
      3.77164     -5.07399     17.29622        -0.005513     -0.005092      0.006498
      5.02756     -2.89889     17.27053        -0.004283     -0.012167     -0.000943
      6.28436     -0.72844     17.23866         0.006601     -0.001917     -0.001250
      7.54073      1.41069     17.23533        -0.001675      0.004406      0.001169
      8.83777      3.65518     17.26837        -0.008946     -0.006034     -0.002712
     10.05751      5.80685     17.29812        -0.013039     -0.010395      0.003972
      5.02940     -7.24809     17.29710        -0.006205     -0.002968      0.005718
      6.28323     -5.07397     17.27932        -0.002737     -0.006583      0.003195
      7.53881     -2.90128     17.25385        -0.004130      0.001384     -0.001533
      8.79434     -0.72926     17.23974        -0.002782      0.005114     -0.000515
     10.05778      1.45022     17.25745        -0.003929      0.002934      0.000433
     11.31375      3.63339     17.28752        -0.014676     -0.001606      0.001349
      6.28379     -9.42410     17.30209        -0.002276     -0.000923     -0.000853
      7.53891     -7.24903     17.29788        -0.006331     -0.001066      0.003209
      8.79419     -5.07460     17.28731        -0.005120     -0.005855      0.005802
     10.05030     -2.89972     17.28026        -0.002023     -0.000169      0.002986
     11.30727     -0.72409     17.28013        -0.001119     -0.000281      0.003376
     12.56477      1.45360     17.29185        -0.002374      0.002855      0.004317
      7.53904    -11.60037     17.30590        -0.000786      0.003189     -0.004340
      8.79463     -9.42409     17.30727        -0.006649     -0.003809     -0.004532
     10.04854     -7.24841     17.30618         0.000724      0.001274     -0.002948
     11.30590     -5.07461     17.30423         0.004276     -0.001324     -0.001297
     12.56252     -2.89935     17.30108         0.003312      0.004920      0.001333
     13.81907     -0.72311     17.30254         0.002768      0.004110     -0.000260
      6.91871     -1.64920     21.41572         0.005235      0.001675      0.008220
      7.83535     -0.40387     21.58355         0.008369      0.003867      0.003543
      7.53231     -2.95072     21.99843         0.004300      0.012538     -0.012017
      7.09053      0.94900     21.40356         0.005104      0.010683     -0.004321
      8.03392      2.16624     21.19055         0.009728      0.005549     -0.000069
      7.37334      3.55064     21.34941         0.005799      0.001270      0.007454
      6.87267     -4.24943     21.46568        -0.002722      0.002718      0.000192
      8.19976      4.74886     20.77358         0.010883     -0.001478     -0.000695
      5.73963     -1.41627     22.03547         0.001097      0.004689      0.002619
      6.68292     -1.84593     20.09626         0.001987      0.003987     -0.003809
      8.38325     -0.44645     22.81969         0.002171      0.003173     -0.002945
      8.82449     -0.47821     20.65952         0.001735      0.002440      0.005985
      6.27398      0.82347     20.32506         0.000786      0.001697      0.004529
      6.33252      1.17208     22.50133         0.007990      0.002481      0.003921
      9.06925      2.03320     22.05200         0.003582      0.004583     -0.001756
      8.51561      2.08588     19.91452        -0.001964      0.004293     -0.004781
      8.84980     -3.00063     21.68976         0.004145      0.001575      0.004146
      7.39721     -2.93444     23.34061        -0.005443     -0.000796      0.015606
      6.13604      3.45668     20.76251         0.001233      0.005418      0.008313
      7.16077      3.76721     22.68848         0.006740      0.003942     -0.003335
      5.53692     -4.13937     21.49070         0.011135     -0.001273     -0.002746
      7.26581     -4.50024     20.21171         0.004213      0.002601     -0.002997
      7.23885     -5.27557     22.24112         0.002657      0.000477     -0.004003
      1.26028      0.72876     17.30466         0.000938     -0.001523     -0.003191
      2.51896      2.90406     17.30469         0.001976     -0.000967     -0.001712
      3.77315      5.07760     17.30622        -0.004482     -0.004460     -0.003915
      5.02782      7.25064     17.30800        -0.002347     -0.003261     -0.004357
      6.28228      9.42831     17.30649        -0.002110     -0.002404     -0.002427
      7.53884     11.60569     17.30628        -0.000065      0.000050     -0.003112
      2.51667     -1.44678     17.29517         0.001126     -0.002934     -0.001478
      3.77596      0.73086     17.28400        -0.001067     -0.001722      0.001040
      5.04038      2.90293     17.28648         0.002061     -0.004765     -0.001772
      6.28994      5.06958     17.28439        -0.004977     -0.007286     -0.000847
      7.53892      7.25056     17.29884        -0.004156      0.005795      0.000827
      8.79521      9.42860     17.30468         0.001467     -0.003330     -0.001958
      3.77153     -3.62323     17.29018         0.000719     -0.000148     -0.000872
      5.03017     -1.44365     17.26141         0.003671      0.002901     -0.000537
      6.28976      0.74093     17.23960        -0.002667      0.006598      0.002910
      8.78928      5.06936     17.28570         0.000395     -0.003010      0.000839
     10.05006      7.25108     17.30337        -0.000874     -0.001240     -0.003067
      5.02657     -5.79938     17.29284         0.005646      0.001967      0.000892
      6.28309     -3.62212     17.26213         0.002233     -0.001471     -0.001283
      7.53944     -1.44425     17.23136        -0.006496     -0.003996     -0.000184
      8.79059      0.73945     17.23366        -0.007018      0.004633      0.001086
     10.04026      2.90214     17.26816         0.002141      0.000740      0.000594
     11.30555      5.07768     17.29459         0.000249      0.001808      0.000259
      6.28230     -7.97495     17.30040         0.002747      0.002820     -0.003390
      7.53866     -5.79909     17.28481         0.002639      0.001170      0.000455
      8.79420     -3.62263     17.27496        -0.002827     -0.002875      0.000710
     10.04827     -1.44468     17.26685        -0.005881      0.000296      0.000831
     11.30300      0.73018     17.27637         0.003857     -0.006109      0.000594
     12.56001      2.90383     17.29467        -0.003417      0.000857     -0.001713
      7.53925    -10.15001     17.30637        -0.000980     -0.001973     -0.000733
      8.79571     -7.97504     17.30553        -0.001006      0.002594     -0.000805
     10.05105     -5.79984     17.30194        -0.002464     -0.001539     -0.001318
     11.30609     -3.62393     17.29784        -0.001981     -0.005185     -0.001747
     12.56129     -1.44737     17.29680        -0.003609     -0.004710     -0.002664
     13.81807      0.72847     17.30218        -0.004885     -0.000063     -0.003528
      7.54055      2.90538     17.27010        -0.000940      0.004098      0.001224
      9.42561      4.66087     20.97835        -0.002628      0.001160     -0.000046
      7.51733      5.63776     20.23661        -0.000410      0.002838     -0.010567
 -----------------------------------------------------------------------------------
    total drift:                               -0.412864     -0.342571     -0.017595


--------------------------------------------------------------------------------------------------------



  FREE ENERGIE OF THE ION-ELECTRON SYSTEM (eV)
  ---------------------------------------------------
  free  energy   TOTEN  =      -876.27475373 eV

  energy  without entropy=     -876.27475373  energy(sigma->0) =     -876.27475373
 
 d Force = 0.1027075E-03[ 0.627E-04, 0.143E-03]  d Energy = 0.9697804E-04 0.573E-05
 d Force = 0.8015089E+00[ 0.802E+00, 0.801E+00]  d Ewald  = 0.8015089E+00 0.606E-07


--------------------------------------------------------------------------------------------------------


    POTLOK:  cpu time   33.6517: real time   33.5119


--------------------------------------------------------------------------------------------------------


 Conjugate gradient step on ions:
 trial-energy change:   -0.000097  1 .order   -0.000103   -0.000143   -0.000063
  (g-gl).g = 0.497E-03      g.g   = 0.499E-03  gl.gl    = 0.437E-03
 g(Force)  = 0.499E-03   g(Stress)= 0.000E+00 ortho     = 0.294E-04
 gamma     =   1.13787
 trial     =   0.26775
 opt step  =   0.47766  (harmonic =   0.47766) maximal distance =0.00080566
 next E    =  -876.274784   (d E  =  -0.00013)


--------------------------------------------------------------------------------------------------------


  
 reached required accuracy - stopping structural energy minimisation
 writing wavefunctions
     LOOP+:  cpu time 1321.7173: real time  952.8532
    4ORBIT:  cpu time    0.0000: real time    0.0000
 


 total charge     
 
# of ion       s       p       d       tot
------------------------------------------
    1        0.743   1.389   0.000   2.132
    2        0.743   1.389   0.000   2.132
    3        0.741   1.384   0.000   2.125
    4        0.741   1.384   0.000   2.126
    5        0.743   1.390   0.000   2.133
    6        0.743   1.390   0.000   2.133
    7        0.743   1.390   0.000   2.133
    8        0.743   1.389   0.000   2.132
    9        0.743   1.392   0.000   2.136
   10        0.733   1.347   0.000   2.080
   11        0.742   1.384   0.000   2.126
   12        0.743   1.389   0.000   2.132
   13        0.743   1.389   0.000   2.132
   14        0.743   1.389   0.000   2.132
   15        0.741   1.384   0.000   2.125
   16        0.732   1.346   0.000   2.078
   17        0.733   1.347   0.000   2.081
   18        0.741   1.384   0.000   2.125
   19        0.743   1.390   0.000   2.133
   20        0.743   1.391   0.000   2.134
   21        0.743   1.390   0.000   2.134
   22        0.741   1.385   0.000   2.127
   23        0.744   1.393   0.000   2.137
   24        0.741   1.384   0.000   2.126
   25        0.743   1.389   0.000   2.132
   26        0.743   1.391   0.000   2.134
   27        0.743   1.391   0.000   2.134
   28        0.743   1.389   0.000   2.132
   29        0.743   1.389   0.000   2.132
   30        0.743   1.389   0.000   2.132
   31        0.743   1.390   0.000   2.133
   32        0.743   1.389   0.000   2.132
   33        0.743   1.390   0.000   2.133
   34        0.743   1.389   0.000   2.132
   35        0.743   1.390   0.000   2.133
   36        0.743   1.390   0.000   2.133
   37        0.833   1.598   0.000   2.431
   38        0.832   1.596   0.000   2.428
   39        0.833   1.605   0.000   2.437
   40        0.833   1.594   0.000   2.427
   41        0.835   1.592   0.000   2.427
   42        0.841   1.570   0.000   2.411
   43        0.815   1.565   0.000   2.380
   44        0.875   1.719   0.000   2.594
   45        1.758   4.402   0.000   6.160
   46        1.759   4.400   0.000   6.159
   47        1.758   4.402   0.000   6.160
   48        1.758   4.400   0.000   6.158
   49        1.758   4.400   0.000   6.158
   50        1.758   4.403   0.000   6.161
   51        1.757   4.404   0.000   6.161
   52        1.757   4.401   0.000   6.159
   53        1.758   4.401   0.000   6.159
   54        1.758   4.403   0.000   6.161
   55        1.756   4.401   0.000   6.157
   56        1.755   4.400   0.000   6.155
   57        1.759   4.411   0.000   6.170
   58        1.759   4.410   0.000   6.170
   59        1.759   4.412   0.000   6.170
   60        1.238   2.822   0.000   4.059
   61        1.238   2.823   0.000   4.061
   62        1.238   2.825   0.000   4.063
   63        1.238   2.823   0.000   4.060
   64        1.238   2.822   0.000   4.059
   65        1.238   2.821   0.000   4.059
   66        1.238   2.822   0.000   4.059
   67        1.238   2.824   0.000   4.061
   68        1.238   2.829   0.000   4.067
   69        1.238   2.833   0.000   4.071
   70        1.238   2.827   0.000   4.065
   71        1.238   2.822   0.000   4.059
   72        1.238   2.821   0.000   4.059
   73        1.238   2.822   0.000   4.060
   74        1.238   2.829   0.000   4.067
   75        1.238   2.832   0.000   4.070
   76        1.238   2.823   0.000   4.060
   77        1.238   2.822   0.000   4.060
   78        1.238   2.823   0.000   4.061
   79        1.238   2.824   0.000   4.063
   80        1.238   2.830   0.000   4.068
   81        1.238   2.831   0.000   4.068
   82        1.238   2.825   0.000   4.063
   83        1.238   2.823   0.000   4.061
   84        1.238   2.823   0.000   4.061
   85        1.238   2.822   0.000   4.060
   86        1.238   2.822   0.000   4.060
   87        1.238   2.824   0.000   4.062
   88        1.238   2.823   0.000   4.061
   89        1.238   2.822   0.000   4.060
   90        1.238   2.823   0.000   4.061
   91        1.238   2.823   0.000   4.061
   92        1.238   2.822   0.000   4.060
   93        1.238   2.822   0.000   4.059
   94        1.238   2.822   0.000   4.060
   95        1.547   3.699   0.000   5.246
   96        1.586   3.593   0.000   5.179
   97        1.588   3.589   0.000   5.176
--------------------------------------------------
tot        107.812 238.486   0.000 346.298
 


 magnetization (x)
 
# of ion       s       p       d       tot
------------------------------------------
    1       -0.000   0.000   0.000   0.000
    2        0.000  -0.000   0.000  -0.000
    3        0.000  -0.000   0.000  -0.000
    4       -0.000  -0.000   0.000  -0.000
    5       -0.000   0.000   0.000   0.000
    6       -0.000  -0.000   0.000  -0.000
    7       -0.000  -0.000   0.000  -0.000
    8       -0.000  -0.000   0.000  -0.000
    9       -0.000  -0.000   0.000  -0.000
   10       -0.000   0.000   0.000   0.000
   11        0.000   0.000   0.000   0.000
   12       -0.000  -0.000   0.000  -0.000
   13        0.000  -0.000   0.000  -0.000
   14        0.000   0.000   0.000   0.000
   15       -0.000  -0.000   0.000  -0.000
   16       -0.000   0.000   0.000   0.000
   17        0.000   0.000   0.000   0.000
   18       -0.000  -0.000   0.000  -0.000
   19        0.000   0.000   0.000   0.000
   20        0.000   0.000   0.000   0.000
   21        0.000   0.000   0.000   0.000
   22       -0.000  -0.000   0.000  -0.000
   23        0.000   0.000   0.000   0.000
   24        0.000  -0.000   0.000  -0.000
   25        0.000  -0.000   0.000  -0.000
   26        0.000  -0.000   0.000  -0.000
   27       -0.000  -0.000   0.000  -0.000
   28        0.000  -0.000   0.000   0.000
   29       -0.000  -0.000   0.000  -0.000
   30       -0.000  -0.000   0.000  -0.000
   31        0.000   0.000   0.000   0.000
   32        0.000   0.000   0.000   0.000
   33       -0.000   0.000   0.000   0.000
   34       -0.000  -0.000   0.000  -0.000
   35       -0.000  -0.000   0.000  -0.000
   36       -0.000  -0.000   0.000  -0.000
   37        0.000   0.000   0.000   0.000
   38       -0.000  -0.000   0.000  -0.000
   39       -0.000   0.000   0.000   0.000
   40        0.000   0.000   0.000   0.000
   41       -0.000  -0.000   0.000  -0.000
   42        0.000   0.000   0.000   0.000
   43        0.000   0.000   0.000   0.000
   44        0.000  -0.000   0.000   0.000
   45        0.000   0.000   0.000   0.000
   46        0.000   0.000   0.000   0.000
   47       -0.000  -0.000   0.000  -0.000
   48       -0.000   0.000   0.000   0.000
   49        0.000  -0.000   0.000  -0.000
   50       -0.000  -0.000   0.000  -0.000
   51       -0.000  -0.000   0.000  -0.000
   52       -0.000  -0.000   0.000  -0.000
   53        0.000   0.000   0.000   0.000
   54       -0.000  -0.000   0.000  -0.000
   55       -0.000  -0.000   0.000  -0.000
   56       -0.000  -0.000   0.000  -0.000
   57        0.000   0.000   0.000   0.000
   58       -0.000  -0.000   0.000  -0.000
   59       -0.000   0.000   0.000   0.000
   60       -0.000  -0.000   0.000  -0.000
   61       -0.000  -0.000   0.000  -0.000
   62       -0.000  -0.000   0.000  -0.000
   63        0.000   0.000   0.000   0.000
   64        0.000   0.000   0.000   0.000
   65       -0.000   0.000   0.000   0.000
   66        0.000  -0.000   0.000  -0.000
   67       -0.000   0.000   0.000   0.000
   68       -0.000  -0.000   0.000  -0.000
   69        0.000  -0.000   0.000  -0.000
   70        0.000   0.000   0.000   0.000
   71       -0.000  -0.000   0.000  -0.000
   72        0.000   0.000   0.000   0.000
   73        0.000  -0.000   0.000  -0.000
   74       -0.000  -0.000   0.000  -0.000
   75       -0.000   0.000   0.000   0.000
   76        0.000   0.000   0.000   0.000
   77        0.000  -0.000   0.000  -0.000
   78        0.000  -0.000   0.000  -0.000
   79        0.000  -0.000   0.000  -0.000
   80       -0.000  -0.000   0.000  -0.000
   81       -0.000  -0.000   0.000  -0.000
   82       -0.000  -0.000   0.000  -0.000
   83       -0.000  -0.000   0.000  -0.000
   84       -0.000  -0.000   0.000  -0.000
   85        0.000   0.000   0.000   0.000
   86        0.000   0.000   0.000   0.000
   87        0.000   0.000   0.000   0.000
   88       -0.000   0.000   0.000   0.000
   89       -0.000  -0.000   0.000  -0.000
   90        0.000   0.000   0.000   0.000
   91        0.000  -0.000   0.000  -0.000
   92        0.000   0.000   0.000   0.000
   93        0.000   0.000   0.000   0.000
   94        0.000   0.000   0.000   0.000
   95        0.000  -0.000   0.000  -0.000
   96        0.000  -0.000   0.000  -0.000
   97       -0.000   0.000   0.000   0.000
--------------------------------------------------
tot         -0.000  -0.000   0.000  -0.000
 

 total amount of memory used by VASP MPI-rank0   417132. kBytes
=======================================================================

   base      :      30000. kBytes
   nonlr-proj:      13774. kBytes
   fftplans  :      31564. kBytes
   grid      :     124703. kBytes
   one-center:         55. kBytes
   wavefun   :     217036. kBytes
 
  
  
 General timing and accounting informations for this job:
 ========================================================
  
                  Total CPU time used (sec):    11982.463
                            User time (sec):    11517.094
                          System time (sec):      465.369
                         Elapsed time (sec):     8461.510
  
                   Maximum memory used (kb):     1349180.
                   Average memory used (kb):           0.
  
                          Minor page faults:      2746839
                          Major page faults:           15
                 Voluntary context switches:        82714
