 vasp.5.4.4.18Apr17-6-g9f103f2a35 (build May 01 2020 14:57:12) complex          
  
 executed on             LinuxIFC date 2021.01.23  15:38:35
 running on   48 total cores
 distrk:  each k-point on   12 cores,    4 groups
 distr:  one band on NCORES_PER_BAND=   3 cores,    4 groups


--------------------------------------------------------------------------------------------------------


 INCAR:
 POTCAR:    PAW_PBE B 06Sep2000                   
 POTCAR:    PAW_PBE N 08Apr2002                   
 POTCAR:    PAW_PBE O 08Apr2002                   

 ----------------------------------------------------------------------------- 
|                                                                             |
|           W    W    AA    RRRRR   N    N  II  N    N   GGGG   !!!           |
|           W    W   A  A   R    R  NN   N  II  NN   N  G    G  !!!           |
|           W    W  A    A  R    R  N N  N  II  N N  N  G       !!!           |
|           W WW W  AAAAAA  RRRRR   N  N N  II  N  N N  G  GGG   !            |
|           WW  WW  A    A  R   R   N   NN  II  N   NN  G    G                |
|           W    W  A    A  R    R  N    N  II  N    N   GGGG   !!!           |
|                                                                             |
|      For optimal performance we recommend to set                            |
|        NCORE= 4 - approx SQRT( number of cores)                             |
|      NCORE specifies how many cores store one orbital (NPAR=cpu/NCORE).     |
|      This setting can  greatly improve the performance of VASP for DFT.     |
|      The default,   NCORE=1            might be grossly inefficient         |
|      on modern multi-core architectures or massively parallel machines.     |
|      Do your own testing !!!!                                               |
|      Unfortunately you need to use the default for GW and RPA calculations. |
|      (for HF NCORE is supported but not extensively tested yet)             |
|                                                                             |
 ----------------------------------------------------------------------------- 


 ----------------------------------------------------------------------------- 
|                                                                             |
|           W    W    AA    RRRRR   N    N  II  N    N   GGGG   !!!           |
|           W    W   A  A   R    R  NN   N  II  NN   N  G    G  !!!           |
|           W    W  A    A  R    R  N N  N  II  N N  N  G       !!!           |
|           W WW W  AAAAAA  RRRRR   N  N N  II  N  N N  G  GGG   !            |
|           WW  WW  A    A  R   R   N   NN  II  N   NN  G    G                |
|           W    W  A    A  R    R  N    N  II  N    N   GGGG   !!!           |
|                                                                             |
|      You have enabled k-point parallelism (KPAR>1).                         |
|      This developmental code was originally  written by Paul Kent at ORNL,  |
|      and carefully double checked in Vienna.                                |
|      GW as well as linear response parallelism added by Martijn Marsman     |
|      and Georg Kresse.                                                      |
|      Carefully verify results versus KPAR=1.                                |
|      Report problems to Paul Kent and Vienna.                               |
|                                                                             |
 ----------------------------------------------------------------------------- 

 POTCAR:    PAW_PBE B 06Sep2000                   
   VRHFIN =B: s2p1                                                              
   LEXCH  = PE                                                                  
   EATOM  =    71.1703 eV,    5.2309 Ry                                         
                                                                                
   TITEL  = PAW_PBE B 06Sep2000                                                 
   LULTRA =        F    use ultrasoft PP ?                                      
   IUNSCR =        1    unscreen: 0-lin 1-nonlin 2-no                           
   RPACOR =    1.200    partial core radius                                     
   POMASS =   10.811; ZVAL   =    3.000    mass and valenz                      
   RCORE  =    1.700    outmost cutoff radius                                   
   RWIGS  =    1.710; RWIGS  =    0.905    wigner-seitz radius (au A)           
   ENMAX  =  318.614; ENMIN  =  238.960 eV                                      
   ICORE  =        2    local potential                                         
   LCOR   =        T    correct aug charges                                     
   LPAW   =        T    paw PP                                                  
   EAUG   =  535.514                                                            
   DEXC   =    0.000                                                            
   RMAX   =    1.732    core radius for proj-oper                               
   RAUG   =    1.300    factor for augmentation sphere                          
   RDEP   =    1.757    radius for radial grids                                 
   RDEPT  =    1.436    core radius for aug-charge                              
                                                                                
   Atomic configuration                                                         
    4 entries                                                                   
     n  l   j            E        occ.                                          
     1  0  0.50      -180.5896   2.0000                                         
     2  0  0.50        -9.4431   2.0000                                         
     2  1  0.50        -3.6068   1.0000                                         
     3  2  1.50        -4.0817   0.0000                                         
   Description                                                                  
     l       E           TYP  RCUT    TYP  RCUT                                 
     0     -9.4430752     23  1.500                                             
     0      0.8675899     23  1.500                                             
     1     -3.6067955     23  1.700                                             
     1      6.1086146     23  1.700                                             
     2     -4.0817478      7  1.700                                             
  local pseudopotential read in
  partial core-charges read in
  partial kinetic energy density read in
  atomic valenz-charges read in
  non local Contribution for L=           0  read in
    real space projection operators read in
  non local Contribution for L=           0  read in
    real space projection operators read in
  non local Contribution for L=           1  read in
    real space projection operators read in
  non local Contribution for L=           1  read in
    real space projection operators read in
    PAW grid and wavefunctions read in
 
   number of l-projection  operators is LMAX  =           4
   number of lm-projection operators is LMMAX =           8
 
 POTCAR:    PAW_PBE N 08Apr2002                   
   VRHFIN =N: s2p3                                                              
   LEXCH  = PE                                                                  
   EATOM  =   264.5486 eV,   19.4438 Ry                                         
                                                                                
   TITEL  = PAW_PBE N 08Apr2002                                                 
   LULTRA =        F    use ultrasoft PP ?                                      
   IUNSCR =        1    unscreen: 0-lin 1-nonlin 2-no                           
   RPACOR =    1.200    partial core radius                                     
   POMASS =   14.001; ZVAL   =    5.000    mass and valenz                      
   RCORE  =    1.500    outmost cutoff radius                                   
   RWIGS  =    1.400; RWIGS  =    0.741    wigner-seitz radius (au A)           
   ENMAX  =  400.000; ENMIN  =  300.000 eV                                      
   ICORE  =        2    local potential                                         
   LCOR   =        T    correct aug charges                                     
   LPAW   =        T    paw PP                                                  
   EAUG   =  627.112                                                            
   DEXC   =    0.000                                                            
   RMAX   =    1.529    core radius for proj-oper                               
   RAUG   =    1.300    factor for augmentation sphere                          
   RDEP   =    1.514    radius for radial grids                                 
   RDEPT  =    1.338    core radius for aug-charge                              
                                                                                
   Atomic configuration                                                         
    4 entries                                                                   
     n  l   j            E        occ.                                          
     1  0  0.50      -384.7179   2.0000                                         
     2  0  0.50       -18.5828   2.0000                                         
     2  1  0.50        -7.0898   3.0000                                         
     3  2  1.50        -6.8029   0.0000                                         
   Description                                                                  
     l       E           TYP  RCUT    TYP  RCUT                                 
     0    -18.5828119     23  1.200                                             
     0    -13.5018863     23  1.200                                             
     1     -7.0897853     23  1.500                                             
     1      9.5240782     23  1.500                                             
     2     -6.8029130      7  1.500                                             
  local pseudopotential read in
  partial core-charges read in
  partial kinetic energy density read in
  atomic valenz-charges read in
  non local Contribution for L=           0  read in
    real space projection operators read in
  non local Contribution for L=           0  read in
    real space projection operators read in
  non local Contribution for L=           1  read in
    real space projection operators read in
  non local Contribution for L=           1  read in
    real space projection operators read in
    PAW grid and wavefunctions read in
 
   number of l-projection  operators is LMAX  =           4
   number of lm-projection operators is LMMAX =           8
 
 POTCAR:    PAW_PBE O 08Apr2002                   
   VRHFIN =O: s2p4                                                              
   LEXCH  = PE                                                                  
   EATOM  =   432.3788 eV,   31.7789 Ry                                         
                                                                                
   TITEL  = PAW_PBE O 08Apr2002                                                 
   LULTRA =        F    use ultrasoft PP ?                                      
   IUNSCR =        1    unscreen: 0-lin 1-nonlin 2-no                           
   RPACOR =    1.200    partial core radius                                     
   POMASS =   16.000; ZVAL   =    6.000    mass and valenz                      
   RCORE  =    1.520    outmost cutoff radius                                   
   RWIGS  =    1.550; RWIGS  =    0.820    wigner-seitz radius (au A)           
   ENMAX  =  400.000; ENMIN  =  300.000 eV                                      
   ICORE  =        2    local potential                                         
   LCOR   =        T    correct aug charges                                     
   LPAW   =        T    paw PP                                                  
   EAUG   =  605.392                                                            
   DEXC   =    0.000                                                            
   RMAX   =    1.553    core radius for proj-oper                               
   RAUG   =    1.300    factor for augmentation sphere                          
   RDEP   =    1.550    radius for radial grids                                 
   RDEPT  =    1.329    core radius for aug-charge                              
                                                                                
   Atomic configuration                                                         
    4 entries                                                                   
     n  l   j            E        occ.                                          
     1  0  0.50      -514.6923   2.0000                                         
     2  0  0.50       -23.9615   2.0000                                         
     2  1  0.50        -9.0305   4.0000                                         
     3  2  1.50        -9.5241   0.0000                                         
   Description                                                                  
     l       E           TYP  RCUT    TYP  RCUT                                 
     0    -23.9615318     23  1.200                                             
     0     -9.5240782     23  1.200                                             
     1     -9.0304911     23  1.520                                             
     1      8.1634956     23  1.520                                             
     2     -9.5240782      7  1.500                                             
  local pseudopotential read in
  partial core-charges read in
  partial kinetic energy density read in
  kinetic energy density of atom read in
  atomic valenz-charges read in
  non local Contribution for L=           0  read in
    real space projection operators read in
  non local Contribution for L=           0  read in
    real space projection operators read in
  non local Contribution for L=           1  read in
    real space projection operators read in
  non local Contribution for L=           1  read in
    real space projection operators read in
    PAW grid and wavefunctions read in
 
   number of l-projection  operators is LMAX  =           4
   number of lm-projection operators is LMMAX =           8
 
 Optimization of the real space projectors (new method)

 maximal supplied QI-value         = 22.11
 optimisation between [QCUT,QGAM] = [ 11.94, 23.88] = [ 39.92,159.67] Ry 
 Optimized for a Real-space Cutoff    1.18 Angstroem

   l    n(q)    QCUT    max X(q) W(low)/X(q) W(high)/X(q)  e(spline) 
   0      8    11.939    53.033    0.11E-03    0.34E-03    0.60E-07
   0      8    11.939    34.740    0.11E-03    0.34E-03    0.59E-07
   1      8    11.939    30.949    0.22E-03    0.20E-03    0.17E-06
   1      8    11.939    19.518    0.20E-03    0.18E-03    0.16E-06
 Optimization of the real space projectors (new method)

 maximal supplied QI-value         = 25.13
 optimisation between [QCUT,QGAM] = [ 11.81, 23.88] = [ 39.08,159.64] Ry 
 Optimized for a Real-space Cutoff    1.41 Angstroem

   l    n(q)    QCUT    max X(q) W(low)/X(q) W(high)/X(q)  e(spline) 
   0     10    11.813    79.467    0.48E-04    0.30E-04    0.67E-06
   0     10    11.813    66.151    0.47E-04    0.30E-04    0.67E-06
   1     10    11.813    20.169    0.11E-03    0.17E-03    0.11E-05
   1     10    11.813    14.454    0.11E-03    0.17E-03    0.11E-05
 Optimization of the real space projectors (new method)

 maximal supplied QI-value         = 24.76
 optimisation between [QCUT,QGAM] = [ 11.88, 24.01] = [ 39.54,161.47] Ry 
 Optimized for a Real-space Cutoff    1.18 Angstroem

   l    n(q)    QCUT    max X(q) W(low)/X(q) W(high)/X(q)  e(spline) 
   0      8    11.883    20.381    0.86E-04    0.11E-03    0.31E-06
   0      8    11.883    15.268    0.94E-04    0.12E-03    0.33E-06
   1      8    11.883     5.964    0.19E-03    0.18E-04    0.33E-06
   1      8    11.883     5.382    0.17E-03    0.20E-04    0.29E-06
  PAW_PBE B 06Sep2000                   :
 energy of atom  1       EATOM=  -71.1703
 kinetic energy error for atom=    0.0009 (will be added to EATOM!!)
  PAW_PBE N 08Apr2002                   :
 energy of atom  2       EATOM= -264.5486
 kinetic energy error for atom=    0.0116 (will be added to EATOM!!)
  PAW_PBE O 08Apr2002                   :
 energy of atom  3       EATOM= -432.3788
 kinetic energy error for atom=    0.0194 (will be added to EATOM!!)
 
 
 POSCAR: B N O                                   
  positions in direct lattice
  velocities in cartesian coordinates
 exchange correlation table for  LEXCH =        8
   RHO(1)=    0.500       N(1)  =     2000
   RHO(2)=  100.500       N(2)  =     4000
 


--------------------------------------------------------------------------------------------------------


 ion  position               nearest neighbor table
   1  0.167  0.083  0.500-  21 1.45  17 1.45  20 1.45
   2  0.168  0.335  0.500-  18 1.44  17 1.46  22 1.46
   3  0.168  0.582  0.500-  18 1.44  19 1.46  23 1.46
   4  0.167  0.833  0.500-  24 1.45  19 1.45  20 1.45
   5  0.417  0.083  0.500-  25 1.45  21 1.46  24 1.46
   6  0.418  0.335  0.500-  32 1.44  21 1.46  22 1.46
   7  0.418  0.832  0.500-  27 1.44  24 1.46  23 1.46
   8  0.667  0.083  0.500-  27 1.45  25 1.45  28 1.45
   9  0.667  0.333  0.500-  32 1.45  25 1.45  29 1.45
  10  0.665  0.582  0.500-  32 1.44  30 1.46  26 1.46
  11  0.665  0.832  0.500-  27 1.44  31 1.46  26 1.46
  12  0.917  0.083  0.500-  28 1.45  17 1.46  31 1.46
  13  0.917  0.333  0.500-  18 1.45  29 1.45  28 1.45
  14  0.917  0.583  0.500-  29 1.45  30 1.46  19 1.46
  15  0.917  0.833  0.500-  30 1.45  31 1.45  20 1.45
  16  0.417  0.583  0.500-  22 1.42  26 1.42  23 1.42
  17  0.085  0.168  0.500-   1 1.45   2 1.46  12 1.46
  18  0.083  0.417  0.500-   3 1.44   2 1.44  13 1.45
  19  0.085  0.667  0.500-   4 1.45   3 1.46  14 1.46
  20  0.083  0.917  0.500-   4 1.45  15 1.45   1 1.45
  21  0.333  0.168  0.500-   1 1.45   6 1.46   5 1.46
  22  0.335  0.420  0.500-  16 1.42   2 1.46   6 1.46
  23  0.335  0.665  0.500-  16 1.42   7 1.46   3 1.46
  24  0.333  0.915  0.500-   4 1.45   7 1.46   5 1.46
  25  0.583  0.167  0.500-   5 1.45   8 1.45   9 1.45
  26  0.580  0.665  0.500-  16 1.42  11 1.46  10 1.46
  27  0.583  0.917  0.500-   7 1.44  11 1.44   8 1.45
  28  0.833  0.167  0.500-  12 1.45   8 1.45  13 1.45
  29  0.833  0.417  0.500-  14 1.45  13 1.45   9 1.45
  30  0.832  0.667  0.500-  15 1.45  10 1.46  14 1.46
  31  0.832  0.915  0.500-  15 1.45  11 1.46  12 1.46
  32  0.583  0.417  0.500-  10 1.44   6 1.44   9 1.45
  33  0.402  0.470  0.626-  34 1.25
  34  0.527  0.595  0.626-  33 1.25
 
  LATTYP: Found a hexagonal cell.
 ALAT       =    10.0487671536
 C/A-ratio  =     3.4944251219
  
  Lattice vectors:
  
 A1 = (   5.0243667045,  -8.7024973730,   0.0000000000)
 A2 = (   5.0243667045,   8.7024973730,   0.0000000000)
 A3 = (   0.0000000000,   0.0000000000,  35.1146643856)


Analysis of symmetry for initial positions (statically):
=====================================================================
 Subroutine PRICEL returns:
 Original cell was already a primitive cell.
 

 Routine SETGRP: Setting up the symmetry group for a 
 hexagonal supercell.


 Subroutine GETGRP returns: Found  1 space group operations
 (whereof  1 operations were pure point group operations)
 out of a pool of 24 trial point group operations.


The static configuration has the point symmetry C_1 .


Analysis of symmetry for dynamics (positions and initial velocities):
=====================================================================
 Subroutine PRICEL returns:
 Original cell was already a primitive cell.
 

 Routine SETGRP: Setting up the symmetry group for a 
 hexagonal supercell.


 Subroutine GETGRP returns: Found  1 space group operations
 (whereof  1 operations were pure point group operations)
 out of a pool of 24 trial point group operations.


The dynamic configuration has the point symmetry C_1 .


Analysis of constrained symmetry for selective dynamics:
=====================================================================
 Subroutine PRICEL returns:
 Original cell was already a primitive cell.
 

 Routine SETGRP: Setting up the symmetry group for a 
 hexagonal supercell.


 Subroutine GETGRP returns: Found  1 space group operations
 (whereof  1 operations were pure point group operations)
 out of a pool of 24 trial point group operations.


The constrained configuration has the point symmetry C_1 .


Analysis of structural, dynamic, and magnetic symmetry:
=====================================================================
 Subroutine PRICEL returns:
 Original cell was already a primitive cell.
 

 Routine SETGRP: Setting up the symmetry group for a 
 hexagonal supercell.


 Subroutine GETGRP returns: Found  1 space group operations
 (whereof  1 operations were pure point group operations)
 out of a pool of 24 trial point group operations.


The magnetic configuration has the point symmetry C_1 .


 Subroutine INISYM returns: Found  1 space group operations
 (whereof  1 operations are pure point group operations),
 and found     1 'primitive' translations

 
 
 KPOINTS: K-Point Grid                            

Automatic generation of k-mesh.
Space group operators:
 irot       det(A)        alpha          n_x          n_y          n_z        tau_x        tau_y        tau_z
    1     1.000000     0.000000     1.000000     0.000000     0.000000     0.000000     0.000000     0.000000
 
 Subroutine IBZKPT returns following result:
 ===========================================
 
 Found     24 irreducible k-points:
 
 Following reciprocal coordinates:
            Coordinates               Weight
  0.125000  0.125000  0.000000     16.000000
  0.250000 -0.125000  0.000000     16.000000
  0.125000 -0.250000  0.000000     16.000000
  0.375000  0.125000  0.000000     16.000000
  0.500000 -0.375000  0.000000     16.000000
  0.125000  0.500000  0.000000     16.000000
 -0.125000 -0.375000  0.000000     16.000000
  0.375000  0.500000  0.000000     16.000000
  0.500000 -0.125000  0.000000     16.000000
 -0.375000  0.125000  0.000000     16.000000
 -0.250000  0.375000  0.000000     16.000000
  0.125000  0.250000  0.000000     16.000000
 -0.125000  0.375000  0.000000     16.000000
 -0.375000  0.250000  0.000000     16.000000
 -0.250000 -0.125000  0.000000     16.000000
 -0.125000  0.125000  0.000000     16.000000
  0.000000  0.125000  0.000000     16.000000
  0.125000  0.000000  0.000000     16.000000
  0.375000  0.375000  0.000000     16.000000
 -0.250000 -0.375000  0.000000     16.000000
  0.375000  0.250000  0.000000     16.000000
 -0.375000  0.375000  0.000000     16.000000
  0.000000  0.375000  0.000000     16.000000
  0.375000  0.000000  0.000000     16.000000
 
 Following cartesian coordinates:
            Coordinates               Weight
  0.024879  0.000000  0.000000     16.000000
  0.012439 -0.021546  0.000000     16.000000
 -0.012439 -0.021546  0.000000     16.000000
  0.049758 -0.014364  0.000000     16.000000
  0.012439 -0.050273  0.000000     16.000000
  0.062197  0.021546  0.000000     16.000000
 -0.049758 -0.014364  0.000000     16.000000
  0.087076  0.007182  0.000000     16.000000
  0.037318 -0.035909  0.000000     16.000000
 -0.024879  0.028727  0.000000     16.000000
  0.012439  0.035909  0.000000     16.000000
  0.037318  0.007182  0.000000     16.000000
  0.024879  0.028727  0.000000     16.000000
 -0.012439  0.035909  0.000000     16.000000
 -0.037318  0.007182  0.000000     16.000000
  0.000000  0.014364  0.000000     16.000000
  0.012439  0.007182  0.000000     16.000000
  0.012439 -0.007182  0.000000     16.000000
  0.074636  0.000000  0.000000     16.000000
 -0.062197 -0.007182  0.000000     16.000000
  0.062197 -0.007182  0.000000     16.000000
  0.000000  0.043091  0.000000     16.000000
  0.037318  0.021546  0.000000     16.000000
  0.037318 -0.021546  0.000000     16.000000
 


--------------------------------------------------------------------------------------------------------




 Dimension of arrays:
   k-points           NKPTS =     24   k-points in BZ     NKDIM =     24   number of bands    NBANDS=    108
   number of dos      NEDOS =   1200   number of ions     NIONS =     34
   non local maximal  LDIM  =      4   non local SUM 2l+1 LMDIM =      8
   total plane-waves  NPLWV = ******
   max r-space proj   IRMAX =   6598   max aug-charges    IRDMAX=   8974
   dimension x,y,z NGX =    80 NGY =   80 NGZ =  270
   dimension x,y,z NGXF=   160 NGYF=  160 NGZF=  540
   support grid    NGXF=   160 NGYF=  160 NGZF=  540
   ions per type =              15  17   2
   NGX,Y,Z   is equivalent  to a cutoff of  13.24, 13.24, 12.78 a.u.
   NGXF,Y,Z  is equivalent  to a cutoff of  26.47, 26.47, 25.57 a.u.

 SYSTEM =  SiC                                     
 POSCAR =  B N O                                   

 Startparameter for this run:
   NWRITE =      2    write-flag & timer
   PREC   = accura    normal or accurate (medium, high low for compatibility)
   ISTART =      1    job   : 0-new  1-cont  2-samecut
   ICHARG =      0    charge: 1-file 2-atom 10-const
   ISPIN  =      2    spin polarized calculation?
   LNONCOLLINEAR =      F non collinear calculations
   LSORBIT =      F    spin-orbit coupling
   INIWAV =      1    electr: 0-lowe 1-rand  2-diag
   LASPH  =      F    aspherical Exc in radial PAW
   METAGGA=      F    non-selfconsistent MetaGGA calc.

 Electronic Relaxation 1
   ENCUT  =  550.0 eV  40.42 Ry    6.36 a.u.  19.22 19.22 67.15*2*pi/ulx,y,z
   ENINI  =  550.0     initial cutoff
   ENAUG  =  627.1 eV  augmentation charge cutoff
   NELM   =    100;   NELMIN=  2; NELMDL=  0     # of ELM steps 
   EDIFF  = 0.1E-04   stopping-criterion for ELM
   LREAL  =      T    real-space projection
   NLSPLINE    = F    spline interpolate recip. space projectors
   LCOMPAT=      F    compatible to vasp.4.4
   GGA_COMPAT  = T    GGA compatible to vasp.4.4-vasp.4.6
   LMAXPAW     = -100 max onsite density
   LMAXMIX     =    2 max onsite mixed and CHGCAR
   VOSKOWN=      0    Vosko Wilk Nusair interpolation
   ROPT   =   -0.00025  -0.00025  -0.00025
 Ionic relaxation
   EDIFFG = -.2E-01   stopping-criterion for IOM
   NSW    =    500    number of steps for IOM
   NBLOCK =      1;   KBLOCK =    500    inner block; outer block 
   IBRION =      2    ionic relax: 0-MD 1-quasi-New 2-CG
   NFREE  =      1    steps in history (QN), initial steepest desc. (CG)
   ISIF   =      2    stress and relaxation
   IWAVPR =     11    prediction:  0-non 1-charg 2-wave 3-comb
   ISYM   =      2    0-nonsym 1-usesym 2-fastsym
   LCORR  =      T    Harris-Foulkes like correction to forces

   POTIM  = 0.5000    time-step for ionic-motion
   TEIN   =    0.0    initial temperature
   TEBEG  =    0.0;   TEEND  =   0.0 temperature during run
   SMASS  =  -3.00    Nose mass-parameter (am)
   estimated Nose-frequenzy (Omega)   =  0.10E-29 period in steps =****** mass=  -0.231E-26a.u.
   SCALEE = 1.0000    scale energy and forces
   NPACO  =    256;   APACO  = 16.0  distance and # of slots for P.C.
   PSTRESS=    0.0 pullay stress

  Mass of Ions in am
   POMASS =  10.81 14.00 16.00
  Ionic Valenz
   ZVAL   =   3.00  5.00  6.00
  Atomic Wigner-Seitz radii
   RWIGS  =  -1.00 -1.00 -1.00
  virtual crystal weights 
   VCA    =   1.00  1.00  1.00
   NELECT =     142.0000    total number of electrons
   NUPDOWN=      -1.0000    fix difference up-down

 DOS related values:
   EMIN   =  10.00;   EMAX   =-10.00  energy-range for DOS
   EFERMI =   0.00
   ISMEAR =     0;   SIGMA  =   0.05  broadening in eV -4-tet -1-fermi 0-gaus

 Electronic relaxation 2 (details)
   IALGO  =     68    algorithm
   LDIAG  =      T    sub-space diagonalisation (order eigenvalues)
   LSUBROT=      F    optimize rotation matrix (better conditioning)
   TURBO    =      0    0=normal 1=particle mesh
   IRESTART =      0    0=no restart 2=restart with 2 vectors
   NREBOOT  =      0    no. of reboots
   NMIN     =      0    reboot dimension
   EREF     =   0.00    reference energy to select bands
   IMIX   =      4    mixing-type and parameters
     AMIX     =   0.40;   BMIX     =  1.00
     AMIX_MAG =   1.60;   BMIX_MAG =  1.00
     AMIN     =   0.10
     WC   =   100.;   INIMIX=   1;  MIXPRE=   1;  MAXMIX= -45

 Intra band minimization:
   WEIMIN = 0.0010     energy-eigenvalue tresh-hold
   EBREAK =  0.23E-07  absolut break condition
   DEPER  =   0.30     relativ break condition  

   TIME   =   0.40     timestep for ELM

  volume/ion in A,a.u.               =      90.32       609.48
  Fermi-wavevector in a.u.,A,eV,Ry     =   0.587611  1.110423  4.697906  0.345286
  Thomas-Fermi vector in A             =   1.634552
 
 Write flags
   LWAVE        =      T    write WAVECAR
   LDOWNSAMPLE  =      F    k-point downsampling of WAVECAR
   LCHARG       =      F    write CHGCAR
   LVTOT        =      F    write LOCPOT, total local potential
   LVHAR        =      T    write LOCPOT, Hartree potential only
   LELF         =      F    write electronic localiz. function (ELF)
   LORBIT       =     11    0 simple, 1 ext, 2 COOP (PROOUT), +10 PAW based schemes


 Dipole corrections
   LMONO  =      F    monopole corrections only (constant potential shift)
   LDIPOL =      F    correct potential (dipole corrections)
   IDIPOL =      0    1-x, 2-y, 3-z, 4-all directions 
   EPSILON=  1.0000000 bulk dielectric constant

 Exchange correlation treatment:
   GGA     =    --    GGA type
   LEXCH   =     8    internal setting for exchange type
   VOSKOWN=      0    Vosko Wilk Nusair interpolation
   LHFCALC =     F    Hartree Fock is set to
   LHFONE  =     F    Hartree Fock one center treatment
   AEXX    =    0.0000 exact exchange contribution

 Linear response parameters
   LEPSILON=     F    determine dielectric tensor
   LRPA    =     F    only Hartree local field effects (RPA)
   LNABLA  =     F    use nabla operator in PAW spheres
   LVEL    =     F    velocity operator in full k-point grid
   LINTERFAST=   F  fast interpolation
   KINTER  =     0    interpolate to denser k-point grid
   CSHIFT  =0.1000    complex shift for real part using Kramers Kronig
   OMEGAMAX=  -1.0    maximum frequency
   DEG_THRESHOLD= 0.2000000E-02 threshold for treating states as degnerate
   RTIME   =   -0.100 relaxation time in fs
  (WPLASMAI=    0.000 imaginary part of plasma frequency in eV, 0.658/RTIME)
   DFIELD  = 0.0000000 0.0000000 0.0000000 field for delta impulse in time
 
 Orbital magnetization related:
   ORBITALMAG=     F  switch on orbital magnetization
   LCHIMAG   =     F  perturbation theory with respect to B field
   DQ        =  0.001000  dq finite difference perturbation B field
   LLRAUG    =     F  two centre corrections for induced B field

 Solvation model:
   LSOL    =     T         switch on solvation model
   EB_K    = 78.400000     relative permittivity of the bulk solvent
   SIGMA_K =  0.600000     width of the dielectric cavity
   NC_K    =  0.002500     cutoff charge density
   TAU     =  0.000000     cavity surface tension
   LAMBDA_D_K    =  3.040000     Debye length in Angstroms
   LRHOB     =     F     write boundcharge  density
   LRHOION     =     F     write ioniccharge density



--------------------------------------------------------------------------------------------------------


 conjugate gradient relaxation of ions
   using selective dynamics as specified on POSCAR
 charge density and potential will be updated during run
 spin polarized calculation
 RMM-DIIS sequential band-by-band and
  variant of blocked Davidson during initial phase
 perform sub-space diagonalisation
    before iterative eigenvector-optimisation
 modified Broyden-mixing scheme, WC =      100.0
 initial mixing is a Kerker type mixing with AMIX =  0.4000 and BMIX =      1.0000
 Hartree-type preconditioning will be used
 using additional bands           37
 real space projection scheme for non local part
 use partial core corrections
 calculate Harris-corrections to forces 
   (improved forces if not selfconsistent)
 use gradient corrections 
 use of overlap-Matrix (Vanderbilt PP)
 Gauss-broadening in eV      SIGMA  =   0.05


--------------------------------------------------------------------------------------------------------


  energy-cutoff  :      550.00
  volume of cell :     3070.74
      direct lattice vectors                 reciprocal lattice vectors
     5.024366704 -8.702497373  0.000000000     0.099515029 -0.057454772  0.000000000
     5.024366704  8.702497373  0.000000000     0.099515029  0.057454772  0.000000000
     0.000000000  0.000000000 35.114664386     0.000000000  0.000000000  0.028478131

  length of vectors
    10.048767154 10.048767154 35.114664386     0.114909929  0.114909929  0.028478131


 
 old parameters found on file WAVECAR:
  energy-cutoff  :      550.00
  volume of cell :     3070.74
      direct lattice vectors                 reciprocal lattice vectors
     5.024366704 -8.702497373  0.000000000     0.099515029 -0.057454772  0.000000000
     5.024366704  8.702497373  0.000000000     0.099515029  0.057454772  0.000000000
     0.000000000  0.000000000 35.114664386     0.000000000  0.000000000  0.028478131

  length of vectors

 
 k-points in units of 2pi/SCALE and weight: K-Point Grid                            
   0.02487876  0.00000000  0.00000000       0.042
   0.01243938 -0.02154554  0.00000000       0.042
  -0.01243938 -0.02154554  0.00000000       0.042
   0.04975751 -0.01436369  0.00000000       0.042
   0.01243938 -0.05027293  0.00000000       0.042
   0.06219689  0.02154554  0.00000000       0.042
  -0.04975751 -0.01436369  0.00000000       0.042
   0.08707565  0.00718185  0.00000000       0.042
   0.03731814 -0.03590923  0.00000000       0.042
  -0.02487876  0.02872739  0.00000000       0.042
   0.01243938  0.03590923  0.00000000       0.042
   0.03731814  0.00718185  0.00000000       0.042
   0.02487876  0.02872739  0.00000000       0.042
  -0.01243938  0.03590923  0.00000000       0.042
  -0.03731814  0.00718185  0.00000000       0.042
   0.00000000  0.01436369  0.00000000       0.042
   0.01243938  0.00718185  0.00000000       0.042
   0.01243938 -0.00718185  0.00000000       0.042
   0.07463627  0.00000000  0.00000000       0.042
  -0.06219689 -0.00718185  0.00000000       0.042
   0.06219689 -0.00718185  0.00000000       0.042
   0.00000000  0.04309108  0.00000000       0.042
   0.03731814  0.02154554  0.00000000       0.042
   0.03731814 -0.02154554  0.00000000       0.042
 
 k-points in reciprocal lattice and weights: K-Point Grid                            
   0.12500000  0.12500000  0.00000000       0.042
   0.25000000 -0.12500000  0.00000000       0.042
   0.12500000 -0.25000000  0.00000000       0.042
   0.37500000  0.12500000  0.00000000       0.042
   0.50000000 -0.37500000  0.00000000       0.042
   0.12500000  0.50000000  0.00000000       0.042
  -0.12500000 -0.37500000  0.00000000       0.042
   0.37500000  0.50000000  0.00000000       0.042
   0.50000000 -0.12500000  0.00000000       0.042
  -0.37500000  0.12500000  0.00000000       0.042
  -0.25000000  0.37500000  0.00000000       0.042
   0.12500000  0.25000000  0.00000000       0.042
  -0.12500000  0.37500000  0.00000000       0.042
  -0.37500000  0.25000000  0.00000000       0.042
  -0.25000000 -0.12500000  0.00000000       0.042
  -0.12500000  0.12500000  0.00000000       0.042
   0.00000000  0.12500000  0.00000000       0.042
   0.12500000  0.00000000  0.00000000       0.042
   0.37500000  0.37500000  0.00000000       0.042
  -0.25000000 -0.37500000  0.00000000       0.042
   0.37500000  0.25000000  0.00000000       0.042
  -0.37500000  0.37500000  0.00000000       0.042
   0.00000000  0.37500000  0.00000000       0.042
   0.37500000  0.00000000  0.00000000       0.042
 
 position of ions in fractional coordinates (direct lattice) 
   0.16672727  0.08344830  0.50002970
   0.16763999  0.33522406  0.50004419
   0.16762254  0.58239320  0.50003451
   0.16671607  0.83328448  0.50002474
   0.41661585  0.08332211  0.50002584
   0.41760296  0.33523028  0.50005216
   0.41760696  0.83237778  0.50003444
   0.66670065  0.08340606  0.50002460
   0.66669090  0.33330962  0.50002847
   0.66477006  0.58239722  0.50005186
   0.66477644  0.83236049  0.50004370
   0.91669664  0.08330449  0.50002501
   0.91659478  0.33330002  0.50002463
   0.91667860  0.58338450  0.50002582
   0.91655259  0.83327346  0.50002964
   0.41667198  0.58332831  0.50000901
   0.08461524  0.16782568  0.49997324
   0.08300410  0.41650171  0.49997221
   0.08461754  0.66678887  0.49997859
   0.08333396  0.91666652  0.49997756
   0.33321209  0.16782584  0.49997138
   0.33515615  0.42031332  0.49996269
   0.33516307  0.66483738  0.49997410
   0.33321163  0.91538296  0.49997858
   0.58315298  0.16657876  0.49997667
   0.57968767  0.66484465  0.49996249
   0.58349878  0.91699637  0.49997239
   0.83342310  0.16657744  0.49997741
   0.83342179  0.41684757  0.49997667
   0.83217465  0.66678843  0.49997155
   0.83217484  0.91538530  0.49997344
   0.58349573  0.41650477  0.49996543
   0.40235364  0.47045828  0.62614015
   0.52662621  0.59472650  0.62614092
 
 position of ions in cartesian coordinates  (Angst):
   1.25697382 -0.72473496 17.55837511
   2.52657338  1.45839995 17.55888386
   3.76835409  3.60954059 17.55854387
   5.02436950  5.80080983 17.55820094
   2.51187163 -2.90048795 17.55823967
   3.78251026 -0.71684798 17.55916393
   6.28038172  3.60954201 17.55854163
   3.76881119 -5.07611963 17.55819619
   5.02436931 -2.90124969 17.55833176
   6.26622580 -0.71684943 17.55915339
   7.52216496  1.45839980 17.55886653
   5.02437240 -7.25259296 17.55821026
   6.27992983 -5.07612115 17.55819703
   7.53686709 -2.90049105 17.55823896
   8.79176774 -0.72473641 17.55837295
   5.02436817  1.45032623 17.55764844
   1.26835576  0.72413867 17.55639258
   2.50970036  2.90226203 17.55635645
   3.77534134  5.06634449 17.55658024
   5.02436913  7.25207438 17.55654406
   2.51739833 -1.43927338 17.55632709
   3.79575565  0.74108010 17.55602215
   5.02436894  2.86898978 17.55642282
   6.27339711  5.06634442 17.55658003
   3.76692717 -3.62523606 17.55651283
   6.25298674  0.74107837 17.55601492
   7.53903787  2.90226192 17.55636267
   5.02436940 -5.80322254 17.55653910
   6.28181171 -3.62523606 17.55651281
   7.53134016 -1.43927313 17.55633333
   8.78038298  0.72413875 17.55639938
   5.02436925 -1.45323836 17.55611845
   4.38532714  0.59268049 21.98670109
   5.63408721  0.59264258 21.98672837
 


--------------------------------------------------------------------------------------------------------


 k-point  1 :   0.1250 0.1250 0.0000  plane waves:   89921
 k-point  2 :   0.2500-0.1250 0.0000  plane waves:   89921
 k-point  3 :   0.1250-0.2500 0.0000  plane waves:   89921
 k-point  4 :   0.3750 0.1250 0.0000  plane waves:   89970
 k-point  5 :   0.5000-0.3750 0.0000  plane waves:   89970
 k-point  6 :   0.1250 0.5000 0.0000  plane waves:   89970
 k-point  7 :  -0.1250-0.3750 0.0000  plane waves:   89970
 k-point  8 :   0.3750 0.5000 0.0000  plane waves:   89970
 k-point  9 :   0.5000-0.1250 0.0000  plane waves:   89970
 k-point 10 :  -0.3750 0.1250 0.0000  plane waves:   89943
 k-point 11 :  -0.2500 0.3750 0.0000  plane waves:   89943
 k-point 12 :   0.1250 0.2500 0.0000  plane waves:   89943
 k-point 13 :  -0.1250 0.3750 0.0000  plane waves:   89943
 k-point 14 :  -0.3750 0.2500 0.0000  plane waves:   89943
 k-point 15 :  -0.2500-0.1250 0.0000  plane waves:   89943
 k-point 16 :  -0.1250 0.1250 0.0000  plane waves:   89893
 k-point 17 :   0.0000 0.1250 0.0000  plane waves:   89893
 k-point 18 :   0.1250 0.0000 0.0000  plane waves:   89893
 k-point 19 :   0.3750 0.3750 0.0000  plane waves:   89957
 k-point 20 :  -0.2500-0.3750 0.0000  plane waves:   89957
 k-point 21 :   0.3750 0.2500 0.0000  plane waves:   89957
 k-point 22 :  -0.3750 0.3750 0.0000  plane waves:   89980
 k-point 23 :   0.0000 0.3750 0.0000  plane waves:   89980
 k-point 24 :   0.3750 0.0000 0.0000  plane waves:   89980

 maximum and minimum number of plane-waves per node :     30041    29921

 maximum number of plane-waves:     89980
 maximum index in each direction: 
   IXMAX=   19   IYMAX=   19   IZMAX=   67
   IXMIN=  -19   IYMIN=  -19   IZMIN=  -67


 real space projection operators:
  total allocation   :      10721.31 KBytes
  max/ min on nodes  :       3612.56       3501.56


 parallel 3D FFT for wavefunctions:
    minimum data exchange during FFTs selected (reduces bandwidth)
 parallel 3D FFT for charge:
    minimum data exchange during FFTs selected (reduces bandwidth)


 total amount of memory used by VASP MPI-rank0   873133. kBytes
=======================================================================

   base      :      30000. kBytes
   nonlr-proj:       8243. kBytes
   fftplans  :      57421. kBytes
   grid      :     153492. kBytes
   one-center:         73. kBytes
   wavefun   :     623904. kBytes
 
     INWAV:  cpu time   19.9844: real time  240.5464
 Broyden mixing: mesh for mixing (old mesh)
   NGX = 39   NGY = 39   NGZ =135
  (NGX  =160   NGY  =160   NGZ  =540)
  gives a total of 205335 points

 charge density for first step will be calculated from the start-wavefunctions


--------------------------------------------------------------------------------------------------------


 Maximum index for non-local projection operator         2217
 Maximum index for augmentation-charges          736 (set IRDMAX)


--------------------------------------------------------------------------------------------------------


 initial charge from wavefunction
 First call to EWALD:  gamma=   0.122
 Maximum number of real-space cells 4x 4x 1
 Maximum number of reciprocal cells 2x 2x 6

    FEWALD:  cpu time    0.0055: real time    8.8904


--------------------------------------- Iteration      1(   1)  ---------------------------------------


    POTLOK:  cpu time   53.1047: real time  161.6848
    SETDIJ:  cpu time    9.6417: real time    9.5593
     EDDAV:  cpu time  111.0683: real time  208.4768
       DOS:  cpu time    0.4191: real time   16.5060
    CHARGE:  cpu time    2.7368: real time    2.5927
    MIXING:  cpu time    2.2072: real time   31.5035
    --------------------------------------------
      LOOP:  cpu time  179.1780: real time  430.3232

 eigenvalue-minimisations  : 12360
 total energy-change (2. order) :-0.2876468E+03  (-0.6676737E+00)
 number of electron     141.9999995 magnetization       1.7653402
 augmentation part        5.3550642 magnetization       1.8079683

 Broyden mixing:
  rms(total) = 0.14682E+01    rms(broyden)= 0.14672E+01
  rms(prec ) = 0.15419E+01
  weight for this iteration     100.00

 Free energy of the ion-electron system (eV)
  ---------------------------------------------------
  alpha Z        PSCENC =        34.98872654
  Ewald energy   TEWEN  =     45863.76386082
  -Hartree energ DENC   =    -51285.72926747
  -exchange      EXHF   =         0.00000000
  -V(xc)+E(xc)   XCENC  =       520.50603000
  PAW double counting   =     15579.62599852   -15597.10267572
  entropy T*S    EENTRO =        -0.00000000
  eigenvalues    EBANDS =     -1922.08781976
  atomic energy  EATOM  =      6429.38789286
  Solvation  Ediel_sol  =        89.00043556
  ---------------------------------------------------
  free energy    TOTEN  =      -287.64681866 eV

  energy without entropy =     -287.64681866  energy(sigma->0) =     -287.64681866


--------------------------------------------------------------------------------------------------------




--------------------------------------- Iteration      1(   2)  ---------------------------------------


    POTLOK:  cpu time   50.7404: real time   55.5676
    SETDIJ:  cpu time    0.0768: real time    0.0408
    EDDIAG:  cpu time   19.8991: real time   25.1426
  RMM-DIIS:  cpu time   73.9296: real time   50.8426
    ORTHCH:  cpu time    0.8421: real time    0.4227
       DOS:  cpu time    0.0068: real time    0.0034
    CHARGE:  cpu time    4.2340: real time    3.8872
    MIXING:  cpu time    0.1600: real time    4.8692
    --------------------------------------------
      LOOP:  cpu time  149.8888: real time  140.7761

 eigenvalue-minimisations  : 10433
 total energy-change (2. order) : 0.5125089E+01  (-0.1434132E+01)
 number of electron     141.9999986 magnetization       1.7396785
 augmentation part        4.7823352 magnetization       1.2158263

 Broyden mixing:
  rms(total) = 0.18148E+01    rms(broyden)= 0.18134E+01
  rms(prec ) = 0.19140E+01
  weight for this iteration     100.00

 eigenvalues of (default mixing * dielectric matrix)
  average eigenvalue GAMMA=   0.5296
  0.5296

 Free energy of the ion-electron system (eV)
  ---------------------------------------------------
  alpha Z        PSCENC =        34.98872654
  Ewald energy   TEWEN  =     45863.76386082
  -Hartree energ DENC   =    -51250.43179796
  -exchange      EXHF   =         0.00000000
  -V(xc)+E(xc)   XCENC  =       526.77631409
  PAW double counting   =     15580.38180552   -15598.30313280
  entropy T*S    EENTRO =        -0.03597052
  eigenvalues    EBANDS =     -1926.39312618
  atomic energy  EATOM  =      6429.38789286
  Solvation  Ediel_sol  =        57.34369771
  ---------------------------------------------------
  free energy    TOTEN  =      -282.52172992 eV

  energy without entropy =     -282.48575940  energy(sigma->0) =     -282.50374466


--------------------------------------------------------------------------------------------------------




--------------------------------------- Iteration      1(   3)  ---------------------------------------


    POTLOK:  cpu time   49.8613: real time   49.9607
    SETDIJ:  cpu time    0.7754: real time    0.5742
    EDDIAG:  cpu time   19.3416: real time   10.4694
  RMM-DIIS:  cpu time   73.4231: real time   36.8123
    ORTHCH:  cpu time    0.8425: real time    0.4223
       DOS:  cpu time    0.0051: real time    0.0026
    CHARGE:  cpu time    4.1091: real time    3.7590
    MIXING:  cpu time    0.1335: real time    0.0669
    --------------------------------------------
      LOOP:  cpu time  148.4916: real time  102.0673

 eigenvalue-minimisations  : 10374
 total energy-change (2. order) :-0.2745853E+00  (-0.4218049E+00)
 number of electron     141.9999989 magnetization       1.7498379
 augmentation part        5.1153723 magnetization       0.1641184

 Broyden mixing:
  rms(total) = 0.10375E+01    rms(broyden)= 0.10370E+01
  rms(prec ) = 0.10445E+01
  weight for this iteration     100.00

 eigenvalues of (default mixing * dielectric matrix)
  average eigenvalue GAMMA=   0.4091
  0.4091  0.4091

 Free energy of the ion-electron system (eV)
  ---------------------------------------------------
  alpha Z        PSCENC =        34.98872654
  Ewald energy   TEWEN  =     45863.76386082
  -Hartree energ DENC   =    -51265.78578029
  -exchange      EXHF   =         0.00000000
  -V(xc)+E(xc)   XCENC  =       523.34552096
  PAW double counting   =     15600.24240009   -15617.82576234
  entropy T*S    EENTRO =        -0.00007201
  eigenvalues    EBANDS =     -1918.98516734
  atomic energy  EATOM  =      6429.38789286
  Solvation  Ediel_sol  =        68.07206546
  ---------------------------------------------------
  free energy    TOTEN  =      -282.79631525 eV

  energy without entropy =     -282.79624324  energy(sigma->0) =     -282.79627925


--------------------------------------------------------------------------------------------------------




--------------------------------------- Iteration      1(   4)  ---------------------------------------


    POTLOK:  cpu time   45.1904: real time   45.2752
    SETDIJ:  cpu time    0.6603: real time    0.4590
    EDDIAG:  cpu time   19.2910: real time   10.4574
  RMM-DIIS:  cpu time   79.0287: real time   39.9575
    ORTHCH:  cpu time    0.8375: real time    0.4202
       DOS:  cpu time    0.0095: real time    0.0047
    CHARGE:  cpu time    4.0635: real time    3.7156
    MIXING:  cpu time    0.1331: real time    0.0667
    --------------------------------------------
      LOOP:  cpu time  149.2139: real time  100.3563

 eigenvalue-minimisations  : 11258
 total energy-change (2. order) :-0.2229152E+01  (-0.9882800E-01)
 number of electron     141.9999989 magnetization       1.7641841
 augmentation part        5.1192605 magnetization       0.2019219

 Broyden mixing:
  rms(total) = 0.67368E+00    rms(broyden)= 0.67363E+00
  rms(prec ) = 0.68416E+00
  weight for this iteration     100.00

 eigenvalues of (default mixing * dielectric matrix)
  average eigenvalue GAMMA=   0.5284
  0.5780  0.5780  0.4292

 Free energy of the ion-electron system (eV)
  ---------------------------------------------------
  alpha Z        PSCENC =        34.98872654
  Ewald energy   TEWEN  =     45863.76386082
  -Hartree energ DENC   =    -51262.77875672
  -exchange      EXHF   =         0.00000000
  -V(xc)+E(xc)   XCENC  =       522.05789494
  PAW double counting   =     15589.28277563   -15606.87132114
  entropy T*S    EENTRO =        -0.00000000
  eigenvalues    EBANDS =     -1921.79149739
  atomic energy  EATOM  =      6429.38789286
  Solvation  Ediel_sol  =        66.93495683
  ---------------------------------------------------
  free energy    TOTEN  =      -285.02546764 eV

  energy without entropy =     -285.02546764  energy(sigma->0) =     -285.02546764


--------------------------------------------------------------------------------------------------------




--------------------------------------- Iteration      1(   5)  ---------------------------------------


    POTLOK:  cpu time   44.7220: real time   44.8034
    SETDIJ:  cpu time    0.7887: real time    0.5875
    EDDIAG:  cpu time   19.3031: real time   10.4760
  RMM-DIIS:  cpu time   77.3478: real time   38.9093
    ORTHCH:  cpu time    0.8440: real time    0.4235
       DOS:  cpu time    0.0032: real time    0.0016
    CHARGE:  cpu time    4.1312: real time    3.7814
    MIXING:  cpu time    0.1356: real time    0.0680
    --------------------------------------------
      LOOP:  cpu time  147.2756: real time   99.0508

 eigenvalue-minimisations  : 11040
 total energy-change (2. order) :-0.1130868E+01  (-0.5032034E-01)
 number of electron     141.9999989 magnetization       1.7836193
 augmentation part        5.1267698 magnetization       0.2407069

 Broyden mixing:
  rms(total) = 0.44798E+00    rms(broyden)= 0.44797E+00
  rms(prec ) = 0.46016E+00
  weight for this iteration     100.00

 eigenvalues of (default mixing * dielectric matrix)
  average eigenvalue GAMMA=   0.6569
  0.8276  0.8276  0.4861  0.4861

 Free energy of the ion-electron system (eV)
  ---------------------------------------------------
  alpha Z        PSCENC =        34.98872654
  Ewald energy   TEWEN  =     45863.76386082
  -Hartree energ DENC   =    -51259.85933237
  -exchange      EXHF   =         0.00000000
  -V(xc)+E(xc)   XCENC  =       521.04464368
  PAW double counting   =     15577.95271637   -15595.52528730
  entropy T*S    EENTRO =        -0.00000000
  eigenvalues    EBANDS =     -1924.37580415
  atomic energy  EATOM  =      6429.38789286
  Solvation  Ediel_sol  =        66.46624756
  ---------------------------------------------------
  free energy    TOTEN  =      -286.15633599 eV

  energy without entropy =     -286.15633599  energy(sigma->0) =     -286.15633599


--------------------------------------------------------------------------------------------------------




--------------------------------------- Iteration      1(   6)  ---------------------------------------


    POTLOK:  cpu time   46.0199: real time   46.0871
    SETDIJ:  cpu time    0.6524: real time    0.4510
    EDDIAG:  cpu time   19.2514: real time   10.4321
  RMM-DIIS:  cpu time   75.1900: real time   37.7997
    ORTHCH:  cpu time    0.8394: real time    0.4211
       DOS:  cpu time    0.0071: real time    0.0036
    CHARGE:  cpu time    4.0937: real time    3.7518
    MIXING:  cpu time    0.1433: real time    0.0718
    --------------------------------------------
      LOOP:  cpu time  146.1972: real time   99.0182

 eigenvalue-minimisations  : 10839
 total energy-change (2. order) :-0.1394036E+00  (-0.3280303E-01)
 number of electron     141.9999989 magnetization       1.7863871
 augmentation part        5.1528136 magnetization       0.3967697

 Broyden mixing:
  rms(total) = 0.13100E+00    rms(broyden)= 0.13081E+00
  rms(prec ) = 0.13639E+00
  weight for this iteration     100.00

 eigenvalues of (default mixing * dielectric matrix)
  average eigenvalue GAMMA=   0.6807
  0.9534  0.9534  0.5216  0.5216  0.4537

 Free energy of the ion-electron system (eV)
  ---------------------------------------------------
  alpha Z        PSCENC =        34.98872654
  Ewald energy   TEWEN  =     45863.76386082
  -Hartree energ DENC   =    -51258.87944992
  -exchange      EXHF   =         0.00000000
  -V(xc)+E(xc)   XCENC  =       520.69497474
  PAW double counting   =     15568.10427412   -15585.64473699
  entropy T*S    EENTRO =        -0.01950734
  eigenvalues    EBANDS =     -1925.97422130
  atomic energy  EATOM  =      6429.38789286
  Solvation  Ediel_sol  =        67.28244683
  ---------------------------------------------------
  free energy    TOTEN  =      -286.29573964 eV

  energy without entropy =     -286.27623230  energy(sigma->0) =     -286.28598597


--------------------------------------------------------------------------------------------------------




--------------------------------------- Iteration      1(   7)  ---------------------------------------


    POTLOK:  cpu time   43.8033: real time   43.9300
    SETDIJ:  cpu time    0.7137: real time    0.5125
    EDDIAG:  cpu time   19.2680: real time   10.4464
  RMM-DIIS:  cpu time   81.7754: real time   41.6471
    ORTHCH:  cpu time    0.8390: real time    0.4209
       DOS:  cpu time    0.0057: real time    0.0029
    CHARGE:  cpu time    4.1116: real time    3.7610
    MIXING:  cpu time    0.1414: real time    0.0709
    --------------------------------------------
      LOOP:  cpu time  150.6581: real time  100.7916

 eigenvalue-minimisations  : 11847
 total energy-change (2. order) :-0.8408397E-01  (-0.5799635E-02)
 number of electron     141.9999993 magnetization       1.7953625
 augmentation part        5.2710060 magnetization       1.3107573

 Broyden mixing:
  rms(total) = 0.82416E+00    rms(broyden)= 0.82320E+00
  rms(prec ) = 0.86431E+00
  weight for this iteration     100.00

 eigenvalues of (default mixing * dielectric matrix)
  average eigenvalue GAMMA=   0.6750
  1.1317  1.1317  0.5740  0.5740  0.5064  0.1322

 Free energy of the ion-electron system (eV)
  ---------------------------------------------------
  alpha Z        PSCENC =        34.98872654
  Ewald energy   TEWEN  =     45863.76386082
  -Hartree energ DENC   =    -51258.42092046
  -exchange      EXHF   =         0.00000000
  -V(xc)+E(xc)   XCENC  =       520.63689103
  PAW double counting   =     15567.64178136   -15585.17726623
  entropy T*S    EENTRO =        -0.04060149
  eigenvalues    EBANDS =     -1926.19713606
  atomic energy  EATOM  =      6429.38789286
  Solvation  Ediel_sol  =        67.03694803
  ---------------------------------------------------
  free energy    TOTEN  =      -286.37982361 eV

  energy without entropy =     -286.33922212  energy(sigma->0) =     -286.35952287


--------------------------------------------------------------------------------------------------------




--------------------------------------- Iteration      1(   8)  ---------------------------------------


    POTLOK:  cpu time   45.5634: real time   45.6481
    SETDIJ:  cpu time    0.7040: real time    0.5027
    EDDIAG:  cpu time   19.3237: real time   10.4898
  RMM-DIIS:  cpu time   74.4447: real time   37.6339
    ORTHCH:  cpu time    0.8400: real time    0.4214
       DOS:  cpu time    0.0041: real time    0.0021
    CHARGE:  cpu time    4.1246: real time    3.7739
    MIXING:  cpu time    0.1443: real time    0.0723
    --------------------------------------------
      LOOP:  cpu time  145.1490: real time   98.5442

 eigenvalue-minimisations  : 10664
 total energy-change (2. order) :-0.1831876E+00  (-0.1848496E-02)
 number of electron     141.9999995 magnetization       1.7856250
 augmentation part        5.3409421 magnetization       1.8104633

 Broyden mixing:
  rms(total) = 0.13528E+01    rms(broyden)= 0.13524E+01
  rms(prec ) = 0.14217E+01
  weight for this iteration     100.00

 eigenvalues of (default mixing * dielectric matrix)
  average eigenvalue GAMMA=   0.6268
  1.1908  0.9246  0.9246  0.4904  0.4904  0.2426  0.1238

 Free energy of the ion-electron system (eV)
  ---------------------------------------------------
  alpha Z        PSCENC =        34.98872654
  Ewald energy   TEWEN  =     45863.76386082
  -Hartree energ DENC   =    -51261.10365926
  -exchange      EXHF   =         0.00000000
  -V(xc)+E(xc)   XCENC  =       520.63894336
  PAW double counting   =     15568.26320118   -15585.79219352
  entropy T*S    EENTRO =        -0.00336822
  eigenvalues    EBANDS =     -1925.86086251
  atomic energy  EATOM  =      6429.38789286
  Solvation  Ediel_sol  =        69.15444753
  ---------------------------------------------------
  free energy    TOTEN  =      -286.56301123 eV

  energy without entropy =     -286.55964301  energy(sigma->0) =     -286.56132712


--------------------------------------------------------------------------------------------------------




--------------------------------------- Iteration      1(   9)  ---------------------------------------


    POTLOK:  cpu time   45.2489: real time   45.3248
    SETDIJ:  cpu time    0.6053: real time    0.4038
    EDDIAG:  cpu time   19.2345: real time   10.4197
  RMM-DIIS:  cpu time   74.0670: real time   37.1390
    ORTHCH:  cpu time    0.8453: real time    0.4237
       DOS:  cpu time    0.0043: real time    0.0021
    CHARGE:  cpu time    4.1071: real time    3.7582
    MIXING:  cpu time    0.1482: real time    0.0743
    --------------------------------------------
      LOOP:  cpu time  144.2605: real time   97.5456

 eigenvalue-minimisations  : 10368
 total energy-change (2. order) : 0.2005432E+00  (-0.4047167E-03)
 number of electron     141.9999994 magnetization       1.7769123
 augmentation part        5.3133683 magnetization       1.6012002

 Broyden mixing:
  rms(total) = 0.11328E+01    rms(broyden)= 0.11327E+01
  rms(prec ) = 0.11911E+01
  weight for this iteration     100.00

 eigenvalues of (default mixing * dielectric matrix)
  average eigenvalue GAMMA=   0.6764
  1.2727  1.2727  0.6794  0.6794  0.4331  0.4725  0.4725  0.1286

 Free energy of the ion-electron system (eV)
  ---------------------------------------------------
  alpha Z        PSCENC =        34.98872654
  Ewald energy   TEWEN  =     45863.76386082
  -Hartree energ DENC   =    -51257.42013586
  -exchange      EXHF   =         0.00000000
  -V(xc)+E(xc)   XCENC  =       520.67333899
  PAW double counting   =     15567.16354200   -15584.69820480
  entropy T*S    EENTRO =        -0.02808248
  eigenvalues    EBANDS =     -1926.38736437
  atomic energy  EATOM  =      6429.38789286
  Solvation  Ediel_sol  =        66.19395825
  ---------------------------------------------------
  free energy    TOTEN  =      -286.36246805 eV

  energy without entropy =     -286.33438557  energy(sigma->0) =     -286.34842681


--------------------------------------------------------------------------------------------------------




--------------------------------------- Iteration      1(  10)  ---------------------------------------


    POTLOK:  cpu time   43.8131: real time   43.8966
    SETDIJ:  cpu time    0.7519: real time    0.5507
    EDDIAG:  cpu time   19.3609: real time   10.4861
  RMM-DIIS:  cpu time   73.1616: real time   36.6871
    ORTHCH:  cpu time    0.8456: real time    0.4238
       DOS:  cpu time    0.0069: real time    0.0034
    CHARGE:  cpu time    4.1481: real time    3.7979
    MIXING:  cpu time    0.1514: real time    0.0759
    --------------------------------------------
      LOOP:  cpu time  142.2395: real time   95.9216

 eigenvalue-minimisations  : 10374
 total energy-change (2. order) : 0.9242493E-01  (-0.6022166E-03)
 number of electron     141.9999992 magnetization       1.7805259
 augmentation part        5.2334321 magnetization       1.0029927

 Broyden mixing:
  rms(total) = 0.50524E+00    rms(broyden)= 0.50469E+00
  rms(prec ) = 0.53127E+00
  weight for this iteration     100.00

 eigenvalues of (default mixing * dielectric matrix)
  average eigenvalue GAMMA=   0.6009
  1.2690  1.2690  0.6774  0.6774  0.4334  0.4725  0.4725  0.1286  0.0080

 Free energy of the ion-electron system (eV)
  ---------------------------------------------------
  alpha Z        PSCENC =        34.98872654
  Ewald energy   TEWEN  =     45863.76386082
  -Hartree energ DENC   =    -51254.48795737
  -exchange      EXHF   =         0.00000000
  -V(xc)+E(xc)   XCENC  =       520.67517711
  PAW double counting   =     15567.23846953   -15584.77693577
  entropy T*S    EENTRO =        -0.04892506
  eigenvalues    EBANDS =     -1926.81672372
  atomic energy  EATOM  =      6429.38789286
  Solvation  Ediel_sol  =        63.80637195
  ---------------------------------------------------
  free energy    TOTEN  =      -286.27004311 eV

  energy without entropy =     -286.22111805  energy(sigma->0) =     -286.24558058


--------------------------------------------------------------------------------------------------------




--------------------------------------- Iteration      1(  11)  ---------------------------------------


    POTLOK:  cpu time   44.3201: real time   44.4057
    SETDIJ:  cpu time    0.5613: real time    0.3596
    EDDIAG:  cpu time   19.2521: real time   10.4315
  RMM-DIIS:  cpu time   73.1000: real time   36.7922
    ORTHCH:  cpu time    0.8390: real time    0.4210
       DOS:  cpu time    0.0093: real time    0.0047
    CHARGE:  cpu time    4.1024: real time    3.7530
    MIXING:  cpu time    0.1587: real time    0.0795
    --------------------------------------------
      LOOP:  cpu time  142.3430: real time   96.2472

 eigenvalue-minimisations  : 10324
 total energy-change (2. order) :-0.1123506E+00  (-0.2971153E-03)
 number of electron     141.9999994 magnetization       1.7842371
 augmentation part        5.2961055 magnetization       1.4985780

 Broyden mixing:
  rms(total) = 0.99956E+00    rms(broyden)= 0.99947E+00
  rms(prec ) = 0.10510E+01
  weight for this iteration     100.00

 eigenvalues of (default mixing * dielectric matrix)
  average eigenvalue GAMMA=   0.6672
  1.5117  1.5117  0.6297  0.6297  0.6777  0.4370  0.4853  0.4853  0.1285  0.1751

 Free energy of the ion-electron system (eV)
  ---------------------------------------------------
  alpha Z        PSCENC =        34.98872654
  Ewald energy   TEWEN  =     45863.76386082
  -Hartree energ DENC   =    -51255.86889271
  -exchange      EXHF   =         0.00000000
  -V(xc)+E(xc)   XCENC  =       520.63252832
  PAW double counting   =     15568.47951763   -15586.01344144
  entropy T*S    EENTRO =        -0.03657020
  eigenvalues    EBANDS =     -1926.55645698
  atomic energy  EATOM  =      6429.38789286
  Solvation  Ediel_sol  =        64.84044149
  ---------------------------------------------------
  free energy    TOTEN  =      -286.38239368 eV

  energy without entropy =     -286.34582348  energy(sigma->0) =     -286.36410858


--------------------------------------------------------------------------------------------------------




--------------------------------------- Iteration      1(  12)  ---------------------------------------


    POTLOK:  cpu time   43.9825: real time   44.0711
    SETDIJ:  cpu time    0.1723: real time    0.0887
    EDDIAG:  cpu time   19.2776: real time   10.3644
  RMM-DIIS:  cpu time   72.1959: real time   36.2094
    ORTHCH:  cpu time    0.8273: real time    0.4178
       DOS:  cpu time    0.0114: real time    0.0057
    CHARGE:  cpu time    4.0944: real time    3.7450
    MIXING:  cpu time    0.1611: real time    0.0808
    --------------------------------------------
      LOOP:  cpu time  140.7224: real time   94.9828

 eigenvalue-minimisations  : 10331
 total energy-change (2. order) :-0.5446680E-01  (-0.2409349E-03)
 number of electron     141.9999995 magnetization       1.7746502
 augmentation part        5.3267973 magnetization       1.7062108

 Broyden mixing:
  rms(total) = 0.12377E+01    rms(broyden)= 0.12377E+01
  rms(prec ) = 0.13015E+01
  weight for this iteration     100.00

 eigenvalues of (default mixing * dielectric matrix)
  average eigenvalue GAMMA=   0.7416
  1.8651  1.8651  0.8589  0.7289  0.7289  0.4705  0.4705  0.4363  0.4363  0.1285
  0.1690

 Free energy of the ion-electron system (eV)
  ---------------------------------------------------
  alpha Z        PSCENC =        34.98872654
  Ewald energy   TEWEN  =     45863.76386082
  -Hartree energ DENC   =    -51257.38046485
  -exchange      EXHF   =         0.00000000
  -V(xc)+E(xc)   XCENC  =       520.64210892
  PAW double counting   =     15569.93771647   -15587.46784634
  entropy T*S    EENTRO =        -0.01753751
  eigenvalues    EBANDS =     -1926.18410582
  atomic energy  EATOM  =      6429.38789286
  Solvation  Ediel_sol  =        65.89278842
  ---------------------------------------------------
  free energy    TOTEN  =      -286.43686048 eV

  energy without entropy =     -286.41932297  energy(sigma->0) =     -286.42809172


--------------------------------------------------------------------------------------------------------




--------------------------------------- Iteration      1(  13)  ---------------------------------------


    POTLOK:  cpu time   43.8324: real time   43.9032
    SETDIJ:  cpu time    0.7069: real time    0.5057
    EDDIAG:  cpu time   19.2400: real time   10.4202
  RMM-DIIS:  cpu time   73.4886: real time   36.8765
    ORTHCH:  cpu time    0.8420: real time    0.4221
       DOS:  cpu time    0.0042: real time    0.0021
    CHARGE:  cpu time    4.0940: real time    3.7532
    MIXING:  cpu time    0.1656: real time    0.0830
    --------------------------------------------
      LOOP:  cpu time  142.3736: real time   95.9661

 eigenvalue-minimisations  : 10368
 total energy-change (2. order) : 0.1026523E+00  (-0.1747812E-03)
 number of electron     141.9999994 magnetization       1.7658876
 augmentation part        5.2937007 magnetization       1.4583036

 Broyden mixing:
  rms(total) = 0.97703E+00    rms(broyden)= 0.97700E+00
  rms(prec ) = 0.10274E+01
  weight for this iteration     100.00

 eigenvalues of (default mixing * dielectric matrix)
  average eigenvalue GAMMA=   0.6935
  1.8666  1.8666  0.8877  0.7201  0.7201  0.4789  0.4789  0.4405  0.4405  0.1723
  0.1284  0.1213

 Free energy of the ion-electron system (eV)
  ---------------------------------------------------
  alpha Z        PSCENC =        34.98872654
  Ewald energy   TEWEN  =     45863.76386082
  -Hartree energ DENC   =    -51253.77547606
  -exchange      EXHF   =         0.00000000
  -V(xc)+E(xc)   XCENC  =       520.65369315
  PAW double counting   =     15569.79598844   -15587.32853492
  entropy T*S    EENTRO =        -0.03836782
  eigenvalues    EBANDS =     -1926.75452097
  atomic energy  EATOM  =      6429.38789286
  Solvation  Ediel_sol  =        62.97252974
  ---------------------------------------------------
  free energy    TOTEN  =      -286.33420823 eV

  energy without entropy =     -286.29584041  energy(sigma->0) =     -286.31502432


--------------------------------------------------------------------------------------------------------




--------------------------------------- Iteration      1(  14)  ---------------------------------------


    POTLOK:  cpu time   42.9738: real time   43.0577
    SETDIJ:  cpu time    0.6483: real time    0.4468
    EDDIAG:  cpu time   19.2629: real time   10.4517
  RMM-DIIS:  cpu time   72.2540: real time   36.2401
    ORTHCH:  cpu time    0.8427: real time    0.4223
       DOS:  cpu time    0.0043: real time    0.0022
    CHARGE:  cpu time    4.1051: real time    3.7565
    MIXING:  cpu time    0.1716: real time    0.0860
    --------------------------------------------
      LOOP:  cpu time  140.2626: real time   94.4633

 eigenvalue-minimisations  : 10297
 total energy-change (2. order) : 0.2248700E-01  (-0.1434810E-03)
 number of electron     141.9999993 magnetization       1.7581989
 augmentation part        5.2633770 magnetization       1.3109736

 Broyden mixing:
  rms(total) = 0.73839E+00    rms(broyden)= 0.73831E+00
  rms(prec ) = 0.77630E+00
  weight for this iteration     100.00

 eigenvalues of (default mixing * dielectric matrix)
  average eigenvalue GAMMA=   0.7230
  1.9880  1.9880  0.7995  0.7995  0.7953  0.6226  0.6226  0.4463  0.4385  0.4385
  0.1285  0.1729  0.1589

 Free energy of the ion-electron system (eV)
  ---------------------------------------------------
  alpha Z        PSCENC =        34.98872654
  Ewald energy   TEWEN  =     45863.76386082
  -Hartree energ DENC   =    -51250.93781072
  -exchange      EXHF   =         0.00000000
  -V(xc)+E(xc)   XCENC  =       520.63664658
  PAW double counting   =     15570.03792679   -15587.57139205
  entropy T*S    EENTRO =        -0.04700864
  eigenvalues    EBANDS =     -1927.22000683
  atomic energy  EATOM  =      6429.38789286
  Solvation  Ediel_sol  =        60.64944343
  ---------------------------------------------------
  free energy    TOTEN  =      -286.31172122 eV

  energy without entropy =     -286.26471258  energy(sigma->0) =     -286.28821690


--------------------------------------------------------------------------------------------------------




--------------------------------------- Iteration      1(  15)  ---------------------------------------


    POTLOK:  cpu time   43.4510: real time   43.5320
    SETDIJ:  cpu time    0.6317: real time    0.4303
    EDDIAG:  cpu time   19.2312: real time   10.4175
  RMM-DIIS:  cpu time   72.4512: real time   36.3402
    ORTHCH:  cpu time    0.8448: real time    0.4234
       DOS:  cpu time    0.0043: real time    0.0021
    CHARGE:  cpu time    4.0993: real time    3.7494
    MIXING:  cpu time    0.1791: real time    0.0897
    --------------------------------------------
      LOOP:  cpu time  140.8925: real time   94.9846

 eigenvalue-minimisations  : 10377
 total energy-change (2. order) : 0.1201075E-01  (-0.1969351E-03)
 number of electron     141.9999991 magnetization       1.7442620
 augmentation part        5.2222911 magnetization       0.8896311

 Broyden mixing:
  rms(total) = 0.41024E+00    rms(broyden)= 0.40999E+00
  rms(prec ) = 0.43115E+00
  weight for this iteration     100.00

 eigenvalues of (default mixing * dielectric matrix)
  average eigenvalue GAMMA=   0.7418
  2.4804  1.3279  0.9158  0.9158  0.7515  0.7515  0.7159  0.7159  0.4506  0.4469
  0.4469  0.1285  0.1654  0.1729

 Free energy of the ion-electron system (eV)
  ---------------------------------------------------
  alpha Z        PSCENC =        34.98872654
  Ewald energy   TEWEN  =     45863.76386082
  -Hartree energ DENC   =    -51247.87158145
  -exchange      EXHF   =         0.00000000
  -V(xc)+E(xc)   XCENC  =       520.61611261
  PAW double counting   =     15570.33671634   -15587.87130183
  entropy T*S    EENTRO =        -0.04772230
  eigenvalues    EBANDS =     -1927.74394734
  atomic energy  EATOM  =      6429.38789286
  Solvation  Ediel_sol  =        58.14153329
  ---------------------------------------------------
  free energy    TOTEN  =      -286.29971048 eV

  energy without entropy =     -286.25198817  energy(sigma->0) =     -286.27584933


--------------------------------------------------------------------------------------------------------




--------------------------------------- Iteration      1(  16)  ---------------------------------------


    POTLOK:  cpu time   43.9304: real time   44.0160
    SETDIJ:  cpu time    0.5967: real time    0.3951
    EDDIAG:  cpu time   19.2607: real time   10.4432
  RMM-DIIS:  cpu time   74.2180: real time   37.3155
    ORTHCH:  cpu time    0.8417: real time    0.4223
       DOS:  cpu time    0.0045: real time    0.0022
    CHARGE:  cpu time    4.0811: real time    3.7331
    MIXING:  cpu time    0.1888: real time    0.0952
    --------------------------------------------
      LOOP:  cpu time  143.1218: real time   96.4227

 eigenvalue-minimisations  : 10615
 total energy-change (2. order) :-0.1659797E-01  (-0.2777032E-03)
 number of electron     141.9999991 magnetization       1.7304183
 augmentation part        5.1931293 magnetization       0.6285417

 Broyden mixing:
  rms(total) = 0.17681E+00    rms(broyden)= 0.17644E+00
  rms(prec ) = 0.18557E+00
  weight for this iteration     100.00

 eigenvalues of (default mixing * dielectric matrix)
  average eigenvalue GAMMA=   0.8178
  3.0973  1.3161  1.3161  0.8708  0.8708  0.9342  0.7100  0.7100  0.6258  0.4521
  0.4481  0.4481  0.1285  0.1659  0.1726

 Free energy of the ion-electron system (eV)
  ---------------------------------------------------
  alpha Z        PSCENC =        34.98872654
  Ewald energy   TEWEN  =     45863.76386082
  -Hartree energ DENC   =    -51243.31520858
  -exchange      EXHF   =         0.00000000
  -V(xc)+E(xc)   XCENC  =       520.58921198
  PAW double counting   =     15571.79027665   -15589.32828756
  entropy T*S    EENTRO =        -0.04045616
  eigenvalues    EBANDS =     -1928.29324749
  atomic energy  EATOM  =      6429.38789286
  Solvation  Ediel_sol  =        54.14092250
  ---------------------------------------------------
  free energy    TOTEN  =      -286.31630845 eV

  energy without entropy =     -286.27585229  energy(sigma->0) =     -286.29608037


--------------------------------------------------------------------------------------------------------




--------------------------------------- Iteration      1(  17)  ---------------------------------------


    POTLOK:  cpu time   43.3614: real time   43.4466
    SETDIJ:  cpu time    0.4161: real time    0.2141
    EDDIAG:  cpu time   19.2797: real time   10.4545
  RMM-DIIS:  cpu time   73.8861: real time   37.1226
    ORTHCH:  cpu time    0.8387: real time    0.4207
       DOS:  cpu time    0.0058: real time    0.0029
    CHARGE:  cpu time    4.1026: real time    3.7535
    MIXING:  cpu time    0.1868: real time    0.0950
    --------------------------------------------
      LOOP:  cpu time  142.0772: real time   95.5099

 eigenvalue-minimisations  : 10560
 total energy-change (2. order) :-0.1407642E-01  (-0.2119376E-03)
 number of electron     141.9999990 magnetization       1.7197393
 augmentation part        5.1738864 magnetization       0.4751021

 Broyden mixing:
  rms(total) = 0.24803E-01    rms(broyden)= 0.23509E-01
  rms(prec ) = 0.24724E-01
  weight for this iteration     100.00

 eigenvalues of (default mixing * dielectric matrix)
  average eigenvalue GAMMA=   0.9068
  3.7386  1.6953  1.6953  0.9512  0.9512  0.8799  0.7089  0.7089  0.6826  0.6826
  0.4511  0.4480  0.4480  0.1285  0.1659  0.1727

 Free energy of the ion-electron system (eV)
  ---------------------------------------------------
  alpha Z        PSCENC =        34.98872654
  Ewald energy   TEWEN  =     45863.76386082
  -Hartree energ DENC   =    -51239.20599124
  -exchange      EXHF   =         0.00000000
  -V(xc)+E(xc)   XCENC  =       520.57326622
  PAW double counting   =     15572.89633106   -15590.43792272
  entropy T*S    EENTRO =        -0.03200669
  eigenvalues    EBANDS =     -1928.73548048
  atomic energy  EATOM  =      6429.38789286
  Solvation  Ediel_sol  =        50.47093877
  ---------------------------------------------------
  free energy    TOTEN  =      -286.33038487 eV

  energy without entropy =     -286.29837818  energy(sigma->0) =     -286.31438152


--------------------------------------------------------------------------------------------------------




--------------------------------------- Iteration      1(  18)  ---------------------------------------


    POTLOK:  cpu time   42.6325: real time   42.7163
    SETDIJ:  cpu time    0.7066: real time    0.5053
    EDDIAG:  cpu time   19.2082: real time   10.4281
  RMM-DIIS:  cpu time   74.0009: real time   37.1137
    ORTHCH:  cpu time    0.8419: real time    0.4220
       DOS:  cpu time    0.0042: real time    0.0021
    CHARGE:  cpu time    4.0864: real time    3.7667
    MIXING:  cpu time    0.1957: real time    0.1017
    --------------------------------------------
      LOOP:  cpu time  141.6764: real time   95.0558

 eigenvalue-minimisations  : 10589
 total energy-change (2. order) :-0.6551727E-02  (-0.1040246E-03)
 number of electron     141.9999990 magnetization       1.7112138
 augmentation part        5.1671298 magnetization       0.4178687

 Broyden mixing:
  rms(total) = 0.35459E-01    rms(broyden)= 0.35281E-01
  rms(prec ) = 0.36934E-01
  weight for this iteration     100.00

 eigenvalues of (default mixing * dielectric matrix)
  average eigenvalue GAMMA=   0.9924
  3.2332  3.2332  1.5851  1.5851  0.8946  0.8946  0.7305  0.7305  0.7674  0.7674
  0.4478  0.4478  0.6341  0.4515  0.1285  0.1659  0.1727

 Free energy of the ion-electron system (eV)
  ---------------------------------------------------
  alpha Z        PSCENC =        34.98872654
  Ewald energy   TEWEN  =     45863.76386082
  -Hartree energ DENC   =    -51236.59078273
  -exchange      EXHF   =         0.00000000
  -V(xc)+E(xc)   XCENC  =       520.56591929
  PAW double counting   =     15573.80209303   -15591.34729849
  entropy T*S    EENTRO =        -0.02833132
  eigenvalues    EBANDS =     -1928.90674201
  atomic energy  EATOM  =      6429.38789286
  Solvation  Ediel_sol  =        48.02772543
  ---------------------------------------------------
  free energy    TOTEN  =      -286.33693659 eV

  energy without entropy =     -286.30860527  energy(sigma->0) =     -286.32277093


--------------------------------------------------------------------------------------------------------




--------------------------------------- Iteration      1(  19)  ---------------------------------------


    POTLOK:  cpu time   41.3159: real time   41.3957
    SETDIJ:  cpu time    0.6011: real time    0.3995
    EDDIAG:  cpu time   19.2594: real time   10.4354
  RMM-DIIS:  cpu time   61.0245: real time   35.8132
    ORTHCH:  cpu time    0.8426: real time    0.4223
       DOS:  cpu time    0.0043: real time    0.0021
    CHARGE:  cpu time    4.0978: real time    3.7477
    MIXING:  cpu time    0.1939: real time    0.1020
    --------------------------------------------
      LOOP:  cpu time  127.3395: real time   92.3180

 eigenvalue-minimisations  :  9168
 total energy-change (2. order) :-0.2968000E-02  (-0.3759456E-04)
 number of electron     141.9999990 magnetization       1.7071196
 augmentation part        5.1743572 magnetization       0.4733081

 Broyden mixing:
  rms(total) = 0.26155E-01    rms(broyden)= 0.26109E-01
  rms(prec ) = 0.27489E-01
  weight for this iteration     100.00

 eigenvalues of (default mixing * dielectric matrix)
  average eigenvalue GAMMA=   1.0572
  3.9232  3.9232  1.5827  1.5827  0.9490  0.9490  0.7284  0.7284  0.7742  0.7742
  0.4478  0.4478  0.6504  0.6504  0.4515  0.1285  0.1659  0.1727

 Free energy of the ion-electron system (eV)
  ---------------------------------------------------
  alpha Z        PSCENC =        34.98872654
  Ewald energy   TEWEN  =     45863.76386082
  -Hartree energ DENC   =    -51235.19053239
[...]
  0.000  -0.000  -0.000  -0.385  -0.000   0.000   0.095   0.000
 -0.010   0.004  -0.005  -0.000  -1.479   0.002   0.000   0.461
 total augmentation occupancy for first ion, spin component:           2
  0.000  -0.000   0.000   0.000   0.000  -0.000  -0.000  -0.000
 -0.000   0.000  -0.000  -0.000  -0.000   0.000   0.000   0.000
  0.000  -0.000   0.000   0.000   0.000  -0.000  -0.000   0.000
  0.000  -0.000   0.000  -0.000   0.000  -0.000  -0.000  -0.000
  0.000  -0.000   0.000   0.000   0.000   0.000  -0.000  -0.000
 -0.000   0.000  -0.000  -0.000   0.000   0.000   0.000  -0.000
 -0.000   0.000  -0.000  -0.000  -0.000   0.000   0.000   0.000
 -0.000   0.000   0.000  -0.000  -0.000  -0.000   0.000   0.000


------------------------ aborting loop because EDIFF is reached ----------------------------------------


 


 total charge     
 
# of ion       s       p       d       tot
------------------------------------------
    1        0.739   1.413   0.000   2.152
    2        0.731   1.409   0.000   2.141
    3        0.731   1.409   0.000   2.141
    4        0.739   1.413   0.000   2.152
    5        0.732   1.390   0.000   2.122
    6        0.731   1.409   0.000   2.141
    7        0.731   1.409   0.000   2.141
    8        0.739   1.413   0.000   2.151
    9        0.739   1.413   0.000   2.151
   10        0.731   1.409   0.000   2.141
   11        0.731   1.409   0.000   2.141
   12        0.732   1.390   0.000   2.122
   13        0.739   1.413   0.000   2.151
   14        0.732   1.390   0.000   2.122
   15        0.739   1.413   0.000   2.152
   16        1.140   2.641   0.000   3.782
   17        1.219   2.776   0.000   3.996
   18        1.222   2.799   0.000   4.021
   19        1.219   2.776   0.000   3.996
   20        1.221   2.784   0.000   4.005
   21        1.219   2.776   0.000   3.996
   22        1.205   2.696   0.000   3.901
   23        1.205   2.696   0.000   3.901
   24        1.219   2.776   0.000   3.996
   25        1.222   2.788   0.000   4.010
   26        1.205   2.696   0.000   3.901
   27        1.222   2.799   0.000   4.021
   28        1.222   2.788   0.000   4.010
   29        1.222   2.788   0.000   4.010
   30        1.219   2.776   0.000   3.996
   31        1.219   2.776   0.000   3.996
   32        1.222   2.799   0.000   4.021
   33        1.595   3.291   0.000   4.886
   34        1.595   3.291   0.000   4.886
--------------------------------------------------
tot         34.833  74.617   0.000 109.450
 


 magnetization (x)
 
# of ion       s       p       d       tot
------------------------------------------
    1        0.000  -0.000   0.000   0.000
    2        0.000  -0.000   0.000   0.000
    3       -0.000  -0.000   0.000  -0.000
    4        0.000   0.000   0.000   0.000
    5       -0.000  -0.000   0.000  -0.000
    6       -0.000  -0.000   0.000  -0.000
    7       -0.000  -0.000   0.000  -0.000
    8       -0.000   0.000   0.000  -0.000
    9        0.000   0.000   0.000   0.000
   10       -0.000  -0.000   0.000  -0.000
   11        0.000  -0.000   0.000  -0.000
   12       -0.000  -0.000   0.000  -0.000
   13       -0.000  -0.000   0.000  -0.000
   14       -0.000  -0.000   0.000  -0.000
   15        0.000   0.000   0.000   0.000
   16       -0.000   0.000   0.000   0.000
   17        0.000   0.000   0.000   0.000
   18       -0.000   0.000   0.000   0.000
   19        0.000   0.000   0.000   0.000
   20       -0.000   0.000   0.000   0.000
   21        0.000   0.000   0.000   0.000
   22        0.000   0.000   0.000   0.000
   23       -0.000  -0.000   0.000  -0.000
   24        0.000   0.000   0.000   0.000
   25        0.000   0.000   0.000   0.000
   26       -0.000   0.000   0.000   0.000
   27       -0.000   0.000   0.000   0.000
   28        0.000   0.000   0.000   0.000
   29        0.000   0.000   0.000   0.000
   30        0.000   0.000   0.000   0.000
   31        0.000   0.000   0.000   0.000
   32       -0.000  -0.000   0.000  -0.000
   33        0.008   0.632   0.000   0.640
   34        0.008   0.632   0.000   0.640
--------------------------------------------------
tot          0.017   1.263   0.000   1.280
 
    CHARGE:  cpu time    4.0142: real time    3.7389
    FORLOC:  cpu time    0.2993: real time    0.2070
    FORNL :  cpu time   31.6790: real time   15.9420
    STRESS:  cpu time   95.7917: real time   48.0234
    FORCOR:  cpu time    2.0248: real time    1.8367
    FORHAR:  cpu time    0.3605: real time    0.3614
    MIXING:  cpu time    0.0880: real time    0.0882
    OFIELD:  cpu time    0.0001: real time    0.0001

  FORCE on cell =-STRESS in cart. coord.  units (eV):
  Direction    XX          YY          ZZ          XY          YZ          ZX
  --------------------------------------------------------------------------------------
  Alpha Z    34.98873    34.98873    34.98873
  Ewald   50514.26856 50112.17112-54770.30645     0.04974   -11.20198    -0.18210
  Hartree 50263.32559 50065.47033-49120.10586     0.04159   -10.77396    -0.17269
  E(xc)    -572.80104  -573.86941  -589.58130     0.00004    -0.00011    -0.00001
  Local  ************************102027.85374    -0.08991    21.99436     0.35459
  n-local  -293.59475  -293.07894  -305.60427    -0.00029     0.00271    -0.00070
  augment    27.78364    30.98017    36.16559    -0.00011    -0.00106    -0.00001
  Kinetic  2313.37255  2353.91253  2685.63736    -0.00144    -0.00913     0.00019
  Fock        0.00000     0.00000     0.00000     0.00000     0.00000     0.00000
  -------------------------------------------------------------------------------------
  Total      -7.81421    -7.96258    -0.95246    -0.00038     0.01083    -0.00073
  in kB      -4.07710    -4.15452    -0.49695    -0.00020     0.00565    -0.00038
  external pressure =       -2.91 kB  Pullay stress =        0.00 kB


 VOLUME and BASIS-vectors are now :
 -----------------------------------------------------------------------------
  energy-cutoff  :      550.00
  volume of cell :     3070.74
      direct lattice vectors                 reciprocal lattice vectors
     5.024366704 -8.702497373  0.000000000     0.099515029 -0.057454772  0.000000000
     5.024366704  8.702497373  0.000000000     0.099515029  0.057454772  0.000000000
     0.000000000  0.000000000 35.114664386     0.000000000  0.000000000  0.028478131

  length of vectors
    10.048767154 10.048767154 35.114664386     0.114909929  0.114909929  0.028478131


 FORCES acting on ions
    electron-ion (+dipol)            ewald-force                    non-local-force                 convergence-correction
 -----------------------------------------------------------------------------------------------
   0.623E+01 0.332E+01 0.268E+02   -.626E+01 -.334E+01 -.260E+02   0.676E-01 0.391E-01 -.446E-03   -.789E-03 -.479E-03 0.264E-02
   0.173E+02 0.312E+01 0.309E+02   -.185E+02 -.246E+01 -.299E+02   0.114E+01 -.745E+00 -.222E-02   -.485E-02 0.105E-03 0.308E-02
   0.339E+01 -.175E+02 0.283E+02   -.461E+01 0.181E+02 -.274E+02   0.121E+01 -.612E+00 -.197E-02   -.276E-02 0.405E-02 0.277E-02
   0.104E-01 -.455E+01 0.249E+02   -.101E-01 0.466E+01 -.241E+02   0.502E-06 -.785E-01 -.387E-03   0.834E-06 0.117E-02 0.241E-02
   0.440E+01 -.855E-01 0.261E+02   -.415E+01 0.147E-01 -.253E+02   -.220E+00 0.126E+00 -.181E-03   0.459E-03 -.296E-04 0.255E-02
   0.140E+02 0.122E+02 0.341E+02   -.139E+02 -.136E+02 -.330E+02   -.772E-01 0.136E+01 -.219E-02   -.209E-02 -.436E-02 0.343E-02
   -.342E+01 -.175E+02 0.283E+02   0.463E+01 0.181E+02 -.274E+02   -.121E+01 -.612E+00 -.199E-02   0.275E-02 0.405E-02 0.277E-02
   -.367E+01 -.204E+01 0.253E+02   0.390E+01 0.217E+01 -.245E+02   -.196E+00 -.113E+00 -.529E-03   0.165E-02 0.956E-03 0.247E-02
   -.136E-01 0.695E+01 0.276E+02   0.132E-01 -.713E+01 -.267E+02   0.127E-05 0.226E+00 -.527E-03   -.141E-05 -.166E-02 0.271E-02
   -.141E+02 0.122E+02 0.340E+02   0.140E+02 -.135E+02 -.330E+02   0.772E-01 0.136E+01 -.226E-02   0.209E-02 -.436E-02 0.342E-02
   -.173E+02 0.315E+01 0.308E+02   0.185E+02 -.248E+01 -.298E+02   -.114E+01 -.745E+00 -.231E-02   0.485E-02 0.105E-03 0.307E-02
   0.394E-01 0.284E+01 0.258E+02   -.381E-01 -.261E+01 -.250E+02   0.228E-05 -.253E+00 -.186E-03   0.390E-05 0.320E-03 0.253E-02
   0.370E+01 -.207E+01 0.254E+02   -.392E+01 0.220E+01 -.246E+02   0.196E+00 -.113E+00 -.540E-03   -.165E-02 0.953E-03 0.247E-02
   -.440E+01 -.131E+00 0.261E+02   0.414E+01 0.585E-01 -.253E+02   0.220E+00 0.126E+00 -.177E-03   -.458E-03 -.339E-04 0.254E-02
   -.617E+01 0.330E+01 0.268E+02   0.620E+01 -.332E+01 -.259E+02   -.676E-01 0.391E-01 -.434E-03   0.794E-03 -.481E-03 0.263E-02
   -.878E-01 -.554E+01 0.620E+02   0.857E-01 0.537E+01 -.600E+02   -.289E-03 0.502E-03 -.133E+00   -.403E-05 -.490E-03 0.623E-02
   0.132E+02 0.787E+00 0.461E+02   -.137E+02 -.103E+01 -.446E+02   0.630E+00 0.188E+00 0.152E-02   -.278E-02 -.617E-03 0.461E-02
   0.206E+02 -.139E+02 0.470E+02   -.219E+02 0.146E+02 -.455E+02   0.127E+01 -.732E+00 0.576E-02   -.485E-02 0.258E-02 0.470E-02
   0.268E+01 -.946E+01 0.427E+02   -.285E+01 0.102E+02 -.414E+02   0.153E+00 -.640E+00 0.311E-03   -.116E-02 0.295E-02 0.419E-02
   0.478E-01 0.154E+01 0.421E+02   -.463E-01 -.148E+01 -.408E+02   -.651E-05 -.380E-03 0.210E-02   0.478E-05 0.167E-03 0.413E-02
   0.106E+02 0.110E+02 0.481E+02   -.110E+02 -.114E+02 -.465E+02   0.477E+00 0.451E+00 0.276E-02   -.161E-02 -.207E-02 0.482E-02
   0.705E+02 0.359E+02 0.615E+02   -.814E+02 -.423E+02 -.596E+02   0.110E+02 0.636E+01 0.411E-01   -.126E-01 -.774E-02 0.616E-02
   -.548E-01 -.830E+02 0.538E+02   0.533E-01 0.955E+02 -.522E+02   -.275E-05 -.127E+02 0.324E-01   -.471E-05 0.144E-01 0.524E-02
   -.268E+01 -.941E+01 0.427E+02   0.285E+01 0.101E+02 -.414E+02   -.153E+00 -.640E+00 0.298E-03   0.116E-02 0.295E-02 0.419E-02
   0.436E+00 0.331E+01 0.432E+02   -.368E+00 -.325E+01 -.419E+02   -.221E-01 0.122E-01 0.108E-02   0.707E-03 -.746E-04 0.424E-02
   -.706E+02 0.359E+02 0.614E+02   0.815E+02 -.423E+02 -.595E+02   -.110E+02 0.636E+01 0.415E-01   0.126E-01 -.774E-02 0.614E-02
   -.206E+02 -.138E+02 0.469E+02   0.218E+02 0.145E+02 -.454E+02   -.127E+01 -.732E+00 0.558E-02   0.485E-02 0.258E-02 0.469E-02
   0.428E-01 -.120E+01 0.419E+02   -.414E-01 0.122E+01 -.405E+02   -.260E-05 -.246E-01 0.698E-03   0.462E-05 0.635E-03 0.411E-02
   -.441E+00 0.326E+01 0.432E+02   0.373E+00 -.319E+01 -.419E+02   0.221E-01 0.122E-01 0.108E-02   -.708E-03 -.800E-04 0.424E-02
   -.106E+02 0.110E+02 0.479E+02   0.109E+02 -.113E+02 -.464E+02   -.477E+00 0.451E+00 0.260E-02   0.161E-02 -.208E-02 0.481E-02
   -.131E+02 0.790E+00 0.459E+02   0.136E+02 -.103E+01 -.445E+02   -.630E+00 0.188E+00 0.134E-02   0.279E-02 -.617E-03 0.459E-02
   -.604E-01 0.270E+02 0.551E+02   0.588E-01 -.284E+02 -.534E+02   -.180E-04 0.147E+01 0.822E-02   -.562E-05 -.527E-02 0.562E-02
   0.269E+03 0.125E+01 -.605E+03   -.314E+03 -.127E+01 0.607E+03   0.447E+02 0.160E-02 -.114E-01   0.181E-01 -.632E-03 0.723E-02
   -.269E+03 0.124E+01 -.605E+03   0.314E+03 -.126E+01 0.607E+03   -.447E+02 0.421E-03 -.113E-01   -.181E-01 -.591E-03 0.722E-02
 -----------------------------------------------------------------------------------------------
   0.530E-04 -.225E-02 -.116E+00   0.114E-12 -.240E-13 0.227E-12   -.227E-04 0.403E-02 -.234E-01   -.410E-05 -.144E-02 0.139E+00
 
 
 POSITION                                       TOTAL-FORCE (eV/Angst)
 -----------------------------------------------------------------------------------
      1.25719     -0.72458     17.55753         0.002833      0.001643      0.000060
      2.52374      1.46208     17.55770        -0.001106      0.003897     -0.003068
      3.76393      3.61018     17.55762        -0.003764     -0.001058     -0.002322
      5.02437      5.80040     17.55751         0.000001     -0.003404      0.000063
      2.51237     -2.90092     17.55750         0.000128     -0.000238      0.000364
      3.78417     -0.72103     17.55782         0.002860     -0.003078     -0.003357
      6.28481      3.61018     17.55762         0.003768     -0.001061     -0.002318
      3.77037     -5.07524     17.55746         0.008725      0.004945     -0.000027
      5.02437     -2.90322     17.55751         0.000000     -0.010219      0.000173
      6.26457     -0.72103     17.55781        -0.002850     -0.003076     -0.003394
      7.52499      1.46208     17.55769         0.001107      0.003892     -0.003084
      5.02437     -7.25189     17.55748        -0.000001      0.000303      0.000433
      6.27837     -5.07524     17.55746        -0.008730      0.004948     -0.000035
      7.53637     -2.90092     17.55750        -0.000127     -0.000237      0.000364
      8.79155     -0.72458     17.55754        -0.002829      0.001642      0.000054
      5.02437      1.45040     17.55816         0.000005      0.000117      0.008987
      1.26974      0.72494     17.55736         0.007319      0.003996      0.000707
      2.50973      2.90224     17.55734         0.004571     -0.002577      0.001998
      3.77532      5.06476     17.55737         0.000287     -0.008221      0.000343
      5.02437      7.25207     17.55730         0.000003      0.000042      0.000264
      2.51879     -1.43846     17.55737         0.007011      0.004287      0.001025
      3.80157      0.74443     17.55680        -0.003516     -0.001872      0.001757
      5.02437      2.86239     17.55690         0.000004      0.004257      0.000290
      6.27342      5.06476     17.55737        -0.000286     -0.008224      0.000339
      3.76688     -3.62522     17.55728         0.002330     -0.001545      0.000141
      6.24718      0.74442     17.55677         0.003527     -0.001874      0.001633
      7.53901      2.90224     17.55734        -0.004571     -0.002582      0.001994
      5.02437     -5.80329     17.55728        -0.000001      0.002770      0.000096
      6.28186     -3.62522     17.55728        -0.002330     -0.001544      0.000135
      7.52995     -1.43846     17.55737        -0.007006      0.004286      0.001003
      8.77900      0.72494     17.55736        -0.007317      0.003993      0.000675
      5.02437     -1.45323     17.55739         0.000004      0.005237      0.002969
      4.36984      0.59266     21.98642        -0.006935     -0.000474     -0.003826
      5.64957      0.59270     21.98642         0.006886      0.001028     -0.004436
 -----------------------------------------------------------------------------------
    total drift:                                0.000026      0.000328     -0.000840


--------------------------------------------------------------------------------------------------------



  FREE ENERGIE OF THE ION-ELECTRON SYSTEM (eV)
  ---------------------------------------------------
  free  energy   TOTEN  =      -286.37938506 eV

  energy  without entropy=     -286.34497404  energy(sigma->0) =     -286.36217955
 
 d Force = 0.2328539E-04[-0.549E-04, 0.101E-03]  d Energy = 0.1057647E-03-0.825E-04
 d Force = 0.1894837E+00[ 0.189E+00, 0.190E+00]  d Ewald  = 0.1894838E+00-0.421E-07


--------------------------------------------------------------------------------------------------------


    POTLOK:  cpu time   32.8247: real time   32.6956


--------------------------------------------------------------------------------------------------------




--------------------------------------------------------------------------------------------------------


  
 reached required accuracy - stopping structural energy minimisation
 writing wavefunctions
     LOOP+:  cpu time 2202.4739: real time 5303.9501
    4ORBIT:  cpu time    0.0000: real time    0.0000
 


 total charge     
 
# of ion       s       p       d       tot
------------------------------------------
    1        0.739   1.413   0.000   2.152
    2        0.731   1.409   0.000   2.141
    3        0.731   1.409   0.000   2.141
    4        0.739   1.413   0.000   2.152
    5        0.732   1.390   0.000   2.122
    6        0.731   1.409   0.000   2.141
    7        0.731   1.409   0.000   2.141
    8        0.739   1.413   0.000   2.151
    9        0.739   1.413   0.000   2.151
   10        0.731   1.409   0.000   2.141
   11        0.731   1.409   0.000   2.141
   12        0.732   1.390   0.000   2.122
   13        0.739   1.413   0.000   2.151
   14        0.732   1.390   0.000   2.122
   15        0.739   1.413   0.000   2.152
   16        1.140   2.641   0.000   3.782
   17        1.219   2.776   0.000   3.996
   18        1.222   2.799   0.000   4.021
   19        1.219   2.776   0.000   3.996
   20        1.221   2.784   0.000   4.005
   21        1.219   2.776   0.000   3.996
   22        1.205   2.696   0.000   3.901
   23        1.205   2.696   0.000   3.901
   24        1.219   2.776   0.000   3.996
   25        1.222   2.788   0.000   4.010
   26        1.205   2.696   0.000   3.901
   27        1.222   2.799   0.000   4.021
   28        1.222   2.788   0.000   4.010
   29        1.222   2.788   0.000   4.010
   30        1.219   2.776   0.000   3.996
   31        1.219   2.776   0.000   3.996
   32        1.222   2.799   0.000   4.021
   33        1.595   3.291   0.000   4.886
   34        1.595   3.291   0.000   4.886
--------------------------------------------------
tot         34.833  74.617   0.000 109.450
 


 magnetization (x)
 
# of ion       s       p       d       tot
------------------------------------------
    1        0.000  -0.000   0.000   0.000
    2        0.000  -0.000   0.000   0.000
    3       -0.000  -0.000   0.000  -0.000
    4        0.000   0.000   0.000   0.000
    5       -0.000  -0.000   0.000  -0.000
    6       -0.000  -0.000   0.000  -0.000
    7       -0.000  -0.000   0.000  -0.000
    8       -0.000   0.000   0.000  -0.000
    9        0.000   0.000   0.000   0.000
   10       -0.000  -0.000   0.000  -0.000
   11        0.000  -0.000   0.000  -0.000
   12       -0.000  -0.000   0.000  -0.000
   13       -0.000  -0.000   0.000  -0.000
   14       -0.000  -0.000   0.000  -0.000
   15        0.000   0.000   0.000   0.000
   16       -0.000   0.000   0.000   0.000
   17        0.000   0.000   0.000   0.000
   18       -0.000   0.000   0.000   0.000
   19        0.000   0.000   0.000   0.000
   20       -0.000   0.000   0.000   0.000
   21        0.000   0.000   0.000   0.000
   22        0.000   0.000   0.000   0.000
   23       -0.000  -0.000   0.000  -0.000
   24        0.000   0.000   0.000   0.000
   25        0.000   0.000   0.000   0.000
   26       -0.000   0.000   0.000   0.000
   27       -0.000   0.000   0.000   0.000
   28        0.000   0.000   0.000   0.000
   29        0.000   0.000   0.000   0.000
   30        0.000   0.000   0.000   0.000
   31        0.000   0.000   0.000   0.000
   32       -0.000  -0.000   0.000  -0.000
   33        0.008   0.632   0.000   0.640
   34        0.008   0.632   0.000   0.640
--------------------------------------------------
tot          0.017   1.263   0.000   1.280
 

 total amount of memory used by VASP MPI-rank0   873133. kBytes
=======================================================================

   base      :      30000. kBytes
   nonlr-proj:       8243. kBytes
   fftplans  :      57421. kBytes
   grid      :     153492. kBytes
   one-center:         73. kBytes
   wavefun   :     623904. kBytes
 
  
  
 General timing and accounting informations for this job:
 ========================================================
  
                  Total CPU time used (sec):    27056.412
                            User time (sec):    26311.365
                          System time (sec):      745.046
                         Elapsed time (sec):    26379.368
  
                   Maximum memory used (kb):     2034704.
                   Average memory used (kb):           0.
  
                          Minor page faults:      7422382
                          Major page faults:           33
                 Voluntary context switches:       201440
