 vasp.5.4.4.18Apr17-6-g9f103f2a35 (build May 01 2020 14:57:12) complex          
  
 executed on             LinuxIFC date 2020.09.22  01:27:58
 running on   48 total cores
 distrk:  each k-point on   48 cores,    1 groups
 distr:  one band on NCORES_PER_BAND=   1 cores,   48 groups


--------------------------------------------------------------------------------------------------------


 INCAR:
 POTCAR:    PAW_PBE B 06Sep2000                   
 POTCAR:    PAW_PBE N 08Apr2002                   
 POTCAR:    PAW_PBE C 08Apr2002                   
 POTCAR:    PAW_PBE F 08Apr2002                   
 POTCAR:    PAW_PBE O 08Apr2002                   

 ----------------------------------------------------------------------------- 
|                                                                             |
|           W    W    AA    RRRRR   N    N  II  N    N   GGGG   !!!           |
|           W    W   A  A   R    R  NN   N  II  NN   N  G    G  !!!           |
|           W    W  A    A  R    R  N N  N  II  N N  N  G       !!!           |
|           W WW W  AAAAAA  RRRRR   N  N N  II  N  N N  G  GGG   !            |
|           WW  WW  A    A  R   R   N   NN  II  N   NN  G    G                |
|           W    W  A    A  R    R  N    N  II  N    N   GGGG   !!!           |
|                                                                             |
|      For optimal performance we recommend to set                            |
|        NCORE= 4 - approx SQRT( number of cores)                             |
|      NCORE specifies how many cores store one orbital (NPAR=cpu/NCORE).     |
|      This setting can  greatly improve the performance of VASP for DFT.     |
|      The default,   NCORE=1            might be grossly inefficient         |
|      on modern multi-core architectures or massively parallel machines.     |
|      Do your own testing !!!!                                               |
|      Unfortunately you need to use the default for GW and RPA calculations. |
|      (for HF NCORE is supported but not extensively tested yet)             |
|                                                                             |
 ----------------------------------------------------------------------------- 

 POTCAR:    PAW_PBE B 06Sep2000                   
   VRHFIN =B: s2p1                                                              
   LEXCH  = PE                                                                  
   EATOM  =    71.1703 eV,    5.2309 Ry                                         
                                                                                
   TITEL  = PAW_PBE B 06Sep2000                                                 
   LULTRA =        F    use ultrasoft PP ?                                      
   IUNSCR =        1    unscreen: 0-lin 1-nonlin 2-no                           
   RPACOR =    1.200    partial core radius                                     
   POMASS =   10.811; ZVAL   =    3.000    mass and valenz                      
   RCORE  =    1.700    outmost cutoff radius                                   
   RWIGS  =    1.710; RWIGS  =    0.905    wigner-seitz radius (au A)           
   ENMAX  =  318.614; ENMIN  =  238.960 eV                                      
   ICORE  =        2    local potential                                         
   LCOR   =        T    correct aug charges                                     
   LPAW   =        T    paw PP                                                  
   EAUG   =  535.514                                                            
   DEXC   =    0.000                                                            
   RMAX   =    1.732    core radius for proj-oper                               
   RAUG   =    1.300    factor for augmentation sphere                          
   RDEP   =    1.757    radius for radial grids                                 
   RDEPT  =    1.436    core radius for aug-charge                              
                                                                                
   Atomic configuration                                                         
    4 entries                                                                   
     n  l   j            E        occ.                                          
     1  0  0.50      -180.5896   2.0000                                         
     2  0  0.50        -9.4431   2.0000                                         
     2  1  0.50        -3.6068   1.0000                                         
     3  2  1.50        -4.0817   0.0000                                         
   Description                                                                  
     l       E           TYP  RCUT    TYP  RCUT                                 
     0     -9.4430752     23  1.500                                             
     0      0.8675899     23  1.500                                             
     1     -3.6067955     23  1.700                                             
     1      6.1086146     23  1.700                                             
     2     -4.0817478      7  1.700                                             
  local pseudopotential read in
  partial core-charges read in
  partial kinetic energy density read in
  atomic valenz-charges read in
  non local Contribution for L=           0  read in
    real space projection operators read in
  non local Contribution for L=           0  read in
    real space projection operators read in
  non local Contribution for L=           1  read in
    real space projection operators read in
  non local Contribution for L=           1  read in
    real space projection operators read in
    PAW grid and wavefunctions read in
 
   number of l-projection  operators is LMAX  =           4
   number of lm-projection operators is LMMAX =           8
 
 POTCAR:    PAW_PBE N 08Apr2002                   
   VRHFIN =N: s2p3                                                              
   LEXCH  = PE                                                                  
   EATOM  =   264.5486 eV,   19.4438 Ry                                         
                                                                                
   TITEL  = PAW_PBE N 08Apr2002                                                 
   LULTRA =        F    use ultrasoft PP ?                                      
   IUNSCR =        1    unscreen: 0-lin 1-nonlin 2-no                           
   RPACOR =    1.200    partial core radius                                     
   POMASS =   14.001; ZVAL   =    5.000    mass and valenz                      
   RCORE  =    1.500    outmost cutoff radius                                   
   RWIGS  =    1.400; RWIGS  =    0.741    wigner-seitz radius (au A)           
   ENMAX  =  400.000; ENMIN  =  300.000 eV                                      
   ICORE  =        2    local potential                                         
   LCOR   =        T    correct aug charges                                     
   LPAW   =        T    paw PP                                                  
   EAUG   =  627.112                                                            
   DEXC   =    0.000                                                            
   RMAX   =    1.529    core radius for proj-oper                               
   RAUG   =    1.300    factor for augmentation sphere                          
   RDEP   =    1.514    radius for radial grids                                 
   RDEPT  =    1.338    core radius for aug-charge                              
                                                                                
   Atomic configuration                                                         
    4 entries                                                                   
     n  l   j            E        occ.                                          
     1  0  0.50      -384.7179   2.0000                                         
     2  0  0.50       -18.5828   2.0000                                         
     2  1  0.50        -7.0898   3.0000                                         
     3  2  1.50        -6.8029   0.0000                                         
   Description                                                                  
     l       E           TYP  RCUT    TYP  RCUT                                 
     0    -18.5828119     23  1.200                                             
     0    -13.5018863     23  1.200                                             
     1     -7.0897853     23  1.500                                             
     1      9.5240782     23  1.500                                             
     2     -6.8029130      7  1.500                                             
  local pseudopotential read in
  partial core-charges read in
  partial kinetic energy density read in
  atomic valenz-charges read in
  non local Contribution for L=           0  read in
    real space projection operators read in
  non local Contribution for L=           0  read in
    real space projection operators read in
  non local Contribution for L=           1  read in
    real space projection operators read in
  non local Contribution for L=           1  read in
    real space projection operators read in
    PAW grid and wavefunctions read in
 
   number of l-projection  operators is LMAX  =           4
   number of lm-projection operators is LMMAX =           8
 
 POTCAR:    PAW_PBE C 08Apr2002                   
   VRHFIN =C: s2p2                                                              
   LEXCH  = PE                                                                  
   EATOM  =   147.1560 eV,   10.8157 Ry                                         
                                                                                
   TITEL  = PAW_PBE C 08Apr2002                                                 
   LULTRA =        F    use ultrasoft PP ?                                      
   IUNSCR =        1    unscreen: 0-lin 1-nonlin 2-no                           
   RPACOR =    1.200    partial core radius                                     
   POMASS =   12.011; ZVAL   =    4.000    mass and valenz                      
   RCORE  =    1.500    outmost cutoff radius                                   
   RWIGS  =    1.630; RWIGS  =    0.863    wigner-seitz radius (au A)           
   ENMAX  =  400.000; ENMIN  =  300.000 eV                                      
   ICORE  =        2    local potential                                         
   LCOR   =        T    correct aug charges                                     
   LPAW   =        T    paw PP                                                  
   EAUG   =  644.873                                                            
   DEXC   =    0.000                                                            
   RMAX   =    1.529    core radius for proj-oper                               
   RAUG   =    1.300    factor for augmentation sphere                          
   RDEP   =    1.501    radius for radial grids                                 
   RDEPT  =    1.300    core radius for aug-charge                              
                                                                                
   Atomic configuration                                                         
    4 entries                                                                   
     n  l   j            E        occ.                                          
     1  0  0.50      -273.3789   2.0000                                         
     2  0  0.50       -13.7508   2.0000                                         
     2  1  0.50        -5.2854   2.0000                                         
     3  2  1.50        -5.4423   0.0000                                         
   Description                                                                  
     l       E           TYP  RCUT    TYP  RCUT                                 
     0    -13.7508458     23  1.200                                             
     0     -8.2022199     23  1.200                                             
     1     -5.2854383     23  1.500                                             
     1     34.0145650     23  1.500                                             
     2     -5.4423304      7  1.500                                             
  local pseudopotential read in
  partial core-charges read in
  partial kinetic energy density read in
  atomic valenz-charges read in
  non local Contribution for L=           0  read in
    real space projection operators read in
  non local Contribution for L=           0  read in
    real space projection operators read in
  non local Contribution for L=           1  read in
    real space projection operators read in
  non local Contribution for L=           1  read in
    real space projection operators read in
    PAW grid and wavefunctions read in
 
   number of l-projection  operators is LMAX  =           4
   number of lm-projection operators is LMMAX =           8
 
 POTCAR:    PAW_PBE F 08Apr2002                   
   VRHFIN =F: s2p5                                                              
   LEXCH  = PE                                                                  
   EATOM  =   659.6475 eV,   48.4827 Ry                                         
                                                                                
   TITEL  = PAW_PBE F 08Apr2002                                                 
   LULTRA =        F    use ultrasoft PP ?                                      
   IUNSCR =        1    unscreen: 0-lin 1-nonlin 2-no                           
   RPACOR =    1.200    partial core radius                                     
   POMASS =   18.998; ZVAL   =    7.000    mass and valenz                      
   RCORE  =    1.520    outmost cutoff radius                                   
   RWIGS  =    1.500; RWIGS  =    0.794    wigner-seitz radius (au A)           
   ENMAX  =  400.000; ENMIN  =  300.000 eV                                      
   ICORE  =        2    local potential                                         
   LCOR   =        T    correct aug charges                                     
   LPAW   =        T    paw PP                                                  
   EAUG   =  613.614                                                            
   RMAX   =    1.555    core radius for proj-oper                               
   RAUG   =    1.300    factor for augmentation sphere                          
   RDEP   =    1.539    radius for radial grids                                 
   RDEPT  =    1.299    core radius for aug-charge                              
                                                                                
   Atomic configuration                                                         
    4 entries                                                                   
     n  l   j            E        occ.                                          
     1  0  0.50      -663.3661   2.0000                                         
     2  0  0.50       -29.8995   2.0000                                         
     2  1  0.50       -11.1114   5.0000                                         
     3  2  1.50       -10.8847   0.0000                                         
   Description                                                                  
     l       E           TYP  RCUT    TYP  RCUT                                 
     0    -29.8995018     23  1.200                                             
     0     -9.5240782     23  1.200                                             
     1    -11.1113914     23  1.520                                             
     1      1.3605826     23  1.520                                             
     2    -10.8846608      7  1.500                                             
  local pseudopotential read in
  partial core-charges read in
  partial kinetic energy density read in
  atomic valenz-charges read in
  non local Contribution for L=           0  read in
    real space projection operators read in
  non local Contribution for L=           0  read in
    real space projection operators read in
  non local Contribution for L=           1  read in
    real space projection operators read in
  non local Contribution for L=           1  read in
    real space projection operators read in
    PAW grid and wavefunctions read in
 
   number of l-projection  operators is LMAX  =           4
   number of lm-projection operators is LMMAX =           8
 
 POTCAR:    PAW_PBE O 08Apr2002                   
   VRHFIN =O: s2p4                                                              
   LEXCH  = PE                                                                  
   EATOM  =   432.3788 eV,   31.7789 Ry                                         
                                                                                
   TITEL  = PAW_PBE O 08Apr2002                                                 
   LULTRA =        F    use ultrasoft PP ?                                      
   IUNSCR =        1    unscreen: 0-lin 1-nonlin 2-no                           
   RPACOR =    1.200    partial core radius                                     
   POMASS =   16.000; ZVAL   =    6.000    mass and valenz                      
   RCORE  =    1.520    outmost cutoff radius                                   
   RWIGS  =    1.550; RWIGS  =    0.820    wigner-seitz radius (au A)           
   ENMAX  =  400.000; ENMIN  =  300.000 eV                                      
   ICORE  =        2    local potential                                         
   LCOR   =        T    correct aug charges                                     
   LPAW   =        T    paw PP                                                  
   EAUG   =  605.392                                                            
   DEXC   =    0.000                                                            
   RMAX   =    1.553    core radius for proj-oper                               
   RAUG   =    1.300    factor for augmentation sphere                          
   RDEP   =    1.550    radius for radial grids                                 
   RDEPT  =    1.329    core radius for aug-charge                              
                                                                                
   Atomic configuration                                                         
    4 entries                                                                   
     n  l   j            E        occ.                                          
     1  0  0.50      -514.6923   2.0000                                         
     2  0  0.50       -23.9615   2.0000                                         
     2  1  0.50        -9.0305   4.0000                                         
     3  2  1.50        -9.5241   0.0000                                         
   Description                                                                  
     l       E           TYP  RCUT    TYP  RCUT                                 
     0    -23.9615318     23  1.200                                             
     0     -9.5240782     23  1.200                                             
     1     -9.0304911     23  1.520                                             
     1      8.1634956     23  1.520                                             
     2     -9.5240782      7  1.500                                             
  local pseudopotential read in
  partial core-charges read in
  partial kinetic energy density read in
  kinetic energy density of atom read in
  atomic valenz-charges read in
  non local Contribution for L=           0  read in
    real space projection operators read in
  non local Contribution for L=           0  read in
    real space projection operators read in
  non local Contribution for L=           1  read in
    real space projection operators read in
  non local Contribution for L=           1  read in
    real space projection operators read in
    PAW grid and wavefunctions read in
 
   number of l-projection  operators is LMAX  =           4
   number of lm-projection operators is LMMAX =           8
 
 Optimization of the real space projectors (new method)

 maximal supplied QI-value         = 22.11
 optimisation between [QCUT,QGAM] = [ 11.94, 23.88] = [ 39.92,159.67] Ry 
 Optimized for a Real-space Cutoff    1.18 Angstroem

   l    n(q)    QCUT    max X(q) W(low)/X(q) W(high)/X(q)  e(spline) 
   0      8    11.939    53.033    0.11E-03    0.34E-03    0.60E-07
   0      8    11.939    34.740    0.11E-03    0.34E-03    0.59E-07
   1      8    11.939    30.949    0.22E-03    0.20E-03    0.17E-06
   1      8    11.939    19.518    0.20E-03    0.18E-03    0.16E-06
 Optimization of the real space projectors (new method)

 maximal supplied QI-value         = 25.13
 optimisation between [QCUT,QGAM] = [ 11.81, 23.88] = [ 39.08,159.64] Ry 
 Optimized for a Real-space Cutoff    1.41 Angstroem

   l    n(q)    QCUT    max X(q) W(low)/X(q) W(high)/X(q)  e(spline) 
   0     10    11.813    79.467    0.48E-04    0.30E-04    0.67E-06
   0     10    11.813    66.151    0.47E-04    0.30E-04    0.67E-06
   1     10    11.813    20.169    0.11E-03    0.17E-03    0.11E-05
   1     10    11.813    14.454    0.11E-03    0.17E-03    0.11E-05
 Optimization of the real space projectors (new method)

 maximal supplied QI-value         = 25.13
 optimisation between [QCUT,QGAM] = [ 11.81, 23.88] = [ 39.08,159.64] Ry 
 Optimized for a Real-space Cutoff    1.18 Angstroem

   l    n(q)    QCUT    max X(q) W(low)/X(q) W(high)/X(q)  e(spline) 
   0      8    11.813   115.676    0.10E-03    0.16E-03    0.35E-06
   0      8    11.813    87.132    0.10E-03    0.16E-03    0.35E-06
   1      8    11.813     4.429    0.16E-03    0.13E-04    0.22E-06
   1      8    11.813     2.733    0.13E-03    0.10E-04    0.18E-06
 Optimization of the real space projectors (new method)

 maximal supplied QI-value         = 24.76
 optimisation between [QCUT,QGAM] = [ 11.88, 24.01] = [ 39.54,161.47] Ry 
 Optimized for a Real-space Cutoff    1.18 Angstroem

   l    n(q)    QCUT    max X(q) W(low)/X(q) W(high)/X(q)  e(spline) 
   0      8    11.883    14.049    0.56E-04    0.86E-04    0.22E-06
   0      8    11.883     8.945    0.81E-04    0.11E-03    0.30E-06
   1      8    11.883     7.086    0.16E-03    0.15E-04    0.31E-06
   1      8    11.883     6.747    0.15E-03    0.14E-04    0.28E-06
 Optimization of the real space projectors (new method)

 maximal supplied QI-value         = 24.76
 optimisation between [QCUT,QGAM] = [ 11.88, 24.01] = [ 39.54,161.47] Ry 
 Optimized for a Real-space Cutoff    1.18 Angstroem

   l    n(q)    QCUT    max X(q) W(low)/X(q) W(high)/X(q)  e(spline) 
   0      8    11.883    20.381    0.86E-04    0.11E-03    0.31E-06
   0      8    11.883    15.268    0.94E-04    0.12E-03    0.33E-06
   1      8    11.883     5.964    0.19E-03    0.18E-04    0.33E-06
   1      8    11.883     5.382    0.17E-03    0.20E-04    0.29E-06
  PAW_PBE B 06Sep2000                   :
 energy of atom  1       EATOM=  -71.1703
 kinetic energy error for atom=    0.0009 (will be added to EATOM!!)
  PAW_PBE N 08Apr2002                   :
 energy of atom  2       EATOM= -264.5486
 kinetic energy error for atom=    0.0116 (will be added to EATOM!!)
  PAW_PBE C 08Apr2002                   :
 energy of atom  3       EATOM= -147.1560
 kinetic energy error for atom=    0.0066 (will be added to EATOM!!)
  PAW_PBE F 08Apr2002                   :
 energy of atom  4       EATOM= -659.6475
 kinetic energy error for atom=    0.0296 (will be added to EATOM!!)
  PAW_PBE O 08Apr2002                   :
 energy of atom  5       EATOM= -432.3788
 kinetic energy error for atom=    0.0194 (will be added to EATOM!!)
 
 
 POSCAR: B N C F O                               
  positions in direct lattice
  velocities in cartesian coordinates

 METAGGA = SCAN     LMAXTAU =  6    LMIXTAU =  F

 exchange correlation table for  LEXCH =        8
   RHO(1)=    0.500       N(1)  =     2000
   RHO(2)=  100.500       N(2)  =     4000
 


--------------------------------------------------------------------------------------------------------


 ion  position               nearest neighbor table
   1  0.083  0.042  0.502-  72 1.45  65 1.45  73 1.45
   2  0.083  0.167  0.502-  65 1.45  66 1.45  74 1.45
   3  0.083  0.292  0.502-  67 1.45  66 1.45  75 1.45
   4  0.083  0.417  0.502-  68 1.45  67 1.45  76 1.45
   5  0.083  0.542  0.502-  69 1.45  68 1.45  77 1.45
   6  0.083  0.667  0.502-  70 1.45  78 1.45  69 1.45
   7  0.083  0.792  0.502-  70 1.45  71 1.45  79 1.45
   8  0.083  0.917  0.502-  71 1.45  72 1.45  80 1.45
   9  0.208  0.042  0.502-  80 1.45  81 1.45  73 1.45
  10  0.208  0.167  0.502-  73 1.45  82 1.45  74 1.45
  11  0.208  0.292  0.502-  74 1.45  75 1.45  83 1.45
  12  0.208  0.417  0.502-  76 1.45  84 1.45  75 1.45
  13  0.208  0.542  0.502-  77 1.45  85 1.45  76 1.45
  14  0.208  0.667  0.502-  78 1.45  86 1.45  77 1.45
  15  0.208  0.792  0.502-  79 1.45  87 1.45  78 1.45
  16  0.208  0.917  0.502-  79 1.45  88 1.45  80 1.45
  17  0.333  0.042  0.502-  88 1.45  89 1.45  81 1.45
  18  0.333  0.167  0.502-  81 1.45  90 1.45  82 1.45
  19  0.333  0.292  0.502-  91 1.45  82 1.45  83 1.45
  20  0.333  0.417  0.502-  92 1.45  84 1.45  83 1.45
  21  0.333  0.542  0.502-  93 1.45  85 1.45  84 1.45
  22  0.333  0.667  0.502-  86 1.45  94 1.45  85 1.45
  23  0.333  0.792  0.502-  87 1.45  95 1.45  86 1.45
  24  0.333  0.917  0.502-  87 1.45  96 1.45  88 1.45
  25  0.458  0.042  0.502-  96 1.45  97 1.45  89 1.45
  26  0.458  0.167  0.502-  89 1.45  98 1.45  90 1.45
  27  0.458  0.292  0.502-  99 1.45  90 1.45  91 1.45
  28  0.458  0.417  0.502- 100 1.45  92 1.45  91 1.45
  29  0.458  0.542  0.502- 101 1.45  93 1.45  92 1.45
  30  0.458  0.667  0.502-  94 1.45 102 1.45  93 1.45
  31  0.458  0.792  0.502-  95 1.45 103 1.45  94 1.45
  32  0.458  0.917  0.502- 104 1.45  95 1.45  96 1.45
  33  0.583  0.042  0.502- 105 1.45 104 1.45  97 1.45
  34  0.583  0.167  0.502-  97 1.45 106 1.45  98 1.45
  35  0.583  0.292  0.502- 107 1.45  98 1.45  99 1.45
  36  0.583  0.417  0.502- 108 1.45  99 1.45 100 1.45
  37  0.583  0.542  0.502- 109 1.45 101 1.45 100 1.45
  38  0.583  0.667  0.502- 102 1.45 110 1.45 101 1.45
  39  0.583  0.792  0.502- 103 1.45 111 1.45 102 1.45
  40  0.583  0.917  0.502- 112 1.45 103 1.45 104 1.45
  41  0.708  0.042  0.502- 105 1.45 112 1.45 113 1.45
  42  0.708  0.167  0.502- 105 1.45 106 1.45 114 1.45
  43  0.708  0.292  0.502- 106 1.45 107 1.45 115 1.45
  44  0.708  0.417  0.502- 107 1.45 108 1.45 116 1.45
  45  0.708  0.542  0.502- 109 1.45 117 1.45 108 1.45
  46  0.708  0.667  0.502- 110 1.45 118 1.45 109 1.45
  47  0.708  0.792  0.502- 119 1.45 111 1.45 110 1.45
  48  0.708  0.917  0.502- 112 1.45 111 1.45 120 1.45
  49  0.833  0.042  0.502- 113 1.45 120 1.45 121 1.45
  50  0.833  0.167  0.502- 114 1.45 113 1.45 122 1.45
  51  0.833  0.292  0.502- 115 1.45 114 1.45 123 1.45
  52  0.833  0.417  0.502- 116 1.45 115 1.45 124 1.45
  53  0.833  0.542  0.502- 117 1.45 116 1.45 125 1.45
  54  0.833  0.667  0.502- 118 1.45 117 1.45 126 1.45
  55  0.833  0.792  0.502- 119 1.45 118 1.45 127 1.45
  56  0.833  0.917  0.502- 120 1.45 119 1.45 128 1.45
  57  0.958  0.042  0.502- 121 1.45 128 1.45  65 1.45
  58  0.958  0.167  0.502- 122 1.45 121 1.45  66 1.45
  59  0.958  0.292  0.502- 123 1.45 122 1.45  67 1.45
  60  0.958  0.417  0.502- 124 1.45 123 1.45  68 1.45
  61  0.958  0.542  0.502- 125 1.45 124 1.45  69 1.45
  62  0.958  0.667  0.502- 126 1.45 125 1.45  70 1.45
  63  0.958  0.792  0.502- 127 1.45 126 1.45  71 1.45
  64  0.958  0.917  0.502- 127 1.45 128 1.45  72 1.45
  65  0.042  0.083  0.502-   2 1.45   1 1.45  57 1.45
  66  0.042  0.208  0.502-   2 1.45   3 1.45  58 1.45
  67  0.042  0.333  0.502-   3 1.45   4 1.45  59 1.45
  68  0.042  0.458  0.502-   4 1.45   5 1.45  60 1.45
  69  0.042  0.583  0.502-   5 1.45  61 1.45   6 1.45
  70  0.042  0.708  0.502-   6 1.45   7 1.45  62 1.45
  71  0.042  0.833  0.502-   8 1.45   7 1.45  63 1.45
  72  0.042  0.958  0.502-   1 1.45   8 1.45  64 1.45
  73  0.167  0.083  0.502-  10 1.45   9 1.45   1 1.45
  74  0.167  0.208  0.502-  11 1.45  10 1.45   2 1.45
  75  0.167  0.333  0.502-  11 1.45  12 1.45   3 1.45
  76  0.167  0.458  0.502-  12 1.45  13 1.45   4 1.45
  77  0.167  0.583  0.502-  13 1.45   5 1.45  14 1.45
  78  0.167  0.708  0.502-  14 1.45   6 1.45  15 1.45
  79  0.167  0.833  0.502-  16 1.45  15 1.45   7 1.45
  80  0.167  0.958  0.502-   9 1.45   8 1.45  16 1.45
  81  0.292  0.083  0.502-  18 1.45   9 1.45  17 1.45
  82  0.292  0.208  0.502-  19 1.45  10 1.45  18 1.45
  83  0.292  0.333  0.502-  11 1.45  20 1.45  19 1.45
  84  0.292  0.458  0.502-  20 1.45  12 1.45  21 1.45
  85  0.292  0.583  0.502-  21 1.45  13 1.45  22 1.45
  86  0.292  0.708  0.502-  22 1.45  14 1.45  23 1.45
  87  0.292  0.833  0.502-  23 1.45  24 1.45  15 1.45
  88  0.292  0.958  0.502-  17 1.45  16 1.45  24 1.45
  89  0.417  0.083  0.502-  26 1.45  17 1.45  25 1.45
  90  0.417  0.208  0.502-  18 1.45  27 1.45  26 1.45
  91  0.417  0.333  0.502-  19 1.45  28 1.45  27 1.45
  92  0.417  0.458  0.502-  20 1.45  28 1.45  29 1.45
  93  0.417  0.583  0.502-  21 1.45  29 1.45  30 1.45
  94  0.417  0.708  0.502-  22 1.45  30 1.45  31 1.45
  95  0.417  0.833  0.502-  31 1.45  23 1.45  32 1.45
  96  0.417  0.958  0.502-  25 1.45  24 1.45  32 1.45
  97  0.542  0.083  0.502-  34 1.45  25 1.45  33 1.45
  98  0.542  0.208  0.502-  26 1.45  35 1.45  34 1.45
  99  0.542  0.333  0.502-  27 1.45  36 1.45  35 1.45
 100  0.542  0.458  0.502-  28 1.45  36 1.45  37 1.45
 101  0.542  0.583  0.502-  29 1.45  37 1.45  38 1.45
 102  0.542  0.708  0.502-  30 1.45  38 1.45  39 1.45
 103  0.542  0.833  0.502-  39 1.45  31 1.45  40 1.45
 104  0.542  0.958  0.502-  32 1.45  33 1.45  40 1.45
 105  0.667  0.083  0.502-  41 1.45  42 1.45  33 1.45
 106  0.667  0.208  0.502-  42 1.45  43 1.45  34 1.45
 107  0.667  0.333  0.502-  35 1.45  43 1.45  44 1.45
 108  0.667  0.458  0.502-  36 1.45  44 1.45  45 1.45
 109  0.667  0.583  0.502-  37 1.45  45 1.45  46 1.45
 110  0.667  0.708  0.502-  38 1.45  46 1.45  47 1.45
 111  0.667  0.833  0.502-  39 1.45  48 1.45  47 1.45
 112  0.667  0.958  0.502-  40 1.45  48 1.45  41 1.45
 113  0.792  0.083  0.502-  49 1.45  50 1.45  41 1.45
 114  0.792  0.208  0.502-  50 1.45  51 1.45  42 1.45
 115  0.792  0.333  0.502-  51 1.45  52 1.45  43 1.45
 116  0.792  0.458  0.502-  52 1.45  53 1.45  44 1.45
 117  0.792  0.583  0.502-  53 1.45  54 1.45  45 1.45
 118  0.792  0.708  0.502-  54 1.45  55 1.45  46 1.45
 119  0.792  0.833  0.502-  55 1.45  56 1.45  47 1.45
 120  0.792  0.958  0.502-  56 1.45  49 1.45  48 1.45
 121  0.917  0.083  0.502-  57 1.45  58 1.45  49 1.45
 122  0.917  0.208  0.502-  58 1.45  59 1.45  50 1.45
 123  0.917  0.333  0.502-  59 1.45  60 1.45  51 1.45
 124  0.917  0.458  0.502-  60 1.45  61 1.45  52 1.45
 125  0.917  0.583  0.502-  61 1.45  62 1.45  53 1.45
 126  0.917  0.708  0.502-  62 1.45  63 1.45  54 1.45
 127  0.917  0.833  0.502-  64 1.45  63 1.45  55 1.45
 128  0.917  0.958  0.502-  57 1.45  64 1.45  56 1.45
 129  0.283  0.225  0.664- 132 1.34 134 1.34 133 1.35 130 1.51
 130  0.270  0.204  0.623- 136 1.33 135 1.33 129 1.51
 131  0.237  0.388  0.611- 137 1.16 138 1.16
 132  0.350  0.290  0.669- 129 1.34
 133  0.284  0.170  0.686- 129 1.35
 134  0.226  0.237  0.677- 129 1.34
 135  0.327  0.197  0.607- 130 1.33
 136  0.202  0.144  0.615- 130 1.33
 137  0.303  0.429  0.610- 131 1.16
 138  0.171  0.346  0.613- 131 1.16
 

IMPORTANT INFORMATION: All symmetrisations will be switched off!
NOSYMM: (Re-)initialisation of all symmetry stuff for point group C_1.

 
 
 KPOINTS: K-Point Grid                            

Automatic generation of k-mesh.
Space group operators:
 irot       det(A)        alpha          n_x          n_y          n_z        tau_x        tau_y        tau_z
    1     1.000000     0.000001     1.000000     0.000000     0.000000     0.000000     0.000000     0.000000
 
 Subroutine IBZKPT returns following result:
 ===========================================
 
 Found      6 irreducible k-points:
 
 Following reciprocal coordinates:
            Coordinates               Weight
  0.250000  0.250000  0.000000     16.000000
  0.500000 -0.250000  0.000000     16.000000
  0.250000  0.500000  0.000000     16.000000
 -0.250000  0.250000  0.000000     16.000000
 -0.000000  0.250000  0.000000     16.000000
  0.250000 -0.000000  0.000000     16.000000
 
 Following cartesian coordinates:
            Coordinates               Weight
  0.024879  0.000000  0.000000     16.000000
  0.012439 -0.021546  0.000000     16.000000
  0.037318  0.007182  0.000000     16.000000
  0.000000  0.014364  0.000000     16.000000
  0.012439  0.007182  0.000000     16.000000
  0.012439 -0.007182  0.000000     16.000000
 


--------------------------------------------------------------------------------------------------------




 Dimension of arrays:
   k-points           NKPTS =      6   k-points in BZ     NKDIM =      6   number of bands    NBANDS=    432
   number of dos      NEDOS =   1200   number of ions     NIONS =    138
   non local maximal  LDIM  =      4   non local SUM 2l+1 LMDIM =      8
   total plane-waves  NPLWV = ******
   max r-space proj   IRMAX =   6620   max aug-charges    IRDMAX=   9003
   dimension x,y,z NGX =   160 NGY =  160 NGZ =  270
   dimension x,y,z NGXF=   320 NGYF=  320 NGZF=  540
   support grid    NGXF=   320 NGYF=  320 NGZF=  540
   ions per type =              64  64   3   5   2
   NGX,Y,Z   is equivalent  to a cutoff of  13.24, 13.24, 12.82 a.u.
   NGXF,Y,Z  is equivalent  to a cutoff of  26.47, 26.47, 25.65 a.u.

 SYSTEM =  hBN                                     
 POSCAR =  B N C F O                               

 Startparameter for this run:
   NWRITE =      2    write-flag & timer
   PREC   = accura    normal or accurate (medium, high low for compatibility)
   ISTART =      1    job   : 0-new  1-cont  2-samecut
   ICHARG =      0    charge: 1-file 2-atom 10-const
   ISPIN  =      2    spin polarized calculation?
   LNONCOLLINEAR =      F non collinear calculations
   LSORBIT =      F    spin-orbit coupling
   INIWAV =      1    electr: 0-lowe 1-rand  2-diag
   LASPH  =      T    aspherical Exc in radial PAW
   METAGGA=      F    non-selfconsistent MetaGGA calc.

 Electronic Relaxation 1
   ENCUT  =  550.0 eV  40.42 Ry    6.36 a.u.  38.43 38.43 66.93*2*pi/ulx,y,z
   ENINI  =  550.0     initial cutoff
   ENAUG  =  644.9 eV  augmentation charge cutoff
   NELM   =    100;   NELMIN=  2; NELMDL=  0     # of ELM steps 
   EDIFF  = 0.1E-04   stopping-criterion for ELM
   LREAL  =      T    real-space projection
   NLSPLINE    = F    spline interpolate recip. space projectors
   LCOMPAT=      F    compatible to vasp.4.4
   GGA_COMPAT  = T    GGA compatible to vasp.4.4-vasp.4.6
   LMAXPAW     = -100 max onsite density
   LMAXMIX     =    2 max onsite mixed and CHGCAR
   VOSKOWN=      0    Vosko Wilk Nusair interpolation
   ROPT   =   -0.00025  -0.00025  -0.00025  -0.00025
   ROPT   =   -0.00025
 Ionic relaxation
   EDIFFG = -.2E-01   stopping-criterion for IOM
   NSW    =      0    number of steps for IOM
   NBLOCK =      1;   KBLOCK =      1    inner block; outer block 
   IBRION =     -1    ionic relax: 0-MD 1-quasi-New 2-CG
   NFREE  =      1    steps in history (QN), initial steepest desc. (CG)
   ISIF   =      2    stress and relaxation
   IWAVPR =     10    prediction:  0-non 1-charg 2-wave 3-comb
   ISYM   =      0    0-nonsym 1-usesym 2-fastsym
   LCORR  =      T    Harris-Foulkes like correction to forces

   POTIM  = 0.5000    time-step for ionic-motion
   TEIN   =    0.0    initial temperature
   TEBEG  =    0.0;   TEEND  =   0.0 temperature during run
   SMASS  =  -3.00    Nose mass-parameter (am)
   estimated Nose-frequenzy (Omega)   =  0.10E-29 period in steps =****** mass=  -0.923E-26a.u.
   SCALEE = 1.0000    scale energy and forces
   NPACO  =    256;   APACO  = 16.0  distance and # of slots for P.C.
   PSTRESS=    0.0 pullay stress

  Mass of Ions in am
   POMASS =  10.81 14.00 12.01 19.00 16.00
  Ionic Valenz
   ZVAL   =   3.00  5.00  4.00  7.00  6.00
  Atomic Wigner-Seitz radii
   RWIGS  =  -1.00 -1.00 -1.00 -1.00 -1.00
  virtual crystal weights 
   VCA    =   1.00  1.00  1.00  1.00  1.00
   NELECT =     571.0000    total number of electrons
   NUPDOWN=      -1.0000    fix difference up-down

 DOS related values:
   EMIN   = -10.00;   EMAX   =  5.00  energy-range for DOS
   EFERMI =   0.00
   ISMEAR =     0;   SIGMA  =   0.05  broadening in eV -4-tet -1-fermi 0-gaus

 Electronic relaxation 2 (details)
   IALGO  =     68    algorithm
   LDIAG  =      T    sub-space diagonalisation (order eigenvalues)
   LSUBROT=      F    optimize rotation matrix (better conditioning)
   TURBO    =      0    0=normal 1=particle mesh
   IRESTART =      0    0=no restart 2=restart with 2 vectors
   NREBOOT  =      0    no. of reboots
   NMIN     =      0    reboot dimension
   EREF     =   0.00    reference energy to select bands
   IMIX   =      4    mixing-type and parameters
     AMIX     =   0.40;   BMIX     =  1.00
     AMIX_MAG =   1.60;   BMIX_MAG =  1.00
     AMIN     =   0.10
     WC   =   100.;   INIMIX=   1;  MIXPRE=   1;  MAXMIX= -45

 Intra band minimization:
   WEIMIN = 0.0000     energy-eigenvalue tresh-hold
   EBREAK =  0.58E-08  absolut break condition
   DEPER  =   0.30     relativ break condition  

   TIME   =   0.40     timestep for ELM

  volume/ion in A,a.u.               =      88.72       598.69
  Fermi-wavevector in a.u.,A,eV,Ry     =   0.589286  1.113589  4.724734  0.347258
  Thomas-Fermi vector in A             =   1.636881
 
 Write flags
   LWAVE        =      T    write WAVECAR
   LDOWNSAMPLE  =      F    k-point downsampling of WAVECAR
   LCHARG       =      T    write CHGCAR
   LVTOT        =      F    write LOCPOT, total local potential
   LVHAR        =      T    write LOCPOT, Hartree potential only
   LELF         =      F    write electronic localiz. function (ELF)
   LORBIT       =     11    0 simple, 1 ext, 2 COOP (PROOUT), +10 PAW based schemes


 Dipole corrections
   LMONO  =      F    monopole corrections only (constant potential shift)
   LDIPOL =      F    correct potential (dipole corrections)
   IDIPOL =      0    1-x, 2-y, 3-z, 4-all directions 
   EPSILON=  1.0000000 bulk dielectric constant

 Exchange correlation treatment:
   GGA     =    --    GGA type
   LEXCH   =     8    internal setting for exchange type
   VOSKOWN=      0    Vosko Wilk Nusair interpolation
   LHFCALC =     F    Hartree Fock is set to
   LHFONE  =     F    Hartree Fock one center treatment
   AEXX    =    0.0000 exact exchange contribution

 Linear response parameters
   LEPSILON=     F    determine dielectric tensor
   LRPA    =     F    only Hartree local field effects (RPA)
   LNABLA  =     F    use nabla operator in PAW spheres
   LVEL    =     F    velocity operator in full k-point grid
   LINTERFAST=   F  fast interpolation
   KINTER  =     0    interpolate to denser k-point grid
   CSHIFT  =0.1000    complex shift for real part using Kramers Kronig
   OMEGAMAX=  -1.0    maximum frequency
   DEG_THRESHOLD= 0.2000000E-02 threshold for treating states as degnerate
   RTIME   =   -0.100 relaxation time in fs
  (WPLASMAI=    0.000 imaginary part of plasma frequency in eV, 0.658/RTIME)
   DFIELD  = 0.0000000 0.0000000 0.0000000 field for delta impulse in time
 
 Orbital magnetization related:
   ORBITALMAG=     F  switch on orbital magnetization
   LCHIMAG   =     F  perturbation theory with respect to B field
   DQ        =  0.001000  dq finite difference perturbation B field
   LLRAUG    =     F  two centre corrections for induced B field

 Solvation model:
   LSOL    =     T         switch on solvation model
   EB_K    = 78.400000     relative permittivity of the bulk solvent
   SIGMA_K =  0.600000     width of the dielectric cavity
   NC_K    =  0.002500     cutoff charge density
   TAU     =  0.000000     cavity surface tension
   LAMBDA_D_K    =  3.040000     Debye length in Angstroms
   LRHOB     =     F     write boundcharge  density
   LRHOION     =     F     write ioniccharge density



--------------------------------------------------------------------------------------------------------


 Static calculation
 charge density and potential will be updated during run
 spin polarized calculation
 RMM-DIIS sequential band-by-band and
  variant of blocked Davidson during initial phase
 perform sub-space diagonalisation
    before iterative eigenvector-optimisation
 modified Broyden-mixing scheme, WC =      100.0
 initial mixing is a Kerker type mixing with AMIX =  0.4000 and BMIX =      1.0000
 Hartree-type preconditioning will be used
 using additional bands          146
 real space projection scheme for non local part
 use partial core corrections
 calculate Harris-corrections to forces 
   (improved forces if not selfconsistent)
 use gradient corrections 
 use of overlap-Matrix (Vanderbilt PP)
 Gauss-broadening in eV      SIGMA  =   0.05


--------------------------------------------------------------------------------------------------------


  energy-cutoff  :      550.00
  volume of cell :    12242.83
      direct lattice vectors                 reciprocal lattice vectors
    10.048700000-17.405000000  0.000000000     0.049757680 -0.028727377  0.000000000
    10.048700000 17.405000000  0.000000000     0.049757680  0.028727377  0.000000000
     0.000000000  0.000000000 35.000000000     0.000000000  0.000000000  0.028571429

  length of vectors
    20.097522153 20.097522153 35.000000000     0.057455104  0.057455104  0.028571429


 
 old parameters found on file WAVECAR:
  energy-cutoff  :      550.00
  volume of cell :    12242.83
      direct lattice vectors                 reciprocal lattice vectors
    10.048700000-17.405000000  0.000000000     0.049757680 -0.028727377  0.000000000
    10.048700000 17.405000000  0.000000000     0.049757680  0.028727377  0.000000000
     0.000000000  0.000000000 35.000000000     0.000000000  0.000000000  0.028571429

  length of vectors

 
 k-points in units of 2pi/SCALE and weight: K-Point Grid                            
   0.02487884  0.00000000  0.00000000       0.167
   0.01243942 -0.02154553  0.00000000       0.167
   0.03731826  0.00718184  0.00000000       0.167
   0.00000000  0.01436369  0.00000000       0.167
   0.01243942  0.00718184  0.00000000       0.167
   0.01243942 -0.00718184  0.00000000       0.167
 
 k-points in reciprocal lattice and weights: K-Point Grid                            
   0.25000000  0.25000000  0.00000000       0.167
   0.50000000 -0.25000000  0.00000000       0.167
   0.25000000  0.50000000  0.00000000       0.167
  -0.25000000  0.25000000  0.00000000       0.167
  -0.00000000  0.25000000  0.00000000       0.167
   0.25000000 -0.00000000  0.00000000       0.167
 
 position of ions in fractional coordinates (direct lattice) 
   0.08329137  0.04167863  0.50169759
   0.08328247  0.16667614  0.50171014
   0.08328711  0.29168121  0.50168889
   0.08329606  0.41668392  0.50165003
   0.08330594  0.54168610  0.50164050
   0.08330818  0.66668521  0.50164062
   0.08330726  0.79168446  0.50164224
   0.08330199  0.91668311  0.50166141
   0.20829908  0.04167943  0.50171709
   0.20829149  0.16667327  0.50173439
   0.20828873  0.29167603  0.50169159
   0.20829987  0.41669596  0.50159575
   0.20830959  0.54169509  0.50163671
   0.20830819  0.66668985  0.50164378
   0.20830755  0.79168686  0.50164284
   0.20830495  0.91668475  0.50166344
   0.33330565  0.04168319  0.50170002
   0.33330308  0.16668110  0.50175418
   0.33331002  0.29168504  0.50176071
   0.33331992  0.41670568  0.50168692
   0.33331204  0.54170053  0.50166437
   0.33331016  0.66669425  0.50165467
   0.33330853  0.79168902  0.50164345
   0.33330701  0.91668635  0.50164843
   0.45830621  0.04168403  0.50165273
   0.45830326  0.16668142  0.50169975
   0.45830415  0.29168325  0.50172616
   0.45830761  0.41669025  0.50170537
   0.45830841  0.54169494  0.50167762
   0.45830825  0.66669212  0.50166247
   0.45830863  0.79168922  0.50164613
   0.45830960  0.91668651  0.50163869
   0.58330725  0.04168413  0.50163628
   0.58330363  0.16668289  0.50164595
   0.58330236  0.29168240  0.50166392
   0.58330282  0.41668357  0.50166443
   0.58330415  0.54168610  0.50165380
   0.58330595  0.66668650  0.50164958
   0.58330672  0.79168553  0.50164381
   0.58330933  0.91668498  0.50163832
   0.70830504  0.04168217  0.50163872
   0.70830366  0.16668221  0.50163966
   0.70830329  0.29168180  0.50164007
   0.70830366  0.41668141  0.50164029
   0.70830435  0.54168152  0.50163822
   0.70830544  0.66668209  0.50163856
   0.70830667  0.79168230  0.50163942
   0.70830596  0.91668238  0.50163805
   0.83330188  0.04168144  0.50164612
   0.83329925  0.16668179  0.50165199
   0.83330145  0.29168230  0.50164867
   0.83330420  0.41668247  0.50164088
   0.83330579  0.54168214  0.50163794
   0.83330641  0.66668188  0.50163769
   0.83330542  0.79168135  0.50163780
   0.83330312  0.91668073  0.50164034
   0.95829399  0.04167980  0.50166413
   0.95829255  0.16668158  0.50167800
   0.95829514  0.29168161  0.50167190
   0.95830146  0.41668349  0.50165005
   0.95830704  0.54168377  0.50164038
   0.95830702  0.66668326  0.50163917
   0.95830594  0.79168236  0.50163958
   0.95830073  0.91668079  0.50164825
   0.04163216  0.08335121  0.50167871
   0.04163420  0.20835409  0.50168876
   0.04163655  0.33335155  0.50166627
   0.04163891  0.45835072  0.50163395
   0.04164191  0.58335016  0.50162699
   0.04164181  0.70835095  0.50162681
   0.04164079  0.83335134  0.50162983
   0.04163639  0.95835114  0.50165237
   0.16663266  0.08335102  0.50171081
   0.16663060  0.20835005  0.50172202
   0.16664148  0.33335738  0.50164140
   0.16663901  0.45835322  0.50160771
   0.16664182  0.58335325  0.50162842
   0.16664177  0.70835242  0.50163004
   0.16664122  0.83335276  0.50163242
   0.16663738  0.95835224  0.50166574
   0.29163492  0.08335437  0.50172497
   0.29162753  0.20835123  0.50175507
   0.29163061  0.33335568  0.50174250
   0.29163237  0.45834903  0.50163036
   0.29164069  0.58335382  0.50164331
   0.29164136  0.70835352  0.50163541
   0.29164110  0.83335328  0.50162986
   0.29163899  0.95835301  0.50165406
   0.41663664  0.08335104  0.50167049
   0.41662993  0.20834939  0.50172460
   0.41663097  0.33334995  0.50173503
   0.41663534  0.45835374  0.50167644
   0.41663628  0.58335307  0.50166225
   0.41664043  0.70835410  0.50164347
   0.41664152  0.83335286  0.50162884
   0.41664041  0.95835167  0.50162921
   0.54163914  0.08334999  0.50162769
   0.54163452  0.20834907  0.50165398
   0.54163198  0.33334841  0.50166983
   0.54163348  0.45834925  0.50165848
   0.54163630  0.58335105  0.50164552
   0.54163913  0.70835132  0.50163915
   0.54164098  0.83335131  0.50162929
   0.54164205  0.95835091  0.50162393
   0.66664024  0.08334927  0.50162417
   0.66663730  0.20834852  0.50162499
   0.66663559  0.33334732  0.50163110
   0.66663533  0.45834681  0.50162922
   0.66663656  0.58334727  0.50162646
   0.66663899  0.70834832  0.50162794
   0.66664012  0.83334890  0.50162672
   0.66664114  0.95834930  0.50162444
   0.79163826  0.08334915  0.50163123
   0.79163728  0.20834970  0.50163416
   0.79163735  0.33334906  0.50162825
   0.79163825  0.45834802  0.50162475
   0.79163881  0.58334746  0.50162444
   0.79163971  0.70834767  0.50162443
   0.79163972  0.83334771  0.50162572
   0.79163964  0.95834865  0.50162666
   0.91663538  0.08335095  0.50164649
   0.91663477  0.20835086  0.50165405
   0.91663665  0.33335048  0.50164540
   0.91663938  0.45834984  0.50163030
   0.91664051  0.58334922  0.50162625
   0.91664085  0.70834892  0.50162544
   0.91663980  0.83334877  0.50162594
   0.91663745  0.95834913  0.50163349
   0.28289403  0.22542996  0.66436237
   0.27018250  0.20362737  0.62269387
   0.23708184  0.38766670  0.61142000
   0.35048716  0.29024336  0.66900695
   0.28386783  0.17037362  0.68622626
   0.22643627  0.23656314  0.67739047
   0.32666904  0.19747408  0.60666030
   0.20184302  0.14366054  0.61489536
   0.30311970  0.42917252  0.60964382
   0.17106496  0.34590490  0.61306158
 
 position of ions in cartesian coordinates  (Angst):
   1.25578607 -0.72426968 17.55941566
   2.51175908  1.45146679 17.55985479
   3.76794418  3.62709925 17.55911108
   5.02414889  5.80261570 17.55775095
   6.28035752  7.97810681 17.55741737
   7.53645857 10.15367712 17.55742168
   8.79252931 12.32930525 17.55747857
  10.04855022 14.50499833 17.55814919
   2.51195897 -2.90001500 17.56009831
   3.76790838 -0.72436499 17.56070375
   5.02399591  1.45135600 17.55920578
   6.28039565  3.62713395 17.55585108
   7.53657209  5.80257468 17.55728492
   8.79259285  7.97813283 17.55753228
  10.04864378 10.15371697 17.55749937
  11.30468398 12.32935037 17.55822033
   3.76815035 -5.07568906 17.55950075
   5.02419105 -2.90005556 17.56139634
   6.28038788 -0.72448279 17.56162481
   7.53678233  1.45132916 17.55904215
   8.79273881  3.62700180 17.55825298
  10.04874433  5.80255010 17.55791349
  11.30476284  7.97811235 17.55752090
  12.56080828 10.15371752 17.55769501
   5.02425192 -7.25130890 17.55784564
   6.28028348 -5.07567816 17.55949128
   7.53639839 -2.90003680 17.56041563
   8.79259094 -0.72435021 17.55968804
  10.04873366  1.45134240 17.55871657
  11.30479122  3.62692134 17.55818659
  12.56085342  5.80248925 17.55761460
  13.81692347  7.97805006 17.55735428
   6.28035083 -9.42695033 17.55726976
   7.53638955 -7.25128398 17.55760840
   8.79245942 -5.07564539 17.55823732
  10.04856329 -2.90000800 17.55825498
  11.30468959 -0.72436222 17.55788302
  12.56079911  1.45123853 17.55773534
  13.81688466  3.62683322 17.55753328
  15.07299275  5.80240322 17.55734132
   7.53639651-11.60257116 17.55735508
   8.79247051 -9.42692139 17.55738811
  10.04855015 -7.25129692 17.55740231
  11.30463752 -5.07568527 17.55741006
  12.56073301 -2.90007033 17.55733772
  13.81683715 -0.72445441 17.55734953
  15.07293909  1.45115287 17.55737960
  16.32902037  3.62679168 17.55733168
   8.79244490-13.77815375 17.55761415
  10.04850949-11.60247681 17.55781967
  11.30462425 -9.42688124 17.55770353
  12.56074104 -7.25130115 17.55743095
  13.81684123 -5.07570961 17.55732784
  15.07293234 -2.90010008 17.55731930
  16.32900463 -0.72446697 17.55732283
  17.58506267  1.45118739 17.55741180
  10.04843669-15.95366992 17.55824463
  11.30452750-13.77798891 17.55873001
  12.56064138-11.60240847 17.55851666
  13.81681128 -9.42686073 17.55775178
  15.07295770 -7.25132801 17.55741343
  16.32903983 -5.07571162 17.55737109
  17.58510746 -2.90008332 17.55738543
  18.84112680 -0.72439502 17.55768870
   1.25592040  0.72612009 17.55875486
   2.51205734  2.90175966 17.55910655
   3.76814292  5.07729974 17.55831945
   5.02424578  7.25286906 17.55718810
   6.28035781  9.42843214 17.55694468
   7.53645218 11.60407255 17.55693838
   8.79253340 13.77972212 17.55704416
  10.04857469 15.95542034 17.55783287
   2.51201093 -1.44951692 17.55987845
   3.76806813  0.72612702 17.56027067
   5.02433846  2.90169023 17.55744910
   6.28035948  5.07728589 17.55626992
   7.53647551  7.25286248 17.55699455
   8.79255414  9.42847384 17.55705140
  10.04863953 11.60411439 17.55713467
  11.30468312 13.77979717 17.55830101
   3.76815494 -3.62512300 17.56037394
   5.02413657 -1.44942406 17.56142756
   6.28029977  0.72622487 17.56098756
   7.53633808  2.90170342 17.55706265
   8.79255729  5.07726710 17.55751585
  10.04864857  7.25287507 17.55723940
  11.30473109  9.42850051 17.55704519
  12.56079456 11.60415751 17.55789212
   5.02422624 -5.80083581 17.55846703
   6.28022976 -3.62512284 17.56036100
   7.53633326 -1.44950630 17.56072591
   8.79250279  0.72610888 17.55867546
  10.04859299  2.90170569 17.55817866
  11.30473255  5.07727639 17.55752144
  12.56081853  7.25286086 17.55700940
  13.81688294  9.42848460 17.55702244
   6.28032835 -7.97652265 17.55696901
   7.53636013 -5.80083320 17.55788923
   8.79241540 -3.62517545 17.55844411
  10.04852641 -1.44956210 17.55804676
  11.30466039  0.72604522 17.55759327
  12.56077906  2.90162570 17.55737042
  13.81688496  5.07721825 17.55702531
  15.07297930  7.25281773 17.55683749
   7.53641963-10.15217924 17.55684586
   8.79247002 -7.97651618 17.55687457
  10.04852822 -5.80088233 17.55708848
  11.30460800 -3.62526175 17.55702271
  12.56071243 -1.44965006 17.55692627
  13.81683492  0.72595087 17.55697780
  15.07293958  2.90156630 17.55693521
  16.32904147  5.07718049 17.55685524
   8.79248595-12.32777189 17.55709290
  10.04856913-10.15212029 17.55719558
  11.30465097 -7.97650771 17.55698873
  12.56073705 -5.80091651 17.55686609
  13.81682451 -3.62531096 17.55685546
  15.07292322 -1.44969787 17.55685507
  16.32901122  0.72592766 17.55690033
  17.58510725  2.90157035 17.55693326
  10.04856261-14.50331545 17.55762711
  11.30464309-12.32768134 17.55789186
  12.56074567-10.15209588 17.55758903
  13.81685409 -7.97652944 17.55706055
  15.07294681 -5.80093484 17.55691883
  16.32903474 -3.62532113 17.55689044
  17.58511014 -1.44968040 17.55690783
  18.84117766  0.72599177 17.55717210
   5.10799536 -1.00016215 23.25268300
   4.76117322 -1.15839195 21.79428534
   6.27791066  2.62092954 21.39970005
   6.43850876 -1.04854333 23.41524337
   4.56453605 -1.97536680 24.01791919
   4.65254217  0.17625820 23.70866646
   5.26695702 -2.24863828 21.23311048
   3.47186162 -1.01266622 21.52133775
   7.35858487  2.19394930 21.33753365
   5.19487502  3.04308929 21.45715547
 


--------------------------------------------------------------------------------------------------------


 k-point  1 :   0.2500 0.2500 0.0000  plane waves:  358590
 k-point  2 :   0.5000-0.2500 0.0000  plane waves:  358584
 k-point  3 :   0.2500 0.5000 0.0000  plane waves:  358584
 k-point  4 :  -0.2500 0.2500 0.0000  plane waves:  358603
 k-point  5 :  -0.0000 0.2500 0.0000  plane waves:  358599
 k-point  6 :   0.2500-0.0000 0.0000  plane waves:  358599

 maximum and minimum number of plane-waves per node :    358603   358584

 maximum number of plane-waves:    358603
 maximum index in each direction: 
   IXMAX=   38   IYMAX=   38   IZMAX=   66
   IXMIN=  -38   IYMIN=  -38   IZMIN=  -66


 serial   3D FFT for wavefunctions
 parallel 3D FFT for charge:
    minimum data exchange during FFTs selected (reduces bandwidth)


 total amount of memory used by VASP MPI-rank0  1926192. kBytes
=======================================================================

   base      :      30000. kBytes
   nonlr-proj:      63775. kBytes
   fftplans  :      68224. kBytes
   grid      :    1141764. kBytes
   one-center:        847. kBytes
   wavefun   :     621582. kBytes
 
     INWAV:  cpu time   72.2846: real time   72.7008
 Broyden mixing: mesh for mixing (old mesh)
   NGX = 77   NGY = 77   NGZ =133
  (NGX  =320   NGY  =320   NGZ  =540)
  gives a total of 788557 points

 charge density for first step will be calculated from the start-wavefunctions


--------------------------------------------------------------------------------------------------------


 Maximum index for non-local projection operator         6394
 Maximum index for augmentation-charges          435 (set IRDMAX)


--------------------------------------------------------------------------------------------------------


 initial charge from wavefunction
 First call to EWALD:  gamma=   0.077
 Maximum number of real-space cells 3x 3x 2
 Maximum number of reciprocal cells 2x 2x 4

    FEWALD:  cpu time    0.0054: real time    0.0044


--------------------------------------- Iteration      1(   1)  ---------------------------------------


    POTLOK:  cpu time   63.6685: real time   63.6219
    SETDIJ:  cpu time    1.2565: real time    1.0588
     EDDAV:  cpu time  825.9964: real time  615.8894
       DOS:  cpu time    0.0070: real time    0.0055
    CHARGE:  cpu time  105.2491: real time  104.0305
    MIXING:  cpu time    0.0350: real time    0.0361
    --------------------------------------------
      LOOP:  cpu time  996.2126: real time  784.6423

 eigenvalue-minimisations  : 10560
 total energy-change (2. order) :-0.1328915E+04  (-0.6754064E-02)
 number of electron     570.9999966 magnetization       1.0000000
 augmentation part       22.4808723 magnetization       0.1190056

 Broyden mixing:
  rms(total) = 0.15695E-01    rms(broyden)= 0.15664E-01
  rms(prec ) = 0.15812E-01
  weight for this iteration     100.00

 Free energy of the ion-electron system (eV)
  ---------------------------------------------------
  alpha Z        PSCENC =       143.65704873
  Ewald energy   TEWEN  =    182068.41129165
  -Hartree energ DENC   =   -204381.36292203
  -exchange      EXHF   =         0.00000000
  -V(xc)+E(xc)   XCENC  =      2560.31271393
  PAW double counting   =     67960.51263460   -68226.35257247
  entropy T*S    EENTRO =        -0.00000000
  eigenvalues    EBANDS =     -8010.54779544
  atomic energy  EATOM  =     26089.46230379
  Solvation  Ediel_sol  =       466.99273009
  ---------------------------------------------------
  free energy    TOTEN  =     -1328.91456715 eV

  energy without entropy =    -1328.91456715  energy(sigma->0) =    -1328.91456715


--------------------------------------------------------------------------------------------------------




--------------------------------------- Iteration      1(   2)  ---------------------------------------


    POTLOK:  cpu time   47.3576: real time   47.4707
    SETDIJ:  cpu time    1.2571: real time    1.0596
    EDDIAG:  cpu time  166.5333: real time  138.3682
  RMM-DIIS:  cpu time  941.8255: real time  770.6225
    ORTHCH:  cpu time   10.0221: real time    5.0311
       DOS:  cpu time    0.0438: real time    0.0426
    CHARGE:  cpu time  105.2011: real time  103.9824
    MIXING:  cpu time    0.0346: real time    0.0347
    --------------------------------------------
      LOOP:  cpu time 1272.2753: real time 1066.6119

 eigenvalue-minimisations  : 10602
 total energy-change (2. order) : 0.1321246E-03  (-0.8885450E-04)
 number of electron     570.9999966 magnetization       1.0000000
 augmentation part       22.4784110 magnetization       0.1189858

 Broyden mixing:
  rms(total) = 0.95147E-02    rms(broyden)= 0.95105E-02
  rms(prec ) = 0.95855E-02
  weight for this iteration     100.00

 eigenvalues of (default mixing * dielectric matrix)
  average eigenvalue GAMMA=   2.1703
  2.1703

 Free energy of the ion-electron system (eV)
  ---------------------------------------------------
  alpha Z        PSCENC =       143.65704873
  Ewald energy   TEWEN  =    182068.41129165
  -Hartree energ DENC   =   -204381.31761347
  -exchange      EXHF   =         0.00000000
  -V(xc)+E(xc)   XCENC  =      2560.35966035
  PAW double counting   =     67992.20909012   -68258.02619785
  entropy T*S    EENTRO =        -0.00000000
  eigenvalues    EBANDS =     -8010.73751286
  atomic energy  EATOM  =     26089.46230379
  Solvation  Ediel_sol  =       467.06749451
  ---------------------------------------------------
  free energy    TOTEN  =     -1328.91443503 eV

  energy without entropy =    -1328.91443503  energy(sigma->0) =    -1328.91443503


--------------------------------------------------------------------------------------------------------




--------------------------------------- Iteration      1(   3)  ---------------------------------------


    POTLOK:  cpu time   48.2298: real time   48.3459
    SETDIJ:  cpu time    1.2615: real time    1.0649
    EDDIAG:  cpu time  166.1328: real time  137.9681
  RMM-DIIS:  cpu time  941.1985: real time  773.4366
    ORTHCH:  cpu time   10.0202: real time    5.0293
       DOS:  cpu time    0.0338: real time    0.0325
    CHARGE:  cpu time  105.2409: real time  104.0198
    MIXING:  cpu time    0.0332: real time    0.0333
    --------------------------------------------
      LOOP:  cpu time 1272.1506: real time 1069.9302

 eigenvalue-minimisations  : 10683
 total energy-change (2. order) :-0.3252957E-03  (-0.4043672E-04)
 number of electron     570.9999966 magnetization       1.0000000
 augmentation part       22.4769449 magnetization       0.1189888

 Broyden mixing:
  rms(total) = 0.21351E-02    rms(broyden)= 0.21328E-02
  rms(prec ) = 0.21722E-02
  weight for this iteration     100.00

 eigenvalues of (default mixing * dielectric matrix)
  average eigenvalue GAMMA=   1.6505
  0.9253  2.3758

 Free energy of the ion-electron system (eV)
  ---------------------------------------------------
  alpha Z        PSCENC =       143.65704873
  Ewald energy   TEWEN  =    182068.41129165
  -Hartree energ DENC   =   -204380.85918656
  -exchange      EXHF   =         0.00000000
  -V(xc)+E(xc)   XCENC  =      2560.32318260
  PAW double counting   =     68034.88770840   -68300.67242836
  entropy T*S    EENTRO =        -0.00000000
  eigenvalues    EBANDS =     -8011.32266627
  atomic energy  EATOM  =     26089.46230379
  Solvation  Ediel_sol  =       467.19798570
  ---------------------------------------------------
  free energy    TOTEN  =     -1328.91476032 eV

  energy without entropy =    -1328.91476032  energy(sigma->0) =    -1328.91476032


--------------------------------------------------------------------------------------------------------




--------------------------------------- Iteration      1(   4)  ---------------------------------------


    POTLOK:  cpu time   45.0298: real time   45.1278
    SETDIJ:  cpu time    1.2549: real time    1.0575
    EDDIAG:  cpu time  166.5503: real time  138.4430
  RMM-DIIS:  cpu time  836.1586: real time  685.3928
    ORTHCH:  cpu time   10.0150: real time    5.0266
       DOS:  cpu time    0.0179: real time    0.0166
    CHARGE:  cpu time  105.3027: real time  104.0884
    MIXING:  cpu time    0.0353: real time    0.0354
    --------------------------------------------
      LOOP:  cpu time 1164.3645: real time  979.1881

 eigenvalue-minimisations  :  8627
 total energy-change (2. order) : 0.1753173E-04  (-0.7084823E-05)
 number of electron     570.9999966 magnetization       1.0000000
 augmentation part       22.4774640 magnetization       0.1189859

 Broyden mixing:
  rms(total) = 0.98473E-03    rms(broyden)= 0.98452E-03
  rms(prec ) = 0.10006E-02
  weight for this iteration     100.00

 eigenvalues of (default mixing * dielectric matrix)
  average eigenvalue GAMMA=   1.5728
  2.4751  1.5716  0.6716

 Free energy of the ion-electron system (eV)
  ---------------------------------------------------
  alpha Z        PSCENC =       143.65704873
  Ewald energy   TEWEN  =    182068.41129165
  -Hartree energ DENC   =   -204380.59234498
  -exchange      EXHF   =         0.00000000
  -V(xc)+E(xc)   XCENC  =      2560.30011128
  PAW double counting   =     68038.00292273   -68303.78554762
  entropy T*S    EENTRO =        -0.00000000
  eigenvalues    EBANDS =     -8011.60591518
  atomic energy  EATOM  =     26089.46230379
  Solvation  Ediel_sol  =       467.23538682
  ---------------------------------------------------
  free energy    TOTEN  =     -1328.91474279 eV

  energy without entropy =    -1328.91474279  energy(sigma->0) =    -1328.91474279


--------------------------------------------------------------------------------------------------------




--------------------------------------- Iteration      1(   5)  ---------------------------------------


    POTLOK:  cpu time   44.6463: real time   44.7430
    SETDIJ:  cpu time    1.2535: real time    1.0559
    EDDIAG:  cpu time  166.0391: real time  138.1112
  RMM-DIIS:  cpu time  819.9721: real time  672.8107
    ORTHCH:  cpu time   10.0178: real time    5.0280
       DOS:  cpu time    0.0258: real time    0.0246
    --------------------------------------------
      LOOP:  cpu time 1041.9546: real time  861.7734

 eigenvalue-minimisations  :  8471
 total energy-change (2. order) :-0.7956289E-05  (-0.3579924E-05)
 number of electron     570.9999966 magnetization       1.0000000
 augmentation part       22.4774640 magnetization       0.1189859

 Free energy of the ion-electron system (eV)
  ---------------------------------------------------
  alpha Z        PSCENC =       143.65704873
  Ewald energy   TEWEN  =    182068.41129165
  -Hartree energ DENC   =   -204380.49403611
  -exchange      EXHF   =         0.00000000
  -V(xc)+E(xc)   XCENC  =      2560.29844194
  PAW double counting   =     68039.18035322   -68304.96271015
  entropy T*S    EENTRO =        -0.00000000
  eigenvalues    EBANDS =     -8011.71697403
  atomic energy  EATOM  =     26089.46230379
  Solvation  Ediel_sol  =       467.24953022
  ---------------------------------------------------
  free energy    TOTEN  =     -1328.91475075 eV

  energy without entropy =    -1328.91475075  energy(sigma->0) =    -1328.91475075


--------------------------------------------------------------------------------------------------------




 average (electrostatic) potential at core
  the test charge radii are     0.7672  0.7089  0.6991  0.7167  0.7215
  (the norm of the test charge is              1.0000)
       1 -38.5380       2 -38.5411       3 -38.5416       4 -38.5387       5 -38.5354
       6 -38.5341       7 -38.5340       8 -38.5352       9 -38.5385      10 -38.5438
      11 -38.5486      12 -38.5452      13 -38.5387      14 -38.5350      15 -38.5342
      16 -38.5350      17 -38.5365      18 -38.5405      19 -38.5460      20 -38.5454
      21 -38.5402      22 -38.5359      23 -38.5343      24 -38.5343      25 -38.5344
      26 -38.5364      27 -38.5387      28 -38.5396      29 -38.5377      30 -38.5354
      31 -38.5340      32 -38.5337      33 -38.5335      34 -38.5341      35 -38.5349
      36 -38.5354      37 -38.5352      38 -38.5343      39 -38.5337      40 -38.5334
      41 -38.5334      42 -38.5335      43 -38.5337      44 -38.5339      45 -38.5339
      46 -38.5337      47 -38.5334      48 -38.5334      49 -38.5340      50 -38.5341
      51 -38.5339      52 -38.5337      53 -38.5335      54 -38.5335      55 -38.5335
      56 -38.5338      57 -38.5357      58 -38.5364      59 -38.5360      60 -38.5348
      61 -38.5340      62 -38.5336      63 -38.5338      64 -38.5345      65 -76.0890
      66 -76.0904      67 -76.0897      68 -76.0870      69 -76.0855      70 -76.0850
      71 -76.0852      72 -76.0866      73 -76.0922      74 -76.0984      75 -76.1000
      76 -76.0937      77 -76.0872      78 -76.0855      79 -76.0854      80 -76.0869
      81 -76.0906      82 -76.0973      83 -76.1034      84 -76.0980      85 -76.0896
      86 -76.0861      87 -76.0853      88 -76.0861      89 -76.0865      90 -76.0902
      91 -76.0929      92 -76.0922      93 -76.0886      94 -76.0861      95 -76.0851
      96 -76.0851      97 -76.0850      98 -76.0859      99 -76.0869     100 -76.0872
     101 -76.0863     102 -76.0854     103 -76.0848     104 -76.0847     105 -76.0847
     106 -76.0848     107 -76.0851     108 -76.0853     109 -76.0851     110 -76.0848
     111 -76.0846     112 -76.0846     113 -76.0849     114 -76.0849     115 -76.0848
     116 -76.0848     117 -76.0847     118 -76.0846     119 -76.0847     120 -76.0848
     121 -76.0862     122 -76.0862     123 -76.0857     124 -76.0852     125 -76.0847
     126 -76.0847     127 -76.0850     128 -76.0857     129 -67.6822     130 -65.7137
     131 -65.9421     132 -92.0585     133 -91.9338     134 -92.0637     135 -92.2516
     136 -92.2579     137 -86.5597     138 -86.5569
 
 
 
 E-fermi :  -5.8841     XC(G=0):  -1.3042     alpha+bet : -1.0975


 spin component 1

 k-point     1 :       0.2500    0.2500    0.0000
  band No.  band energies     occupation 
      1     -35.7981      1.00000
      2     -35.0597      1.00000
      3     -33.7145      1.00000
      4     -33.3943      1.00000
      5     -33.3172      1.00000
      6     -30.8617      1.00000
      7     -29.8628      1.00000
      8     -24.7100      1.00000
      9     -24.6335      1.00000
     10     -24.6309      1.00000
     11     -24.4018      1.00000
     12     -24.4014      1.00000
     13     -24.2501      1.00000
     14     -24.1765      1.00000
     15     -24.1739      1.00000
     16     -24.0267      1.00000
     17     -24.0266      1.00000
     18     -23.9535      1.00000
     19     -23.9531      1.00000
     20     -23.5939      1.00000
     21     -23.5938      1.00000
     22     -23.5247      1.00000
     23     -23.5246      1.00000
     24     -23.3844      1.00000
     25     -23.3192      1.00000
     26     -23.3167      1.00000
     27     -23.1225      1.00000
     28     -23.1221      1.00000
     29     -23.1156      1.00000
     30     -23.1155      1.00000
     31     -22.9300      1.00000
     32     -22.9300      1.00000
     33     -22.8100      1.00000
     34     -22.8099      1.00000
     35     -22.5546      1.00000
     36     -22.5546      1.00000
     37     -22.4050      1.00000
     38     -22.4049      1.00000
     39     -22.3103      1.00000
     40     -22.3101      1.00000
     41     -22.2732      1.00000
     42     -22.2322      1.00000
     43     -22.2297      1.00000
     44     -22.1114      1.00000
     45     -22.1111      1.00000
     46     -21.9793      1.00000
     47     -21.9790      1.00000
     48     -21.9489      1.00000
     49     -21.9489      1.00000
     50     -21.9350      1.00000
     51     -21.9349      1.00000
     52     -21.7970      1.00000
     53     -21.7948      1.00000
     54     -21.7358      1.00000
     55     -21.7358      1.00000
     56     -21.5852      1.00000
     57     -21.5533      1.00000
     58     -21.5533      1.00000
     59     -21.5136      1.00000
     60     -21.5112      1.00000
     61     -21.5084      1.00000
     62     -21.5081      1.00000
     63     -21.4185      1.00000
     64     -21.4182      1.00000
     65     -21.3427      1.00000
     66     -21.3403      1.00000
     67     -21.3241      1.00000
     68     -21.3173      1.00000
     69     -21.1793      1.00000
     70     -21.1770      1.00000
     71     -21.0883      1.00000
     72     -21.0533      1.00000
     73     -18.0391      1.00000
     74     -16.4102      1.00000
     75     -16.2568      1.00000
     76     -16.0650      1.00000
     77     -15.3269      1.00000
     78     -15.2759      1.00000
     79     -15.1933      1.00000
     80     -15.1932      1.00000
     81     -15.1152      1.00000
     82     -15.1151      1.00000
     83     -15.0020      1.00000
     84     -15.0018      1.00000
     85     -14.9368      1.00000
     86     -14.9343      1.00000
     87     -14.8907      1.00000
     88     -14.7847      1.00000
     89     -14.7847      1.00000
     90     -14.6152      1.00000
     91     -14.6129      1.00000
     92     -14.6046      1.00000
     93     -14.6028      1.00000
     94     -14.4355      1.00000
     95     -14.3806      1.00000
     96     -14.3805      1.00000
     97     -14.3683      1.00000
     98     -14.3673      1.00000
     99     -14.3129      1.00000
    100     -14.2647      1.00000
    101     -14.2646      1.00000
    102     -14.2452      1.00000
    103     -14.2392      1.00000
    104     -14.1584      1.00000
    105     -14.1584      1.00000
    106     -14.0410      1.00000
    107     -14.0407      1.00000
    108     -13.9012      1.00000
    109     -13.9009      1.00000
    110     -13.7321      1.00000
    111     -13.7320      1.00000
    112     -13.6817      1.00000
    113     -13.6799      1.00000
    114     -13.5437      1.00000
    115     -13.3625      1.00000
    116     -13.2681      1.00000
    117     -13.1508      1.00000
    118     -13.1506      1.00000
    119     -13.1265      1.00000
    120     -13.1254      1.00000
    121     -13.0617      1.00000
    122     -13.0488      1.00000
    123     -12.9833      1.00000
    124     -12.9832      1.00000
    125     -12.8641      1.00000
    126     -12.8353      1.00000
    127     -12.8171      1.00000
    128     -12.8168      1.00000
    129     -12.4933      1.00000
    130     -12.4783      1.00000
    131     -12.4781      1.00000
    132     -12.4311      1.00000
    133     -12.4296      1.00000
    134     -12.4256      1.00000
    135     -12.2934      1.00000
    136     -12.2934      1.00000
    137     -12.1931      1.00000
    138     -12.0699      1.00000
    139     -12.0483      1.00000
    140     -12.0482      1.00000
    141     -11.9601      1.00000
    142     -11.9577      1.00000
    143     -11.8334      1.00000
    144     -11.8318      1.00000
    145     -11.7875      1.00000
    146     -11.6314      1.00000
    147     -11.6313      1.00000
    148     -11.6204      1.00000
    149     -11.6202      1.00000
    150     -11.5108      1.00000
    151     -11.4534      1.00000
    152     -11.4521      1.00000
    153     -11.4464      1.00000
    154     -11.4464      1.00000
    155     -11.3754      1.00000
    156     -11.3375      1.00000
    157     -11.3374      1.00000
    158     -11.2724      1.00000
    159     -11.2701      1.00000
    160     -11.2626      1.00000
    161     -11.1694      1.00000
    162     -11.1693      1.00000
    163     -11.1418      1.00000
    164     -11.1401      1.00000
    165     -11.0439      1.00000
    166     -11.0439      1.00000
    167     -10.9624      1.00000
    168     -10.9606      1.00000
    169     -10.9077      1.00000
    170     -10.8748      1.00000
    171     -10.8747      1.00000
    172     -10.7918      1.00000
    173     -10.7523      1.00000
    174     -10.6553      1.00000
    175     -10.6525      1.00000
    176     -10.6166      1.00000
    177     -10.6165      1.00000
    178     -10.6049      1.00000
    179     -10.5214      1.00000
    180     -10.5190      1.00000
    181     -10.4537      1.00000
    182     -10.4525      1.00000
    183     -10.4477      1.00000
    184     -10.4476      1.00000
    185     -10.3827      1.00000
    186     -10.3826      1.00000
    187     -10.3583      1.00000
    188     -10.3582      1.00000
    189     -10.3545      1.00000
    190     -10.3531      1.00000
    191     -10.2994      1.00000
    192     -10.2994      1.00000
    193     -10.2711      1.00000
    194     -10.2708      1.00000
    195     -10.2609      1.00000
    196     -10.2609      1.00000
    197     -10.0825      1.00000
    198     -10.0824      1.00000
    199      -9.8853      1.00000
    200      -9.8716      1.00000
    201      -9.8716      1.00000
    202      -9.8643      1.00000
    203      -9.8634      1.00000
    204      -9.8184      1.00000
    205      -9.8184      1.00000
    206      -9.7689      1.00000
    207      -9.7681      1.00000
    208      -9.7242      1.00000
    209      -9.7226      1.00000
    210      -9.6807      1.00000
    211      -9.6792      1.00000
    212      -9.5902      1.00000
    213      -9.5901      1.00000
    214      -9.5785      1.00000
    215      -9.4950      1.00000
    216      -9.4827      1.00000
    217      -9.4234      1.00000
    218      -9.4232      1.00000
    219      -9.4216      1.00000
    220      -9.4146      1.00000
    221      -9.3661      1.00000
    222      -9.3509      1.00000
    223      -9.3509      1.00000
    224      -9.2115      1.00000
    225      -9.2097      1.00000
    226      -9.2039      1.00000
    227      -9.2015      1.00000
    228      -8.9432      1.00000
    229      -8.9429      1.00000
    230      -8.8896      1.00000
    231      -8.8893      1.00000
    232      -8.7736      1.00000
    233      -8.7731      1.00000
    234      -8.7729      1.00000
    235      -8.7728      1.00000
    236      -8.7589      1.00000
    237      -8.7589      1.00000
    238      -8.4849      1.00000
    239      -8.4834      1.00000
    240      -8.4643      1.00000
    241      -8.4153      1.00000
    242      -8.4149      1.00000
    243      -8.1969      1.00000
    244      -8.1964      1.00000
    245      -8.1801      1.00000
    246      -8.1798      1.00000
    247      -8.0575      1.00000
    248      -8.0573      1.00000
    249      -8.0496      1.00000
    250      -8.0487      1.00000
    251      -8.0107      1.00000
    252      -7.9486      1.00000
    253      -7.9460      1.00000
    254      -7.7667      1.00000
    255      -7.7663      1.00000
    256      -7.7448      1.00000
    257      -7.7439      1.00000
    258      -7.7288      1.00000
    259      -7.5934      1.00000
    260      -7.5780      1.00000
    261      -7.5776      1.00000
    262      -7.5302      1.00000
    263      -7.5299      1.00000
    264      -7.4975      1.00000
    265      -7.4973      1.00000
    266      -7.2872      1.00000
    267      -7.2849      1.00000
    268      -7.1901      1.00000
    269      -7.1898      1.00000
    270      -6.9535      1.00000
    271      -6.9076      1.00000
    272      -6.9073      1.00000
    273      -6.8625      1.00000
    274      -6.8604      1.00000
    275      -6.8582      1.00000
    276      -6.8576      1.00000
    277      -6.7878      1.00000
    278      -6.7024      1.00000
    279      -6.7020      1.00000
    280      -6.5914      1.00000
    281      -6.5889      1.00000
    282      -6.5565      1.00000
    283      -6.5545      1.00000
    284      -6.3279      1.00000
    285      -6.3257      1.00000
    286      -6.1161      1.00000
    287      -0.8736      0.00000
    288      -0.7890      0.00000
    289      -0.7385      0.00000
    290      -0.7162      0.00000
    291      -0.6982      0.00000
    292      -0.6743      0.00000
    293      -0.6706      0.00000
    294      -0.6681      0.00000
    295      -0.6461      0.00000
    296      -0.6434      0.00000
    297      -0.6231      0.00000
    298      -0.6195      0.00000
    299      -0.4968      0.00000
    300      -0.4910      0.00000
    301      -0.4729      0.00000
    302      -0.4690      0.00000
    303      -0.4082      0.00000
    304      -0.3769      0.00000
    305      -0.3352      0.00000
    306      -0.3070      0.00000
    307      -0.3021      0.00000
    308      -0.2778      0.00000
    309      -0.2734      0.00000
    310      -0.2001      0.00000
    311      -0.1899      0.00000
    312      -0.1879      0.00000
    313      -0.1151      0.00000
    314      -0.0721      0.00000
    315      -0.0656      0.00000
    316      -0.0537      0.00000
    317      -0.0398      0.00000
    318      -0.0259      0.00000
    319       0.0053      0.00000
    320       0.0500      0.00000
    321       0.0543      0.00000
    322       0.0566      0.00000
    323       0.1300      0.00000
    324       0.1383      0.00000
    325       0.1815      0.00000
    326       0.1967      0.00000
    327       0.2563      0.00000
    328       0.2813      0.00000
    329       0.3104      0.00000
    330       0.3304      0.00000
    331       0.3349      0.00000
    332       0.3468      0.00000
    333       0.3695      0.00000
    334       0.3988      0.00000
    335       0.4016      0.00000
    336       0.4045      0.00000
    337       0.4150      0.00000
    338       0.4238      0.00000
    339       0.4274      0.00000
    340       0.4294      0.00000
    341       0.4713      0.00000
    342       0.4778      0.00000
    343       0.5146      0.00000
    344       0.5658      0.00000
    345       0.5671      0.00000
    346       0.5995      0.00000
    347       0.6475      0.00000
    348       0.6740      0.00000
    349       0.6855      0.00000
    350       0.7111      0.00000
    351       0.7449      0.00000
    352       0.7711      0.00000
    353       0.7759      0.00000
[...]
      8.79253     13.77972     17.55704        -0.000161      0.001056      0.008021
     10.04857     15.95542     17.55783         0.000061      0.000820      0.008430
      2.51201     -1.44952     17.55988         0.000420      0.000554      0.010113
      3.76807      0.72613     17.56027         0.000721      0.000002      0.009789
      5.02434      2.90169     17.55745         0.000034      0.000449      0.010515
      6.28036      5.07729     17.55627        -0.000124      0.000811      0.009058
      7.53648      7.25286     17.55699        -0.000148      0.000378      0.007660
      8.79255      9.42847     17.55705         0.000301      0.001175      0.007343
     10.04864     11.60411     17.55713        -0.000043      0.000968      0.007863
     11.30468     13.77980     17.55830         0.000315      0.000629      0.008168
      3.76815     -3.62512     17.56037        -0.000014      0.000253      0.009911
      5.02414     -1.44942     17.56143         0.000515      0.000639      0.011791
      6.28030      0.72622     17.56099         0.000402     -0.000371      0.011893
      7.53634      2.90170     17.55706         0.000146      0.001198      0.009281
      8.79256      5.07727     17.55752        -0.000015      0.000641      0.008042
     10.04865      7.25288     17.55724         0.000289      0.001203      0.007350
     11.30473      9.42850     17.55705        -0.000024      0.000849      0.007479
     12.56079     11.60416     17.55789         0.000247      0.001061      0.008231
      5.02423     -5.80084     17.55847         0.000018      0.000584      0.008394
      6.28023     -3.62512     17.56036         0.000357      0.000375      0.010126
      7.53633     -1.44951     17.56073         0.000208      0.000693      0.008257
      8.79250      0.72611     17.55868        -0.000115      0.000295      0.009984
     10.04859      2.90171     17.55818         0.000217      0.000383      0.008153
     11.30473      5.07728     17.55752        -0.000022      0.000622      0.007396
     12.56082      7.25286     17.55701         0.000088      0.001127      0.007604
     13.81688      9.42848     17.55702         0.000201      0.000936      0.007938
      6.28033     -7.97652     17.55697        -0.000084      0.001309      0.007834
      7.53636     -5.80083     17.55789        -0.000056      0.000908      0.008043
      8.79242     -3.62518     17.55844         0.000346      0.000162      0.007882
     10.04853     -1.44956     17.55805         0.000208      0.000660      0.007926
     11.30466      0.72605     17.55759         0.000026      0.000781      0.007832
     12.56078      2.90163     17.55737        -0.000180      0.000980      0.007497
     13.81688      5.07722     17.55703         0.000172      0.000955      0.007609
     15.07298      7.25282     17.55684         0.000113      0.000982      0.007549
      7.53642    -10.15218     17.55685        -0.000161      0.001441      0.007542
      8.79247     -7.97652     17.55687        -0.000098      0.001271      0.007765
     10.04853     -5.80088     17.55709         0.000105      0.001390      0.007631
     11.30461     -3.62526     17.55702         0.000163      0.001089      0.007861
     12.56071     -1.44965     17.55693         0.000230      0.001020      0.007663
     13.81683      0.72595     17.55698         0.000027      0.001099      0.007563
     15.07294      2.90157     17.55694         0.000107      0.000816      0.007489
     16.32904      5.07718     17.55686         0.000170      0.001032      0.007611
      8.79249    -12.32777     17.55709         0.000069      0.000951      0.007580
     10.04857    -10.15212     17.55720        -0.000194      0.000958      0.007344
     11.30465     -7.97651     17.55699        -0.000051      0.000863      0.007662
     12.56074     -5.80092     17.55687        -0.000079      0.001331      0.007620
     13.81682     -3.62531     17.55686         0.000044      0.001255      0.007428
     15.07292     -1.44970     17.55686        -0.000102      0.001158      0.007518
     16.32901      0.72593     17.55690         0.000320      0.001161      0.007402
     17.58511      2.90157     17.55693         0.000010      0.001220      0.007534
     10.04856    -14.50332     17.55763         0.000436      0.000193      0.007902
     11.30464    -12.32768     17.55789         0.000040      0.000526      0.007800
     12.56075    -10.15210     17.55759         0.000038      0.000485      0.007320
     13.81685     -7.97653     17.55706        -0.000029      0.001180      0.007641
     15.07295     -5.80093     17.55692         0.000195      0.000627      0.007613
     16.32903     -3.62532     17.55689         0.000075      0.001232      0.007633
     17.58511     -1.44968     17.55691         0.000000      0.001277      0.007683
     18.84118      0.72599     17.55717         0.000016      0.001344      0.007833
      5.10800     -1.00016     23.25268        -0.005833      0.001668     -0.008867
      4.76117     -1.15839     21.79429         0.014603     -0.004581     -0.020275
      6.27791      2.62093     21.39970        -0.021800      0.013938     -0.007596
      6.43851     -1.04854     23.41524        -0.004481     -0.002696     -0.015157
      4.56454     -1.97537     24.01792        -0.001990     -0.004334      0.004205
      4.65254      0.17626     23.70867        -0.006074      0.006066     -0.010151
      5.26696     -2.24864     21.23311        -0.010121     -0.004230     -0.005642
      3.47186     -1.01267     21.52134        -0.006486     -0.003835      0.000783
      7.35858      2.19395     21.33753         0.006650      0.000721     -0.014005
      5.19488      3.04309     21.45716         0.009864      0.002253     -0.006414
 -----------------------------------------------------------------------------------
    total drift:                                0.003013     -0.186736      0.193640


--------------------------------------------------------------------------------------------------------



  FREE ENERGIE OF THE ION-ELECTRON SYSTEM (eV)
  ---------------------------------------------------
  free  energy   TOTEN  =     -1328.91475075 eV

  energy  without entropy=    -1328.91475075  energy(sigma->0) =    -1328.91475075
 


--------------------------------------------------------------------------------------------------------


    POTLOK:  cpu time   43.9698: real time   43.8686


--------------------------------------------------------------------------------------------------------


 writing wavefunctions
     LOOP+:  cpu time 8522.3915: real time 7157.5671
    4ORBIT:  cpu time    0.0000: real time    0.0000
 


 total charge     
 
# of ion       s       p       d       tot
------------------------------------------
    1        0.744   1.394   0.000   2.138
    2        0.744   1.394   0.000   2.138
    3        0.744   1.394   0.000   2.138
    4        0.744   1.394   0.000   2.138
    5        0.744   1.394   0.000   2.138
    6        0.744   1.394   0.000   2.138
    7        0.744   1.394   0.000   2.138
    8        0.744   1.394   0.000   2.138
    9        0.744   1.394   0.000   2.138
   10        0.744   1.394   0.000   2.138
   11        0.744   1.394   0.000   2.138
   12        0.744   1.394   0.000   2.139
   13        0.744   1.394   0.000   2.138
   14        0.744   1.394   0.000   2.138
   15        0.744   1.394   0.000   2.138
   16        0.744   1.394   0.000   2.138
   17        0.744   1.394   0.000   2.138
   18        0.744   1.394   0.000   2.138
   19        0.744   1.394   0.000   2.138
   20        0.744   1.394   0.000   2.138
   21        0.744   1.394   0.000   2.138
   22        0.744   1.394   0.000   2.138
   23        0.744   1.394   0.000   2.138
   24        0.744   1.394   0.000   2.138
   25        0.744   1.394   0.000   2.138
   26        0.744   1.394   0.000   2.138
   27        0.744   1.394   0.000   2.138
   28        0.744   1.394   0.000   2.138
   29        0.744   1.394   0.000   2.138
   30        0.744   1.394   0.000   2.138
   31        0.744   1.394   0.000   2.138
   32        0.744   1.394   0.000   2.138
   33        0.744   1.394   0.000   2.138
   34        0.744   1.394   0.000   2.138
   35        0.744   1.394   0.000   2.138
   36        0.744   1.394   0.000   2.138
   37        0.744   1.394   0.000   2.138
   38        0.744   1.394   0.000   2.138
   39        0.744   1.394   0.000   2.138
   40        0.744   1.394   0.000   2.138
   41        0.744   1.394   0.000   2.138
   42        0.744   1.394   0.000   2.138
   43        0.744   1.394   0.000   2.138
   44        0.744   1.394   0.000   2.138
   45        0.744   1.394   0.000   2.138
   46        0.744   1.394   0.000   2.138
   47        0.744   1.394   0.000   2.138
   48        0.744   1.394   0.000   2.138
   49        0.744   1.394   0.000   2.138
   50        0.744   1.394   0.000   2.138
   51        0.744   1.394   0.000   2.138
   52        0.744   1.394   0.000   2.138
   53        0.744   1.394   0.000   2.138
   54        0.744   1.394   0.000   2.138
   55        0.744   1.394   0.000   2.138
   56        0.744   1.394   0.000   2.138
   57        0.744   1.394   0.000   2.138
   58        0.744   1.394   0.000   2.138
   59        0.744   1.394   0.000   2.138
   60        0.744   1.394   0.000   2.138
   61        0.744   1.394   0.000   2.138
   62        0.744   1.394   0.000   2.138
   63        0.744   1.394   0.000   2.138
   64        0.744   1.394   0.000   2.138
   65        1.238   2.823   0.000   4.061
   66        1.238   2.823   0.000   4.061
   67        1.238   2.823   0.000   4.061
   68        1.238   2.823   0.000   4.061
   69        1.238   2.823   0.000   4.061
   70        1.238   2.823   0.000   4.061
   71        1.238   2.823   0.000   4.061
   72        1.238   2.823   0.000   4.061
   73        1.238   2.822   0.000   4.060
   74        1.238   2.822   0.000   4.060
   75        1.238   2.822   0.000   4.060
   76        1.238   2.822   0.000   4.060
   77        1.238   2.823   0.000   4.061
   78        1.238   2.823   0.000   4.061
   79        1.238   2.823   0.000   4.061
   80        1.238   2.823   0.000   4.061
   81        1.238   2.822   0.000   4.060
   82        1.238   2.822   0.000   4.060
   83        1.238   2.822   0.000   4.060
   84        1.238   2.822   0.000   4.060
   85        1.238   2.823   0.000   4.061
   86        1.238   2.823   0.000   4.061
   87        1.238   2.823   0.000   4.061
   88        1.238   2.823   0.000   4.061
   89        1.238   2.823   0.000   4.061
   90        1.238   2.822   0.000   4.060
   91        1.238   2.822   0.000   4.060
   92        1.238   2.823   0.000   4.061
   93        1.238   2.823   0.000   4.061
   94        1.238   2.823   0.000   4.061
   95        1.238   2.823   0.000   4.061
   96        1.238   2.823   0.000   4.061
   97        1.238   2.823   0.000   4.061
   98        1.238   2.823   0.000   4.061
   99        1.238   2.823   0.000   4.061
  100        1.238   2.823   0.000   4.061
  101        1.238   2.823   0.000   4.061
  102        1.238   2.823   0.000   4.061
  103        1.238   2.823   0.000   4.061
  104        1.238   2.823   0.000   4.061
  105        1.238   2.823   0.000   4.061
  106        1.238   2.823   0.000   4.061
  107        1.238   2.823   0.000   4.061
  108        1.238   2.823   0.000   4.061
  109        1.238   2.823   0.000   4.061
  110        1.238   2.823   0.000   4.061
  111        1.238   2.823   0.000   4.061
  112        1.238   2.823   0.000   4.061
  113        1.238   2.823   0.000   4.061
  114        1.238   2.823   0.000   4.061
  115        1.238   2.823   0.000   4.061
  116        1.238   2.823   0.000   4.061
  117        1.238   2.823   0.000   4.061
  118        1.238   2.823   0.000   4.061
  119        1.238   2.823   0.000   4.061
  120        1.238   2.823   0.000   4.061
  121        1.238   2.823   0.000   4.061
  122        1.238   2.823   0.000   4.061
  123        1.238   2.823   0.000   4.061
  124        1.238   2.823   0.000   4.061
  125        1.238   2.823   0.000   4.061
  126        1.238   2.823   0.000   4.061
  127        1.238   2.823   0.000   4.061
  128        1.238   2.823   0.000   4.061
  129        0.814   1.560   0.000   2.374
  130        0.836   1.566   0.000   2.402
  131        0.945   1.794   0.000   2.738
  132        1.758   4.413   0.000   6.171
  133        1.758   4.405   0.000   6.163
  134        1.758   4.413   0.000   6.171
  135        1.757   4.399   0.000   6.156
  136        1.757   4.400   0.000   6.157
  137        1.608   3.595   0.000   5.204
  138        1.608   3.595   0.000   5.203
--------------------------------------------------
tot        141.455 303.984   0.000 445.439
 


 magnetization (x)
 
# of ion       s       p       d       tot
------------------------------------------
    1        0.000  -0.000   0.000   0.000
    2       -0.000  -0.000   0.000  -0.000
    3        0.000   0.000   0.000   0.000
    4       -0.000   0.000   0.000   0.000
    5       -0.000  -0.000   0.000  -0.000
    6       -0.000  -0.000   0.000  -0.000
    7       -0.000  -0.000   0.000  -0.000
    8        0.000   0.000   0.000   0.000
    9        0.000  -0.000   0.000   0.000
   10       -0.000   0.000   0.000   0.000
   11        0.000   0.000   0.000   0.000
   12        0.000  -0.000   0.000  -0.000
   13       -0.000   0.000   0.000   0.000
   14       -0.000  -0.000   0.000  -0.000
   15       -0.000  -0.000   0.000  -0.000
   16       -0.000  -0.000   0.000  -0.000
   17        0.000   0.000   0.000   0.000
   18       -0.000  -0.000   0.000  -0.000
   19        0.000   0.000   0.000   0.000
   20       -0.000   0.000   0.000   0.000
   21       -0.000  -0.000   0.000  -0.000
   22       -0.000  -0.000   0.000  -0.000
   23       -0.000  -0.000   0.000  -0.000
   24       -0.000  -0.000   0.000  -0.000
   25       -0.000   0.000   0.000  -0.000
   26        0.000  -0.000   0.000  -0.000
   27        0.000  -0.000   0.000  -0.000
   28        0.000  -0.000   0.000  -0.000
   29       -0.000  -0.000   0.000  -0.000
   30       -0.000  -0.000   0.000  -0.000
   31        0.000  -0.000   0.000  -0.000
   32       -0.000  -0.000   0.000  -0.000
   33       -0.000  -0.000   0.000  -0.000
   34       -0.000  -0.000   0.000  -0.000
   35        0.000   0.000   0.000   0.000
   36       -0.000   0.000   0.000   0.000
   37       -0.000  -0.000   0.000  -0.000
   38       -0.000  -0.000   0.000  -0.000
   39       -0.000  -0.000   0.000  -0.000
   40        0.000  -0.000   0.000  -0.000
   41       -0.000  -0.000   0.000  -0.000
   42       -0.000  -0.000   0.000  -0.000
   43       -0.000  -0.000   0.000  -0.000
   44        0.000   0.000   0.000   0.000
   45        0.000  -0.000   0.000  -0.000
   46       -0.000  -0.000   0.000  -0.000
   47       -0.000  -0.000   0.000  -0.000
   48       -0.000  -0.000   0.000  -0.000
   49       -0.000  -0.000   0.000  -0.000
   50       -0.000  -0.000   0.000  -0.000
   51       -0.000  -0.000   0.000  -0.000
   52        0.000  -0.000   0.000  -0.000
   53       -0.000   0.000   0.000  -0.000
   54        0.000  -0.000   0.000  -0.000
   55       -0.000   0.000   0.000  -0.000
   56       -0.000  -0.000   0.000  -0.000
   57       -0.000  -0.000   0.000  -0.000
   58       -0.000  -0.000   0.000  -0.000
   59       -0.000  -0.000   0.000  -0.000
   60       -0.000  -0.000   0.000  -0.000
   61       -0.000   0.000   0.000  -0.000
   62       -0.000  -0.000   0.000  -0.000
   63       -0.000  -0.000   0.000  -0.000
   64       -0.000   0.000   0.000  -0.000
   65        0.000   0.000   0.000   0.000
   66        0.000   0.000   0.000   0.000
   67        0.000   0.000   0.000   0.000
   68        0.000   0.000   0.000   0.000
   69        0.000   0.000   0.000   0.000
   70       -0.000   0.000   0.000   0.000
   71        0.000   0.000   0.000   0.000
   72        0.000   0.000   0.000   0.000
   73       -0.000  -0.000   0.000  -0.000
   74       -0.000  -0.000   0.000  -0.000
   75       -0.000  -0.000   0.000  -0.000
   76        0.000   0.000   0.000   0.000
   77        0.000   0.000   0.000   0.000
   78        0.000   0.000   0.000   0.000
   79        0.000   0.000   0.000   0.000
   80        0.000   0.000   0.000   0.000
   81       -0.000  -0.000   0.000  -0.000
   82       -0.000  -0.000   0.000  -0.000
   83        0.000   0.000   0.000   0.000
   84        0.000  -0.000   0.000  -0.000
   85        0.000   0.000   0.000   0.000
   86       -0.000   0.000   0.000   0.000
   87       -0.000   0.000   0.000   0.000
   88        0.000  -0.000   0.000  -0.000
   89        0.000   0.000   0.000   0.000
   90       -0.000  -0.000   0.000  -0.000
   91       -0.000  -0.000   0.000  -0.000
   92       -0.000  -0.000   0.000  -0.000
   93        0.000   0.000   0.000   0.000
   94        0.000   0.000   0.000   0.000
   95       -0.000   0.000   0.000   0.000
   96        0.000   0.000   0.000   0.000
   97        0.000   0.000   0.000   0.000
   98        0.000   0.000   0.000   0.000
   99        0.000  -0.000   0.000  -0.000
  100        0.000   0.000   0.000   0.000
  101       -0.000   0.000   0.000   0.000
  102       -0.000   0.000   0.000   0.000
  103       -0.000   0.000   0.000   0.000
  104       -0.000   0.000   0.000   0.000
  105        0.000   0.000   0.000   0.000
  106       -0.000   0.000   0.000   0.000
  107        0.000   0.000   0.000   0.000
  108       -0.000   0.000   0.000   0.000
  109        0.000   0.000   0.000   0.000
  110        0.000   0.000   0.000   0.000
  111        0.000   0.000   0.000   0.000
  112        0.000   0.000   0.000   0.000
  113        0.000   0.000   0.000   0.000
  114        0.000   0.000   0.000   0.000
  115       -0.000   0.000   0.000   0.000
  116       -0.000   0.000   0.000   0.000
  117       -0.000   0.000   0.000   0.000
  118       -0.000   0.000   0.000   0.000
  119        0.000   0.000   0.000   0.000
  120        0.000   0.000   0.000   0.000
  121        0.000   0.000   0.000   0.000
  122        0.000   0.000   0.000   0.000
  123        0.000   0.000   0.000   0.000
  124        0.000   0.000   0.000   0.000
  125        0.000   0.000   0.000   0.000
  126        0.000   0.000   0.000   0.000
  127        0.000   0.000   0.000   0.000
  128        0.000   0.000   0.000   0.000
  129        0.004   0.011   0.000   0.015
  130        0.071   0.377   0.000   0.447
  131       -0.000   0.000   0.000   0.000
  132       -0.000  -0.000   0.000  -0.001
  133        0.001   0.030   0.000   0.031
  134       -0.000  -0.000   0.000  -0.001
  135        0.003   0.077   0.000   0.080
  136        0.003   0.077   0.000   0.080
  137        0.000   0.000   0.000   0.000
  138        0.000   0.000   0.000   0.000
--------------------------------------------------
tot          0.082   0.570   0.000   0.652
 

 total amount of memory used by VASP MPI-rank0  1926192. kBytes
=======================================================================

   base      :      30000. kBytes
   nonlr-proj:      63775. kBytes
   fftplans  :      68224. kBytes
   grid      :    1141764. kBytes
   one-center:        847. kBytes
   wavefun   :     621582. kBytes
 
  
  
 General timing and accounting informations for this job:
 ========================================================
  
                  Total CPU time used (sec):    10518.663
                            User time (sec):     9530.601
                          System time (sec):      988.062
                         Elapsed time (sec):     8708.888
  
                   Maximum memory used (kb):     3610900.
                   Average memory used (kb):           0.
  
                          Minor page faults:     10976922
                          Major page faults:            0
                 Voluntary context switches:        88875
