 vasp.5.4.4.18Apr17-6-g9f103f2a35 (build May 01 2020 14:57:12) complex          
  
 executed on             LinuxIFC date 2021.12.06  15:54:03
 running on   96 total cores
 distrk:  each k-point on   96 cores,    1 groups
 distr:  one band on NCORES_PER_BAND=  24 cores,    4 groups


--------------------------------------------------------------------------------------------------------


 INCAR:
 POTCAR:    PAW_PBE B 06Sep2000                   
 POTCAR:    PAW_PBE N 08Apr2002                   
 POTCAR:    PAW_PBE C 08Apr2002                   
 POTCAR:    PAW_PBE F 08Apr2002                   
 POTCAR:    PAW_PBE O 08Apr2002                   

 ----------------------------------------------------------------------------- 
|                                                                             |
|           W    W    AA    RRRRR   N    N  II  N    N   GGGG   !!!           |
|           W    W   A  A   R    R  NN   N  II  NN   N  G    G  !!!           |
|           W    W  A    A  R    R  N N  N  II  N N  N  G       !!!           |
|           W WW W  AAAAAA  RRRRR   N  N N  II  N  N N  G  GGG   !            |
|           WW  WW  A    A  R   R   N   NN  II  N   NN  G    G                |
|           W    W  A    A  R    R  N    N  II  N    N   GGGG   !!!           |
|                                                                             |
|      For optimal performance we recommend to set                            |
|        NCORE= 4 - approx SQRT( number of cores)                             |
|      NCORE specifies how many cores store one orbital (NPAR=cpu/NCORE).     |
|      This setting can  greatly improve the performance of VASP for DFT.     |
|      The default,   NCORE=1            might be grossly inefficient         |
|      on modern multi-core architectures or massively parallel machines.     |
|      Do your own testing !!!!                                               |
|      Unfortunately you need to use the default for GW and RPA calculations. |
|      (for HF NCORE is supported but not extensively tested yet)             |
|                                                                             |
 ----------------------------------------------------------------------------- 


 ----------------------------------------------------------------------------- 
|                                                                             |
|  ADVICE TO THIS USER RUNNING 'VASP/VAMP'   (HEAR YOUR MASTER'S VOICE ...):  |
|                                                                             |
|      You have switched on vdW-DFT.                                          |
|      This routine was written and supplied by Jiri Klimes.                  |
|      We recommed that you carefully read and cite the following             |
|      publication                                                            |
|      J. Klimes, D.R. Bowler, A. Michelides                                  |
|        J. Phys.: Cond Matt. 22 022201 (2010)                                |
|      J. Klimes, D.R. Bowler, A. Michelides                                  |
|        Phys. Rev. B. 83, 195131 (2011)                                      |
|      and references therein.                                                |
|                                                                             |
 ----------------------------------------------------------------------------- 

 POTCAR:    PAW_PBE B 06Sep2000                   
   VRHFIN =B: s2p1                                                              
   LEXCH  = PE                                                                  
   EATOM  =    71.1703 eV,    5.2309 Ry                                         
                                                                                
   TITEL  = PAW_PBE B 06Sep2000                                                 
   LULTRA =        F    use ultrasoft PP ?                                      
   IUNSCR =        1    unscreen: 0-lin 1-nonlin 2-no                           
   RPACOR =    1.200    partial core radius                                     
   POMASS =   10.811; ZVAL   =    3.000    mass and valenz                      
   RCORE  =    1.700    outmost cutoff radius                                   
   RWIGS  =    1.710; RWIGS  =    0.905    wigner-seitz radius (au A)           
   ENMAX  =  318.614; ENMIN  =  238.960 eV                                      
   ICORE  =        2    local potential                                         
   LCOR   =        T    correct aug charges                                     
   LPAW   =        T    paw PP                                                  
   EAUG   =  535.514                                                            
   DEXC   =    0.000                                                            
   RMAX   =    1.732    core radius for proj-oper                               
   RAUG   =    1.300    factor for augmentation sphere                          
   RDEP   =    1.757    radius for radial grids                                 
   RDEPT  =    1.436    core radius for aug-charge                              
                                                                                
   Atomic configuration                                                         
    4 entries                                                                   
     n  l   j            E        occ.                                          
     1  0  0.50      -180.5896   2.0000                                         
     2  0  0.50        -9.4431   2.0000                                         
     2  1  0.50        -3.6068   1.0000                                         
     3  2  1.50        -4.0817   0.0000                                         
   Description                                                                  
     l       E           TYP  RCUT    TYP  RCUT                                 
     0     -9.4430752     23  1.500                                             
     0      0.8675899     23  1.500                                             
     1     -3.6067955     23  1.700                                             
     1      6.1086146     23  1.700                                             
     2     -4.0817478      7  1.700                                             
  local pseudopotential read in
  partial core-charges read in
  partial kinetic energy density read in
  atomic valenz-charges read in
  non local Contribution for L=           0  read in
    real space projection operators read in
  non local Contribution for L=           0  read in
    real space projection operators read in
  non local Contribution for L=           1  read in
    real space projection operators read in
  non local Contribution for L=           1  read in
    real space projection operators read in
    PAW grid and wavefunctions read in
 
   number of l-projection  operators is LMAX  =           4
   number of lm-projection operators is LMMAX =           8
 
 POTCAR:    PAW_PBE N 08Apr2002                   
   VRHFIN =N: s2p3                                                              
   LEXCH  = PE                                                                  
   EATOM  =   264.5486 eV,   19.4438 Ry                                         
                                                                                
   TITEL  = PAW_PBE N 08Apr2002                                                 
   LULTRA =        F    use ultrasoft PP ?                                      
   IUNSCR =        1    unscreen: 0-lin 1-nonlin 2-no                           
   RPACOR =    1.200    partial core radius                                     
   POMASS =   14.001; ZVAL   =    5.000    mass and valenz                      
   RCORE  =    1.500    outmost cutoff radius                                   
   RWIGS  =    1.400; RWIGS  =    0.741    wigner-seitz radius (au A)           
   ENMAX  =  400.000; ENMIN  =  300.000 eV                                      
   ICORE  =        2    local potential                                         
   LCOR   =        T    correct aug charges                                     
   LPAW   =        T    paw PP                                                  
   EAUG   =  627.112                                                            
   DEXC   =    0.000                                                            
   RMAX   =    1.529    core radius for proj-oper                               
   RAUG   =    1.300    factor for augmentation sphere                          
   RDEP   =    1.514    radius for radial grids                                 
   RDEPT  =    1.338    core radius for aug-charge                              
                                                                                
   Atomic configuration                                                         
    4 entries                                                                   
     n  l   j            E        occ.                                          
     1  0  0.50      -384.7179   2.0000                                         
     2  0  0.50       -18.5828   2.0000                                         
     2  1  0.50        -7.0898   3.0000                                         
     3  2  1.50        -6.8029   0.0000                                         
   Description                                                                  
     l       E           TYP  RCUT    TYP  RCUT                                 
     0    -18.5828119     23  1.200                                             
     0    -13.5018863     23  1.200                                             
     1     -7.0897853     23  1.500                                             
     1      9.5240782     23  1.500                                             
     2     -6.8029130      7  1.500                                             
  local pseudopotential read in
  partial core-charges read in
  partial kinetic energy density read in
  atomic valenz-charges read in
  non local Contribution for L=           0  read in
    real space projection operators read in
  non local Contribution for L=           0  read in
    real space projection operators read in
  non local Contribution for L=           1  read in
    real space projection operators read in
  non local Contribution for L=           1  read in
    real space projection operators read in
    PAW grid and wavefunctions read in
 
   number of l-projection  operators is LMAX  =           4
   number of lm-projection operators is LMMAX =           8
 
 POTCAR:    PAW_PBE C 08Apr2002                   
   VRHFIN =C: s2p2                                                              
   LEXCH  = PE                                                                  
   EATOM  =   147.1560 eV,   10.8157 Ry                                         
                                                                                
   TITEL  = PAW_PBE C 08Apr2002                                                 
   LULTRA =        F    use ultrasoft PP ?                                      
   IUNSCR =        1    unscreen: 0-lin 1-nonlin 2-no                           
   RPACOR =    1.200    partial core radius                                     
   POMASS =   12.011; ZVAL   =    4.000    mass and valenz                      
   RCORE  =    1.500    outmost cutoff radius                                   
   RWIGS  =    1.630; RWIGS  =    0.863    wigner-seitz radius (au A)           
   ENMAX  =  400.000; ENMIN  =  300.000 eV                                      
   ICORE  =        2    local potential                                         
   LCOR   =        T    correct aug charges                                     
   LPAW   =        T    paw PP                                                  
   EAUG   =  644.873                                                            
   DEXC   =    0.000                                                            
   RMAX   =    1.529    core radius for proj-oper                               
   RAUG   =    1.300    factor for augmentation sphere                          
   RDEP   =    1.501    radius for radial grids                                 
   RDEPT  =    1.300    core radius for aug-charge                              
                                                                                
   Atomic configuration                                                         
    4 entries                                                                   
     n  l   j            E        occ.                                          
     1  0  0.50      -273.3789   2.0000                                         
     2  0  0.50       -13.7508   2.0000                                         
     2  1  0.50        -5.2854   2.0000                                         
     3  2  1.50        -5.4423   0.0000                                         
   Description                                                                  
     l       E           TYP  RCUT    TYP  RCUT                                 
     0    -13.7508458     23  1.200                                             
     0     -8.2022199     23  1.200                                             
     1     -5.2854383     23  1.500                                             
     1     34.0145650     23  1.500                                             
     2     -5.4423304      7  1.500                                             
  local pseudopotential read in
  partial core-charges read in
  partial kinetic energy density read in
  atomic valenz-charges read in
  non local Contribution for L=           0  read in
    real space projection operators read in
  non local Contribution for L=           0  read in
    real space projection operators read in
  non local Contribution for L=           1  read in
    real space projection operators read in
  non local Contribution for L=           1  read in
    real space projection operators read in
    PAW grid and wavefunctions read in
 
   number of l-projection  operators is LMAX  =           4
   number of lm-projection operators is LMMAX =           8
 
 POTCAR:    PAW_PBE F 08Apr2002                   
   VRHFIN =F: s2p5                                                              
   LEXCH  = PE                                                                  
   EATOM  =   659.6475 eV,   48.4827 Ry                                         
                                                                                
   TITEL  = PAW_PBE F 08Apr2002                                                 
   LULTRA =        F    use ultrasoft PP ?                                      
   IUNSCR =        1    unscreen: 0-lin 1-nonlin 2-no                           
   RPACOR =    1.200    partial core radius                                     
   POMASS =   18.998; ZVAL   =    7.000    mass and valenz                      
   RCORE  =    1.520    outmost cutoff radius                                   
   RWIGS  =    1.500; RWIGS  =    0.794    wigner-seitz radius (au A)           
   ENMAX  =  400.000; ENMIN  =  300.000 eV                                      
   ICORE  =        2    local potential                                         
   LCOR   =        T    correct aug charges                                     
   LPAW   =        T    paw PP                                                  
   EAUG   =  613.614                                                            
   RMAX   =    1.555    core radius for proj-oper                               
   RAUG   =    1.300    factor for augmentation sphere                          
   RDEP   =    1.539    radius for radial grids                                 
   RDEPT  =    1.299    core radius for aug-charge                              
                                                                                
   Atomic configuration                                                         
    4 entries                                                                   
     n  l   j            E        occ.                                          
     1  0  0.50      -663.3661   2.0000                                         
     2  0  0.50       -29.8995   2.0000                                         
     2  1  0.50       -11.1114   5.0000                                         
     3  2  1.50       -10.8847   0.0000                                         
   Description                                                                  
     l       E           TYP  RCUT    TYP  RCUT                                 
     0    -29.8995018     23  1.200                                             
     0     -9.5240782     23  1.200                                             
     1    -11.1113914     23  1.520                                             
     1      1.3605826     23  1.520                                             
     2    -10.8846608      7  1.500                                             
  local pseudopotential read in
  partial core-charges read in
  partial kinetic energy density read in
  atomic valenz-charges read in
  non local Contribution for L=           0  read in
    real space projection operators read in
  non local Contribution for L=           0  read in
    real space projection operators read in
  non local Contribution for L=           1  read in
    real space projection operators read in
  non local Contribution for L=           1  read in
    real space projection operators read in
    PAW grid and wavefunctions read in
 
   number of l-projection  operators is LMAX  =           4
   number of lm-projection operators is LMMAX =           8
 
 POTCAR:    PAW_PBE O 08Apr2002                   
   VRHFIN =O: s2p4                                                              
   LEXCH  = PE                                                                  
   EATOM  =   432.3788 eV,   31.7789 Ry                                         
                                                                                
   TITEL  = PAW_PBE O 08Apr2002                                                 
   LULTRA =        F    use ultrasoft PP ?                                      
   IUNSCR =        1    unscreen: 0-lin 1-nonlin 2-no                           
   RPACOR =    1.200    partial core radius                                     
   POMASS =   16.000; ZVAL   =    6.000    mass and valenz                      
   RCORE  =    1.520    outmost cutoff radius                                   
   RWIGS  =    1.550; RWIGS  =    0.820    wigner-seitz radius (au A)           
   ENMAX  =  400.000; ENMIN  =  300.000 eV                                      
   ICORE  =        2    local potential                                         
   LCOR   =        T    correct aug charges                                     
   LPAW   =        T    paw PP                                                  
   EAUG   =  605.392                                                            
   DEXC   =    0.000                                                            
   RMAX   =    1.553    core radius for proj-oper                               
   RAUG   =    1.300    factor for augmentation sphere                          
   RDEP   =    1.550    radius for radial grids                                 
   RDEPT  =    1.329    core radius for aug-charge                              
                                                                                
   Atomic configuration                                                         
    4 entries                                                                   
     n  l   j            E        occ.                                          
     1  0  0.50      -514.6923   2.0000                                         
     2  0  0.50       -23.9615   2.0000                                         
     2  1  0.50        -9.0305   4.0000                                         
     3  2  1.50        -9.5241   0.0000                                         
   Description                                                                  
     l       E           TYP  RCUT    TYP  RCUT                                 
     0    -23.9615318     23  1.200                                             
     0     -9.5240782     23  1.200                                             
     1     -9.0304911     23  1.520                                             
     1      8.1634956     23  1.520                                             
     2     -9.5240782      7  1.500                                             
  local pseudopotential read in
  partial core-charges read in
  partial kinetic energy density read in
  kinetic energy density of atom read in
  atomic valenz-charges read in
  non local Contribution for L=           0  read in
    real space projection operators read in
  non local Contribution for L=           0  read in
    real space projection operators read in
  non local Contribution for L=           1  read in
    real space projection operators read in
  non local Contribution for L=           1  read in
    real space projection operators read in
    PAW grid and wavefunctions read in
 
   number of l-projection  operators is LMAX  =           4
   number of lm-projection operators is LMMAX =           8
 
 Optimization of the real space projectors (new method)

 maximal supplied QI-value         = 22.11
 optimisation between [QCUT,QGAM] = [ 11.94, 23.88] = [ 39.92,159.67] Ry 
 Optimized for a Real-space Cutoff    1.18 Angstroem

   l    n(q)    QCUT    max X(q) W(low)/X(q) W(high)/X(q)  e(spline) 
   0      8    11.939    53.033    0.11E-03    0.34E-03    0.60E-07
   0      8    11.939    34.740    0.11E-03    0.34E-03    0.59E-07
   1      8    11.939    30.949    0.22E-03    0.20E-03    0.17E-06
   1      8    11.939    19.518    0.20E-03    0.18E-03    0.16E-06
 Optimization of the real space projectors (new method)

 maximal supplied QI-value         = 25.13
 optimisation between [QCUT,QGAM] = [ 11.81, 23.88] = [ 39.08,159.64] Ry 
 Optimized for a Real-space Cutoff    1.41 Angstroem

   l    n(q)    QCUT    max X(q) W(low)/X(q) W(high)/X(q)  e(spline) 
   0     10    11.813    79.467    0.48E-04    0.30E-04    0.67E-06
   0     10    11.813    66.151    0.47E-04    0.30E-04    0.67E-06
   1     10    11.813    20.169    0.11E-03    0.17E-03    0.11E-05
   1     10    11.813    14.454    0.11E-03    0.17E-03    0.11E-05
 Optimization of the real space projectors (new method)

 maximal supplied QI-value         = 25.13
 optimisation between [QCUT,QGAM] = [ 11.81, 23.88] = [ 39.08,159.64] Ry 
 Optimized for a Real-space Cutoff    1.18 Angstroem

   l    n(q)    QCUT    max X(q) W(low)/X(q) W(high)/X(q)  e(spline) 
   0      8    11.813   115.676    0.10E-03    0.16E-03    0.35E-06
   0      8    11.813    87.132    0.10E-03    0.16E-03    0.35E-06
   1      8    11.813     4.429    0.16E-03    0.13E-04    0.22E-06
   1      8    11.813     2.733    0.13E-03    0.10E-04    0.18E-06
 Optimization of the real space projectors (new method)

 maximal supplied QI-value         = 24.76
 optimisation between [QCUT,QGAM] = [ 11.88, 24.01] = [ 39.54,161.47] Ry 
 Optimized for a Real-space Cutoff    1.18 Angstroem

   l    n(q)    QCUT    max X(q) W(low)/X(q) W(high)/X(q)  e(spline) 
   0      8    11.883    14.049    0.56E-04    0.86E-04    0.22E-06
   0      8    11.883     8.945    0.81E-04    0.11E-03    0.30E-06
   1      8    11.883     7.086    0.16E-03    0.15E-04    0.31E-06
   1      8    11.883     6.747    0.15E-03    0.14E-04    0.28E-06
 Optimization of the real space projectors (new method)

 maximal supplied QI-value         = 24.76
 optimisation between [QCUT,QGAM] = [ 11.88, 24.01] = [ 39.54,161.47] Ry 
 Optimized for a Real-space Cutoff    1.18 Angstroem

   l    n(q)    QCUT    max X(q) W(low)/X(q) W(high)/X(q)  e(spline) 
   0      8    11.883    20.381    0.86E-04    0.11E-03    0.31E-06
   0      8    11.883    15.268    0.94E-04    0.12E-03    0.33E-06
   1      8    11.883     5.964    0.19E-03    0.18E-04    0.33E-06
   1      8    11.883     5.382    0.17E-03    0.20E-04    0.29E-06
  PAW_PBE B 06Sep2000                   :
 energy of atom  1       EATOM=  -71.1703
 kinetic energy error for atom=    0.0009 (will be added to EATOM!!)
  PAW_PBE N 08Apr2002                   :
 energy of atom  2       EATOM= -264.5486
 kinetic energy error for atom=    0.0116 (will be added to EATOM!!)
  PAW_PBE C 08Apr2002                   :
 energy of atom  3       EATOM= -147.1560
 kinetic energy error for atom=    0.0066 (will be added to EATOM!!)
  PAW_PBE F 08Apr2002                   :
 energy of atom  4       EATOM= -659.6475
 kinetic energy error for atom=    0.0296 (will be added to EATOM!!)
  PAW_PBE O 08Apr2002                   :
 energy of atom  5       EATOM= -432.3788
 kinetic energy error for atom=    0.0194 (will be added to EATOM!!)
 
 
 POSCAR: B N C F O                               
  positions in direct lattice
  velocities in cartesian coordinates

 METAGGA = SCAN     LMAXTAU =  6    LMIXTAU =  F

 exchange correlation table for  LEXCH =        8
   RHO(1)=    0.500       N(1)  =     2000
   RHO(2)=  100.500       N(2)  =     4000
 


--------------------------------------------------------------------------------------------------------


 ion  position               nearest neighbor table
   1  0.110  0.057  0.492-  42 1.45  43 1.45  37 1.45
   2  0.110  0.224  0.492-  37 1.45  44 1.45  38 1.45
   3  0.110  0.390  0.491-  39 1.45  38 1.45  45 1.45
   4  0.110  0.557  0.492-  46 1.45  40 1.45  39 1.45
   5  0.110  0.724  0.492-  47 1.45  40 1.45  41 1.45
   6  0.110  0.890  0.492-  48 1.45  41 1.45  42 1.45
   7  0.276  0.057  0.492-  48 1.45  49 1.45  43 1.45
   8  0.276  0.224  0.492-  43 1.45  44 1.45  50 1.45
   9  0.276  0.390  0.491-  45 1.45  51 1.45  44 1.45
  10  0.276  0.557  0.491-  46 1.45  52 1.45  45 1.45
  11  0.276  0.724  0.492-  53 1.45  46 1.45  47 1.45
  12  0.276  0.890  0.492-  47 1.45  54 1.45  48 1.45
  13  0.443  0.057  0.492-  54 1.45  49 1.45  55 1.45
  14  0.443  0.224  0.492-  49 1.45  56 1.45  50 1.45
  15  0.443  0.390  0.491-  50 1.45  57 1.45  51 1.45
  16  0.443  0.557  0.491-  52 1.45  51 1.45  58 1.45
  17  0.443  0.724  0.491-  53 1.45  59 1.45  52 1.45
  18  0.443  0.890  0.492-  53 1.45  60 1.45  54 1.45
  19  0.610  0.057  0.492-  60 1.45  61 1.45  55 1.45
  20  0.610  0.224  0.492-  55 1.45  62 1.45  56 1.45
  21  0.610  0.390  0.491-  56 1.45  63 1.45  57 1.45
  22  0.610  0.557  0.491-  58 1.45  57 1.45  64 1.45
  23  0.610  0.724  0.491-  59 1.45  65 1.45  58 1.45
  24  0.610  0.890  0.492-  60 1.45  66 1.45  59 1.45
  25  0.776  0.057  0.492-  66 1.45  67 1.45  61 1.45
  26  0.776  0.224  0.492-  61 1.45  68 1.45  62 1.45
  27  0.776  0.390  0.492-  62 1.45  69 1.45  63 1.45
  28  0.776  0.557  0.492-  70 1.45  63 1.45  64 1.45
  29  0.776  0.724  0.491-  71 1.45  65 1.45  64 1.45
  30  0.776  0.890  0.491-  65 1.45  66 1.45  72 1.45
  31  0.943  0.057  0.492-  72 1.45  67 1.45  37 1.45
  32  0.943  0.224  0.492-  67 1.45  68 1.45  38 1.45
  33  0.943  0.390  0.492-  39 1.45  68 1.45  69 1.45
  34  0.943  0.557  0.492-  40 1.45  70 1.45  69 1.45
  35  0.943  0.724  0.492-  41 1.45  70 1.45  71 1.45
  36  0.943  0.890  0.492-  42 1.45  71 1.45  72 1.45
  37  0.054  0.112  0.492-   2 1.45  31 1.45   1 1.45
  38  0.054  0.279  0.492-   3 1.45  32 1.45   2 1.45
  39  0.054  0.446  0.492-  33 1.45   3 1.45   4 1.45
  40  0.054  0.612  0.492-  34 1.45   4 1.45   5 1.45
  41  0.054  0.779  0.492-  35 1.45   6 1.45   5 1.45
  42  0.054  0.946  0.492-  36 1.45   1 1.45   6 1.45
  43  0.221  0.112  0.492-   8 1.45   1 1.45   7 1.45
  44  0.221  0.279  0.491-   2 1.45   8 1.45   9 1.45
  45  0.221  0.446  0.491-   9 1.45   3 1.45  10 1.45
  46  0.221  0.612  0.491-   4 1.45  10 1.45  11 1.45
  47  0.221  0.779  0.492-   5 1.45  12 1.45  11 1.45
  48  0.221  0.946  0.492-   6 1.45   7 1.45  12 1.45
  49  0.388  0.112  0.492-  14 1.45   7 1.45  13 1.45
  50  0.388  0.279  0.491-  15 1.45  14 1.45   8 1.45
  51  0.388  0.446  0.491-  16 1.45   9 1.45  15 1.45
  52  0.387  0.612  0.491-  10 1.45  16 1.45  17 1.45
  53  0.388  0.779  0.491-  17 1.45  18 1.45  11 1.45
  54  0.388  0.946  0.493-  13 1.45  12 1.45  18 1.45
  55  0.554  0.112  0.492-  20 1.45  13 1.45  19 1.45
  56  0.554  0.279  0.492-  21 1.45  14 1.45  20 1.45
  57  0.554  0.446  0.491-  22 1.45  15 1.45  21 1.45
  58  0.554  0.612  0.490-  22 1.45  23 1.45  16 1.45
  59  0.554  0.779  0.491-  23 1.45  24 1.45  17 1.45
  60  0.554  0.946  0.492-  19 1.45  24 1.45  18 1.45
  61  0.721  0.112  0.492-  26 1.45  19 1.45  25 1.45
  62  0.721  0.279  0.492-  27 1.45  20 1.45  26 1.45
  63  0.721  0.446  0.492-  21 1.45  28 1.45  27 1.45
  64  0.721  0.612  0.491-  29 1.45  22 1.45  28 1.45
  65  0.721  0.779  0.491-  30 1.45  23 1.45  29 1.45
  66  0.721  0.946  0.492-  25 1.45  30 1.45  24 1.45
  67  0.888  0.112  0.492-  32 1.45  25 1.45  31 1.45
  68  0.888  0.279  0.492-  26 1.45  33 1.45  32 1.45
  69  0.888  0.446  0.492-  27 1.45  33 1.45  34 1.45
  70  0.888  0.612  0.492-  28 1.45  35 1.45  34 1.45
  71  0.888  0.779  0.492-  29 1.45  36 1.45  35 1.45
  72  0.888  0.946  0.491-  31 1.45  30 1.45  36 1.45
  73  0.527  0.393  0.611-  81 1.35  82 1.35  75 1.55  74 1.56
  74  0.540  0.501  0.617-  83 1.35  84 1.35  76 1.55  73 1.56
  75  0.616  0.382  0.628-  90 1.35  89 1.35  79 1.55  73 1.55
  76  0.439  0.503  0.611-  86 1.35  85 1.36  77 1.55  74 1.55
  77  0.455  0.613  0.606-  87 1.36  88 1.36  78 1.54  76 1.55
  78  0.358  0.622  0.611-  91 1.37  92 1.37  77 1.54  80 1.56
  79  0.623  0.290  0.613-  95 1.34  94 1.34  93 1.34  75 1.55
  80  0.365  0.721  0.594-  97 1.24  96 1.25  78 1.56
  81  0.438  0.323  0.628-  73 1.35
  82  0.520  0.371  0.574-  73 1.35
  83  0.577  0.534  0.652-  74 1.35
  84  0.609  0.565  0.591-  74 1.35
  85  0.389  0.445  0.581-  76 1.36
  86  0.380  0.461  0.643-  76 1.35
  87  0.529  0.676  0.630-  77 1.36
  88  0.490  0.643  0.570-  77 1.36
  89  0.706  0.468  0.621-  75 1.35
  90  0.604  0.372  0.666-  75 1.35
  91  0.278  0.536  0.595-  78 1.37
  92  0.339  0.619  0.649-  78 1.37
  93  0.531  0.205  0.613-  79 1.34
  94  0.659  0.308  0.577-  79 1.34
  95  0.688  0.275  0.635-  79 1.34
  96  0.448  0.801  0.601-  80 1.25
  97  0.287  0.710  0.578-  80 1.24
 
  LATTYP: Found a hexagonal cell.
 ALAT       =    15.0731507304
 C/A-ratio  =     2.3296167479
  
  Lattice vectors:
  
 A1 = (   7.5365500567, -13.0537460594,   0.0000000000)
 A2 = (   7.5365500567,  13.0537460594,   0.0000000000)
 A3 = (   0.0000000000,   0.0000000000,  35.1146643856)


Analysis of symmetry for initial positions (statically):
=====================================================================
 Subroutine PRICEL returns:
 Original cell was already a primitive cell.
 

 Routine SETGRP: Setting up the symmetry group for a 
 hexagonal supercell.


 Subroutine GETGRP returns: Found  1 space group operations
 (whereof  1 operations were pure point group operations)
 out of a pool of 24 trial point group operations.


The static configuration has the point symmetry C_1 .


Analysis of symmetry for dynamics (positions and initial velocities):
=====================================================================
 Subroutine PRICEL returns:
 Original cell was already a primitive cell.
 

 Routine SETGRP: Setting up the symmetry group for a 
 hexagonal supercell.


 Subroutine GETGRP returns: Found  1 space group operations
 (whereof  1 operations were pure point group operations)
 out of a pool of 24 trial point group operations.


The dynamic configuration has the point symmetry C_1 .


Analysis of constrained symmetry for selective dynamics:
=====================================================================
 Subroutine PRICEL returns:
 Original cell was already a primitive cell.
 

 Routine SETGRP: Setting up the symmetry group for a 
 hexagonal supercell.


 Subroutine GETGRP returns: Found  1 space group operations
 (whereof  1 operations were pure point group operations)
 out of a pool of 24 trial point group operations.


The constrained configuration has the point symmetry C_1 .


Analysis of structural, dynamic, and magnetic symmetry:
=====================================================================
 Subroutine PRICEL returns:
 Original cell was already a primitive cell.
 

 Routine SETGRP: Setting up the symmetry group for a 
 hexagonal supercell.


 Subroutine GETGRP returns: Found  1 space group operations
 (whereof  1 operations were pure point group operations)
 out of a pool of 24 trial point group operations.


The magnetic configuration has the point symmetry C_1 .


 Subroutine INISYM returns: Found  1 space group operations
 (whereof  1 operations are pure point group operations),
 and found     1 'primitive' translations

 
 
 KPOINTS: K-Point Grid                            

Automatic generation of k-mesh.
Space group operators:
 irot       det(A)        alpha          n_x          n_y          n_z        tau_x        tau_y        tau_z
    1     1.000000     0.000000     1.000000     0.000000     0.000000     0.000000     0.000000     0.000000
 
 Subroutine IBZKPT returns following result:
 ===========================================
 
 Found      5 irreducible k-points:
 
 Following reciprocal coordinates:
            Coordinates               Weight
  0.000000  0.000000  0.000000      1.000000
  0.333333  0.000000  0.000000      2.000000
  0.000000  0.333333  0.000000      2.000000
  0.333333  0.333333  0.000000      2.000000
 -0.333333  0.333333  0.000000      2.000000
 
 Following cartesian coordinates:
            Coordinates               Weight
  0.000000  0.000000  0.000000      1.000000
  0.022114 -0.012768  0.000000      2.000000
  0.022114  0.012768  0.000000      2.000000
  0.044229  0.000000  0.000000      2.000000
  0.000000  0.025535  0.000000      2.000000
 


--------------------------------------------------------------------------------------------------------




 Dimension of arrays:
   k-points           NKPTS =      5   k-points in BZ     NKDIM =      5   number of bands    NBANDS=    316
   number of dos      NEDOS =   1200   number of ions     NIONS =     97
   non local maximal  LDIM  =      4   non local SUM 2l+1 LMDIM =      8
   total plane-waves  NPLWV = ******
   max r-space proj   IRMAX =   6598   max aug-charges    IRDMAX=   8974
   dimension x,y,z NGX =   120 NGY =  120 NGZ =  270
   dimension x,y,z NGXF=   240 NGYF=  240 NGZF=  540
   support grid    NGXF=   240 NGYF=  240 NGZF=  540
   ions per type =              36  36   8  15   2
   NGX,Y,Z   is equivalent  to a cutoff of  13.24, 13.24, 12.78 a.u.
   NGXF,Y,Z  is equivalent  to a cutoff of  26.47, 26.47, 25.57 a.u.

 SYSTEM =  SiC                                     
 POSCAR =  B N C F O                               

 Startparameter for this run:
   NWRITE =      2    write-flag & timer
   PREC   = accura    normal or accurate (medium, high low for compatibility)
   ISTART =      1    job   : 0-new  1-cont  2-samecut
   ICHARG =      0    charge: 1-file 2-atom 10-const
   ISPIN  =      2    spin polarized calculation?
   LNONCOLLINEAR =      F non collinear calculations
   LSORBIT =      F    spin-orbit coupling
   INIWAV =      1    electr: 0-lowe 1-rand  2-diag
   LASPH  =      T    aspherical Exc in radial PAW
   METAGGA=      F    non-selfconsistent MetaGGA calc.

 Electronic Relaxation 1
   ENCUT  =  550.0 eV  40.42 Ry    6.36 a.u.  28.82 28.82 67.15*2*pi/ulx,y,z
   ENINI  =  550.0     initial cutoff
   ENAUG  =  644.9 eV  augmentation charge cutoff
   NELM   =    100;   NELMIN=  2; NELMDL=  0     # of ELM steps 
   EDIFF  = 0.1E-04   stopping-criterion for ELM
   LREAL  =      T    real-space projection
   NLSPLINE    = F    spline interpolate recip. space projectors
   LCOMPAT=      F    compatible to vasp.4.4
   GGA_COMPAT  = T    GGA compatible to vasp.4.4-vasp.4.6
   LMAXPAW     = -100 max onsite density
   LMAXMIX     =    2 max onsite mixed and CHGCAR
   VOSKOWN=      0    Vosko Wilk Nusair interpolation
   ROPT   =   -0.00025  -0.00025  -0.00025  -0.00025
   ROPT   =   -0.00025
 Ionic relaxation
   EDIFFG = -.2E-01   stopping-criterion for IOM
   NSW    =    500    number of steps for IOM
   NBLOCK =      1;   KBLOCK =    500    inner block; outer block 
   IBRION =      2    ionic relax: 0-MD 1-quasi-New 2-CG
   NFREE  =      1    steps in history (QN), initial steepest desc. (CG)
   ISIF   =      2    stress and relaxation
   IWAVPR =     11    prediction:  0-non 1-charg 2-wave 3-comb
   ISYM   =      2    0-nonsym 1-usesym 2-fastsym
   LCORR  =      T    Harris-Foulkes like correction to forces

   POTIM  = 0.5000    time-step for ionic-motion
   TEIN   =    0.0    initial temperature
   TEBEG  =    0.0;   TEEND  =   0.0 temperature during run
   SMASS  =  -3.00    Nose mass-parameter (am)
   estimated Nose-frequenzy (Omega)   =  0.10E-29 period in steps =****** mass=  -0.519E-26a.u.
   SCALEE = 1.0000    scale energy and forces
   NPACO  =    256;   APACO  = 16.0  distance and # of slots for P.C.
   PSTRESS=    0.0 pullay stress

  Mass of Ions in am
   POMASS =  10.81 14.00 12.01 19.00 16.00
  Ionic Valenz
   ZVAL   =   3.00  5.00  4.00  7.00  6.00
  Atomic Wigner-Seitz radii
   RWIGS  =  -1.00 -1.00 -1.00 -1.00 -1.00
  virtual crystal weights 
   VCA    =   1.00  1.00  1.00  1.00  1.00
   NELECT =     437.0000    total number of electrons
   NUPDOWN=      -1.0000    fix difference up-down

 DOS related values:
   EMIN   =  10.00;   EMAX   =-10.00  energy-range for DOS
   EFERMI =   0.00
   ISMEAR =     0;   SIGMA  =   0.05  broadening in eV -4-tet -1-fermi 0-gaus

 Electronic relaxation 2 (details)
   IALGO  =     68    algorithm
   LDIAG  =      T    sub-space diagonalisation (order eigenvalues)
   LSUBROT=      F    optimize rotation matrix (better conditioning)
   TURBO    =      0    0=normal 1=particle mesh
   IRESTART =      0    0=no restart 2=restart with 2 vectors
   NREBOOT  =      0    no. of reboots
   NMIN     =      0    reboot dimension
   EREF     =   0.00    reference energy to select bands
   IMIX   =      4    mixing-type and parameters
     AMIX     =   0.40;   BMIX     =  1.00
     AMIX_MAG =   1.60;   BMIX_MAG =  1.00
     AMIN     =   0.10
     WC   =   100.;   INIMIX=   1;  MIXPRE=   1;  MAXMIX= -45

 Intra band minimization:
   WEIMIN = 0.0010     energy-eigenvalue tresh-hold
   EBREAK =  0.79E-08  absolut break condition
   DEPER  =   0.30     relativ break condition  

   TIME   =   0.40     timestep for ELM

  volume/ion in A,a.u.               =      71.23       480.67
  Fermi-wavevector in a.u.,A,eV,Ry     =   0.652269  1.232609  5.788660  0.425454
  Thomas-Fermi vector in A             =   1.722135
 
 Write flags
   LWAVE        =      T    write WAVECAR
   LDOWNSAMPLE  =      F    k-point downsampling of WAVECAR
   LCHARG       =      F    write CHGCAR
   LVTOT        =      F    write LOCPOT, total local potential
   LVHAR        =      T    write LOCPOT, Hartree potential only
   LELF         =      F    write electronic localiz. function (ELF)
   LORBIT       =     11    0 simple, 1 ext, 2 COOP (PROOUT), +10 PAW based schemes


 Dipole corrections
   LMONO  =      F    monopole corrections only (constant potential shift)
   LDIPOL =      F    correct potential (dipole corrections)
   IDIPOL =      0    1-x, 2-y, 3-z, 4-all directions 
   EPSILON=  1.0000000 bulk dielectric constant

 Exchange correlation treatment:
   GGA     =    --    GGA type
   LEXCH   =     8    internal setting for exchange type
   VOSKOWN=      0    Vosko Wilk Nusair interpolation
   LHFCALC =     F    Hartree Fock is set to
   LHFONE  =     F    Hartree Fock one center treatment
   AEXX    =    0.0000 exact exchange contribution

 vdW DFT:
   LUSE_VDW   =     T    switch on vdW DFT
   Zab_VDW    =-.8491    correlation parameter
   PARAM1     =0.1234
   PARAM2     =1.0000
   PARAM3     =0.0000
   -- rVV10 --
   BPARAM     =15.7000
   CPARAM     = 0.0093

 Linear response parameters
   LEPSILON=     F    determine dielectric tensor
   LRPA    =     F    only Hartree local field effects (RPA)
   LNABLA  =     F    use nabla operator in PAW spheres
   LVEL    =     F    velocity operator in full k-point grid
   LINTERFAST=   F  fast interpolation
   KINTER  =     0    interpolate to denser k-point grid
   CSHIFT  =0.1000    complex shift for real part using Kramers Kronig
   OMEGAMAX=  -1.0    maximum frequency
   DEG_THRESHOLD= 0.2000000E-02 threshold for treating states as degnerate
   RTIME   =   -0.100 relaxation time in fs
  (WPLASMAI=    0.000 imaginary part of plasma frequency in eV, 0.658/RTIME)
   DFIELD  = 0.0000000 0.0000000 0.0000000 field for delta impulse in time
 
 Orbital magnetization related:
   ORBITALMAG=     F  switch on orbital magnetization
   LCHIMAG   =     F  perturbation theory with respect to B field
   DQ        =  0.001000  dq finite difference perturbation B field
   LLRAUG    =     F  two centre corrections for induced B field

 Solvation model:
   LSOL    =     T         switch on solvation model
   EB_K    = 78.400000     relative permittivity of the bulk solvent
   SIGMA_K =  0.600000     width of the dielectric cavity
   NC_K    =  0.002500     cutoff charge density
   TAU     =  0.000000     cavity surface tension
   LAMBDA_D_K    =  3.040000     Debye length in Angstroms
   LRHOB     =     F     write boundcharge  density
   LRHOION     =     F     write ioniccharge density



--------------------------------------------------------------------------------------------------------


 conjugate gradient relaxation of ions
   using selective dynamics as specified on POSCAR
 charge density and potential will be updated during run
 spin polarized calculation
 RMM-DIIS sequential band-by-band and
  variant of blocked Davidson during initial phase
 perform sub-space diagonalisation
    before iterative eigenvector-optimisation
 modified Broyden-mixing scheme, WC =      100.0
 initial mixing is a Kerker type mixing with AMIX =  0.4000 and BMIX =      1.0000
 Hartree-type preconditioning will be used
 using additional bands           97
 real space projection scheme for non local part
 use partial core corrections
 calculate Harris-corrections to forces 
   (improved forces if not selfconsistent)
 use gradient corrections 
 use of overlap-Matrix (Vanderbilt PP)
 Gauss-broadening in eV      SIGMA  =   0.05


--------------------------------------------------------------------------------------------------------


  energy-cutoff  :      550.00
  volume of cell :     6909.18
      direct lattice vectors                 reciprocal lattice vectors
     7.536550057-13.053746059  0.000000000     0.066343353 -0.038303181  0.000000000
     7.536550057 13.053746059  0.000000000     0.066343353  0.038303181  0.000000000
     0.000000000  0.000000000 35.114664386     0.000000000  0.000000000  0.028478131

  length of vectors
    15.073150730 15.073150730 35.114664386     0.076606620  0.076606620  0.028478131


 
 old parameters found on file WAVECAR:
  energy-cutoff  :      600.00
  volume of cell :     6909.18
      direct lattice vectors                 reciprocal lattice vectors
     7.536550057-13.053746059  0.000000000     0.066343353 -0.038303181  0.000000000
     7.536550057 13.053746059  0.000000000     0.066343353  0.038303181  0.000000000
     0.000000000  0.000000000 35.114664386     0.000000000  0.000000000  0.028478131

  length of vectors

 
 k-points in units of 2pi/SCALE and weight: K-Point Grid                            
   0.00000000  0.00000000  0.00000000       0.111
   0.02211445 -0.01276773  0.00000000       0.222
   0.02211445  0.01276773  0.00000000       0.222
   0.04422890  0.00000000  0.00000000       0.222
   0.00000000  0.02553545  0.00000000       0.222
 
 k-points in reciprocal lattice and weights: K-Point Grid                            
   0.00000000  0.00000000  0.00000000       0.111
   0.33333333  0.00000000  0.00000000       0.222
   0.00000000  0.33333333  0.00000000       0.222
   0.33333333  0.33333333  0.00000000       0.222
  -0.33333333  0.33333333  0.00000000       0.222
 
 position of ions in fractional coordinates (direct lattice) 
   0.10976883  0.05691805  0.49172840
   0.10977868  0.22359256  0.49152389
   0.10977303  0.39026458  0.49147273
   0.10982789  0.55694686  0.49157839
   0.10985771  0.72359604  0.49193284
   0.10978440  0.89024934  0.49193690
   0.27642870  0.05690761  0.49220397
   0.27643656  0.22359629  0.49160682
   0.27643467  0.39027565  0.49112501
   0.27640137  0.55698087  0.49116410
   0.27649769  0.72357737  0.49205606
   0.27640425  0.89016731  0.49233458
   0.44307662  0.05689341  0.49248508
   0.44308829  0.22359131  0.49185813
   0.44309782  0.39027580  0.49088432
   0.44305672  0.55695484  0.49056096
   0.44305399  0.72362998  0.49113085
   0.44307257  0.89015435  0.49203082
   0.60976127  0.05689654  0.49203515
   0.60976169  0.22358563  0.49187007
   0.60974960  0.39025610  0.49127402
   0.60973219  0.55692780  0.49076822
   0.60974455  0.72357380  0.49092454
   0.60974722  0.89024352  0.49153010
   0.77643069  0.05690484  0.49161783
   0.77642901  0.22357405  0.49167370
   0.77643216  0.39021860  0.49159927
   0.77643308  0.55691285  0.49151080
   0.77643131  0.72358537  0.49135713
   0.77642377  0.89023493  0.49141413
   0.94309929  0.05692108  0.49154172
   0.94309130  0.22358095  0.49156768
   0.94311454  0.39024552  0.49160742
   0.94312992  0.55693554  0.49173608
   0.94310899  0.72357685  0.49168914
   0.94310459  0.89024321  0.49157224
   0.05421639  0.11248492  0.49156532
   0.05421565  0.27915884  0.49151618
   0.05420553  0.44580190  0.49153589
   0.05420999  0.61245664  0.49179273
   0.05421980  0.77912443  0.49185274
   0.05421382  0.94580754  0.49171553
   0.22088611  0.11248498  0.49187203
   0.22089043  0.27916293  0.49142242
   0.22088443  0.44582785  0.49127489
   0.22083773  0.61243836  0.49129424
   0.22088291  0.77913638  0.49205933
   0.22088140  0.94580282  0.49223043
   0.38755096  0.11249466  0.49238333
   0.38756406  0.27918434  0.49147327
   0.38754302  0.44584640  0.49066243
   0.38748693  0.61248066  0.49083017
   0.38761294  0.77917416  0.49143359
   0.38754604  0.94579689  0.49250973
   0.55421496  0.11249366  0.49230586
   0.55420286  0.27915777  0.49165401
   0.55420725  0.44583819  0.49078150
   0.55418675  0.61246454  0.49045845
   0.55419555  0.77912228  0.49114362
   0.55422550  0.94581949  0.49187789
   0.72087581  0.11247137  0.49177000
   0.72086900  0.27913296  0.49162175
   0.72085112  0.44578150  0.49153200
   0.72085166  0.61246640  0.49128506
   0.72085399  0.77912549  0.49123601
   0.72086983  0.94579671  0.49150195
   0.88754344  0.11248002  0.49154814
   0.88753587  0.27913552  0.49158377
   0.88753564  0.44579176  0.49165929
   0.88752796  0.61246325  0.49167275
   0.88753856  0.77913027  0.49154113
   0.88754413  0.94580780  0.49148783
   0.52657707  0.39257685  0.61131964
   0.53966930  0.50092990  0.61663021
   0.61613903  0.38238787  0.62837389
   0.43854784  0.50348798  0.61148304
   0.45485155  0.61286997  0.60574117
   0.35777266  0.62153737  0.61111270
   0.62333494  0.28999291  0.61275189
   0.36543655  0.72075970  0.59433462
   0.43846742  0.32250556  0.62822233
   0.52030830  0.37140648  0.57359735
   0.57671808  0.53435002  0.65203832
   0.60877099  0.56466042  0.59071665
   0.38912381  0.44528526  0.58068717
   0.37962438  0.46137923  0.64273409
   0.52857900  0.67628466  0.63045332
   0.48959694  0.64285921  0.56966647
   0.70601509  0.46833951  0.62059067
   0.60410673  0.37160717  0.66648971
   0.27775313  0.53572465  0.59549776
   0.33878218  0.61852071  0.64943510
   0.53105741  0.20495706  0.61330423
   0.65901115  0.30764720  0.57702015
   0.68761271  0.27546431  0.63461895
   0.44811915  0.80087343  0.60074090
   0.28748887  0.70963448  0.57783913
 
 position of ions in cartesian coordinates  (Angst):
   1.25624396 -0.68990067 17.26687775
   2.51246906  1.48569752 17.25969656
   3.76855845  3.66146553 17.25790007
   5.02518128  5.83657739 17.26161010
   6.28136588  8.01158431 17.27405657
   7.53680431 10.18799106 17.27419911
   2.51220574 -2.86557256 17.28357711
   3.76852257 -0.68976345 17.26260846
   5.02469571  1.48605127 17.24568974
   6.28082697  3.66261359 17.24706257
   7.53711576  5.83606461 17.27838328
   8.79192493  8.01190716 17.28816359
   3.76804921 -5.04113753 17.29344840
   5.02446420 -2.86525787 17.27143316
   6.28076201 -0.68952525 17.23723820
   7.53663717  1.48679707 17.22588360
   8.79277212  3.66256771 17.24589512
  10.04793141  5.83609199 17.27749698
   5.02429993 -7.21695584 17.27764906
   6.28056376 -5.04104428 17.27185235
   7.53659300 -2.86521237 17.25092234
   8.79259137 -0.68929505 17.23316121
  10.04862049  1.48589815 17.23865055
  11.30475529  3.66152741 17.25991434
   6.28047493 -9.39250784 17.26299526
   7.53657311 -7.21682814 17.26495696
   8.79252182 -5.04153366 17.26234354
  10.04882834 -2.86556129 17.25923679
  11.30495080 -0.68983760 17.25384078
  12.56085667  1.48566195 17.25584209
   7.53670357-11.56794529 17.26032259
   8.79268380 -9.39230532 17.26123394
  10.04893482 -7.21701178 17.26262945
  11.30531841 -5.04128341 17.26714735
  12.56106128 -2.86571675 17.26549897
  13.81711744 -0.69003907 17.26139435
   1.25635274  0.76062253 17.26115126
   2.51249350  2.93635122 17.25942563
   3.76833101  5.11179962 17.26011781
   5.02436644  7.28721012 17.26913659
   6.28054056  9.46272095 17.27124401
   7.53671103 11.63863811 17.26642571
   2.51246795 -1.41504078 17.27192113
   3.76867718  0.76067430 17.25613330
   5.02471046  2.93635436 17.25095290
   6.28002700  5.11185517 17.25163236
   7.53669548  7.28729900 17.27849831
   8.79277406  9.46294016 17.28450631
   3.76861886 -3.59051514 17.28987538
   5.02498271 -1.41476134 17.25791885
   6.28088108  0.76107755 17.22944650
   7.53630583  2.93701109 17.23533661
   8.79354940  5.11134066 17.25652553
  10.04880575  7.28726484 17.29431386
   5.02468286 -5.76611762 17.28715509
   6.28066410 -3.59036878 17.26426556
   7.53689257 -1.41462217 17.23362773
   8.79252588  0.76074351 17.22228384
  10.04861655  2.93613648 17.24634331
  11.30516418  5.11176854 17.27212698
   6.28056275 -7.94195704 17.26833842
   7.53656484 -5.76631004 17.26313263
   8.79238517 -3.59068900 17.25998130
  10.04861832 -1.41483375 17.25130996
  11.30467047  0.76066135 17.24958756
  12.56091577  2.93613844 17.25892596
   7.53672690-10.11748108 17.26054812
   8.79267735 -7.94190370 17.26179927
  10.04868874 -5.76641247 17.26445094
  11.30475884 -3.59062487 17.26492356
  12.56093307 -1.41513431 17.26030176
  13.81714859  0.76055927 17.25843015
   6.92724952 -1.74920480 21.46628393
   7.84252795 -0.50569425 21.65276294
   7.52544795 -3.05132835 22.06513830
   7.09970007  0.84771214 21.47202160
   8.04693670  2.06273239 21.27039788
   7.38061911  3.44311757 21.45901730
   6.88334109 -4.35136217 21.51657708
   8.18617240  4.63829818 20.86986089
   5.73511092 -1.51373667 22.05981625
   6.72045305 -1.94372655 20.14167848
   8.37362032 -0.55306196 22.89610669
   8.84362462 -0.57580818 20.74281685
   6.28856571  0.73311725 20.39063507
   6.33826585  1.06720705 22.56939179
   9.08051526  1.92811224 22.13815663
   8.53481249  2.00064678 20.00364683
   8.85058221 -3.10255661 21.79183309
   7.35351666 -3.03499011 23.40356243
   6.13081602  3.36749478 20.91070416
   7.21476115  3.65163567 22.80469567
   5.54700991 -4.25683124 21.53597205
   7.28526903 -4.58661575 20.26186885
   7.25827817 -5.38008062 22.28443128
   9.41309512  4.60476484 21.09481498
   7.51487005  5.51058163 20.29062706
 


--------------------------------------------------------------------------------------------------------


 k-point  1 :   0.0000 0.0000 0.0000  plane waves:  202395
 k-point  2 :   0.3333 0.0000 0.0000  plane waves:  202358
 k-point  3 :   0.0000 0.3333 0.0000  plane waves:  202358
 k-point  4 :   0.3333 0.3333 0.0000  plane waves:  202335
 k-point  5 :  -0.3333 0.3333 0.0000  plane waves:  202358

 maximum and minimum number of plane-waves per node :      8479     8400

 maximum number of plane-waves:    202395
 maximum index in each direction: 
   IXMAX=   29   IYMAX=   28   IZMAX=   67
   IXMIN=  -29   IYMIN=  -29   IZMIN=  -67


 real space projection operators:
  total allocation   :      28536.88 KBytes
  max/ min on nodes  :       1201.81       1175.88


 parallel 3D FFT for wavefunctions:
    minimum data exchange during FFTs selected (reduces bandwidth)
 parallel 3D FFT for charge:
    minimum data exchange during FFTs selected (reduces bandwidth)


 total amount of memory used by VASP MPI-rank0   237380. kBytes
=======================================================================

   base      :      30000. kBytes
   nonlr-proj:      12362. kBytes
   fftplans  :      17498. kBytes
   grid      :      70152. kBytes
   one-center:         30. kBytes
   wavefun   :     107338. kBytes
 
     INWAV:  cpu time   32.3769: real time   33.7358
 Broyden mixing: mesh for mixing (old mesh)
   NGX = 57   NGY = 57   NGZ =135
  (NGX  =240   NGY  =240   NGZ  =540)
  gives a total of 438615 points

 charge density for first step will be calculated from the start-wavefunctions


--------------------------------------------------------------------------------------------------------


 Maximum index for non-local projection operator          369
 Maximum index for augmentation-charges          384 (set IRDMAX)


--------------------------------------------------------------------------------------------------------


 initial charge from wavefunction
 First call to EWALD:  gamma=   0.093
 Maximum number of real-space cells 4x 4x 2
 Maximum number of reciprocal cells 2x 2x 5

    FEWALD:  cpu time    0.0377: real time    0.0378


--------------------------------------- Iteration      1(   1)  ---------------------------------------


    POTLOK:  cpu time   36.0013: real time   36.6571
    SETDIJ:  cpu time    0.7443: real time    0.7460
     EDDAV:  cpu time  182.4313: real time  182.7252
       DOS:  cpu time    0.0851: real time    0.0847
    CHARGE:  cpu time   38.9613: real time   39.0239
    MIXING:  cpu time    0.0425: real time    0.0429
    --------------------------------------------
      LOOP:  cpu time  258.2659: real time  259.2799

 eigenvalue-minimisations  :  6368
 total energy-change (2. order) :-0.8763137E+03  (-0.1004183E-02)
 number of electron     437.0000019 magnetization      -0.3748331
 augmentation part       29.2216489 magnetization      -0.0952400

 Broyden mixing:
  rms(total) = 0.47911E-01    rms(broyden)= 0.47863E-01
  rms(prec ) = 0.49516E-01
  weight for this iteration     100.00

 Free energy of the ion-electron system (eV)
  ---------------------------------------------------
  alpha Z        PSCENC =       138.40680205
  Ewald energy   TEWEN  =    165950.58384309
  -Hartree energ DENC   =   -186635.47699346
  -exchange      EXHF   =         0.00000000
  -V(xc)+E(xc)   XCENC  =      2121.32155308
  PAW double counting   =     48698.64329420   -48930.67071936
  entropy T*S    EENTRO =        -0.02649394
  eigenvalues    EBANDS =     -6699.28679786
  atomic energy  EATOM  =     24021.61036476
  Solvation  Ediel_sol  =       458.58147811
  ---------------------------------------------------
  free energy    TOTEN  =      -876.31366932 eV

  energy without entropy =     -876.28717538  energy(sigma->0) =     -876.30042235


--------------------------------------------------------------------------------------------------------




--------------------------------------- Iteration      1(   2)  ---------------------------------------


    POTLOK:  cpu time   30.2791: real time   30.3320
    SETDIJ:  cpu time    0.7360: real time    0.7376
    EDDIAG:  cpu time   42.5473: real time   42.6057
  RMM-DIIS:  cpu time  237.0051: real time  237.4786
    ORTHCH:  cpu time    1.2068: real time    1.2095
       DOS:  cpu time    0.0037: real time    0.0037
    CHARGE:  cpu time   35.6919: real time   35.7635
    MIXING:  cpu time    0.0307: real time    0.0319
    --------------------------------------------
      LOOP:  cpu time  347.5006: real time  348.1625

 eigenvalue-minimisations  :  6320
 total energy-change (2. order) : 0.8798567E-03  (-0.1703227E-02)
 number of electron     437.0000019 magnetization      -0.3759856
 augmentation part       29.1975858 magnetization       0.0086798

 Broyden mixing:
  rms(total) = 0.15799E+00    rms(broyden)= 0.15785E+00
  rms(prec ) = 0.16178E+00
  weight for this iteration     100.00

 eigenvalues of (default mixing * dielectric matrix)
  average eigenvalue GAMMA=   0.2212
  0.2212

 Free energy of the ion-electron system (eV)
  ---------------------------------------------------
  alpha Z        PSCENC =       138.40680205
  Ewald energy   TEWEN  =    165950.58384309
  -Hartree energ DENC   =   -186635.91480038
  -exchange      EXHF   =         0.00000000
  -V(xc)+E(xc)   XCENC  =      2121.40520003
  PAW double counting   =     48699.80031052   -48931.83494012
  entropy T*S    EENTRO =        -0.02501985
  eigenvalues    EBANDS =     -6699.00967108
  atomic energy  EATOM  =     24021.61036476
  Solvation  Ediel_sol  =       458.66512151
  ---------------------------------------------------
  free energy    TOTEN  =      -876.31278947 eV

  energy without entropy =     -876.28776961  energy(sigma->0) =     -876.30027954


--------------------------------------------------------------------------------------------------------




--------------------------------------- Iteration      1(   3)  ---------------------------------------


    POTLOK:  cpu time   30.6143: real time   30.6806
    SETDIJ:  cpu time    0.7488: real time    0.7506
    EDDIAG:  cpu time   42.1312: real time   42.2179
  RMM-DIIS:  cpu time  236.7929: real time  237.2686
    ORTHCH:  cpu time    1.1825: real time    1.1853
       DOS:  cpu time    0.0032: real time    0.0032
    CHARGE:  cpu time   38.1266: real time   38.2042
    MIXING:  cpu time    0.0166: real time    0.0166
    --------------------------------------------
      LOOP:  cpu time  349.6160: real time  350.3270

 eigenvalue-minimisations  :  6318
 total energy-change (2. order) :-0.1764058E-02  (-0.1377572E-02)
 number of electron     437.0000019 magnetization      -0.3765488
 augmentation part       29.2065208 magnetization      -0.0289863

 Broyden mixing:
  rms(total) = 0.67917E-01    rms(broyden)= 0.67907E-01
  rms(prec ) = 0.69943E-01
  weight for this iteration     100.00

 eigenvalues of (default mixing * dielectric matrix)
  average eigenvalue GAMMA=   0.2966
  0.2966  0.2966

 Free energy of the ion-electron system (eV)
  ---------------------------------------------------
  alpha Z        PSCENC =       138.40680205
  Ewald energy   TEWEN  =    165950.58384309
  -Hartree energ DENC   =   -186635.77647801
  -exchange      EXHF   =         0.00000000
  -V(xc)+E(xc)   XCENC  =      2121.27949414
  PAW double counting   =     48699.98387988   -48932.02118310
  entropy T*S    EENTRO =        -0.02636539
  eigenvalues    EBANDS =     -6698.93177500
  atomic energy  EATOM  =     24021.61036476
  Solvation  Ediel_sol  =       458.57686404
  ---------------------------------------------------
  free energy    TOTEN  =      -876.31455352 eV

  energy without entropy =     -876.28818814  energy(sigma->0) =     -876.30137083


--------------------------------------------------------------------------------------------------------




--------------------------------------- Iteration      1(   4)  ---------------------------------------


    POTLOK:  cpu time   29.4689: real time   29.5301
    SETDIJ:  cpu time    0.7510: real time    0.7532
    EDDIAG:  cpu time   42.6546: real time   42.7461
  RMM-DIIS:  cpu time  233.5283: real time  233.9776
    ORTHCH:  cpu time    1.1798: real time    1.1824
       DOS:  cpu time    0.0034: real time    0.0034
    CHARGE:  cpu time   35.9640: real time   36.0333
    MIXING:  cpu time    0.0165: real time    0.0170
    --------------------------------------------
      LOOP:  cpu time  343.5665: real time  344.2431

 eigenvalue-minimisations  :  6230
 total energy-change (2. order) : 0.2341709E-02  (-0.2683442E-03)
 number of electron     437.0000019 magnetization      -0.3765847
 augmentation part       29.2174763 magnetization      -0.0785047

 Broyden mixing:
  rms(total) = 0.21336E-01    rms(broyden)= 0.20998E-01
  rms(prec ) = 0.21789E-01
  weight for this iteration     100.00

 eigenvalues of (default mixing * dielectric matrix)
  average eigenvalue GAMMA=   0.6625
  1.3443  0.3215  0.3215

 Free energy of the ion-electron system (eV)
  ---------------------------------------------------
  alpha Z        PSCENC =       138.40680205
  Ewald energy   TEWEN  =    165950.58384309
  -Hartree energ DENC   =   -186635.75956336
  -exchange      EXHF   =         0.00000000
  -V(xc)+E(xc)   XCENC  =      2121.31206266
  PAW double counting   =     48700.61409918   -48932.65329321
  entropy T*S    EENTRO =        -0.02671870
  eigenvalues    EBANDS =     -6698.95154582
  atomic energy  EATOM  =     24021.61036476
  Solvation  Ediel_sol  =       458.55173752
  ---------------------------------------------------
  free energy    TOTEN  =      -876.31221182 eV

  energy without entropy =     -876.28549312  energy(sigma->0) =     -876.29885247


--------------------------------------------------------------------------------------------------------




--------------------------------------- Iteration      1(   5)  ---------------------------------------


    POTLOK:  cpu time   29.7432: real time   29.8022
    SETDIJ:  cpu time    0.7513: real time    0.7533
    EDDIAG:  cpu time   42.0594: real time   42.1434
  RMM-DIIS:  cpu time  235.3824: real time  235.8346
    ORTHCH:  cpu time    1.2330: real time    1.2358
       DOS:  cpu time    0.0033: real time    0.0033
    CHARGE:  cpu time   38.1743: real time   38.2494
    MIXING:  cpu time    0.0175: real time    0.0175
    --------------------------------------------
      LOOP:  cpu time  347.3644: real time  348.0395

 eigenvalue-minimisations  :  6255
 total energy-change (2. order) :-0.9176179E-03  (-0.3513019E-03)
 number of electron     437.0000019 magnetization      -0.3766987
 augmentation part       29.2172617 magnetization      -0.0743868

 Broyden mixing:
  rms(total) = 0.19451E-01    rms(broyden)= 0.19441E-01
  rms(prec ) = 0.20076E-01
  weight for this iteration     100.00

 eigenvalues of (default mixing * dielectric matrix)
  average eigenvalue GAMMA=   0.5920
  1.2960  0.3209  0.3209  0.4304

 Free energy of the ion-electron system (eV)
  ---------------------------------------------------
  alpha Z        PSCENC =       138.40680205
  Ewald energy   TEWEN  =    165950.58384309
  -Hartree energ DENC   =   -186635.75669769
  -exchange      EXHF   =         0.00000000
  -V(xc)+E(xc)   XCENC  =      2121.35811392
  PAW double counting   =     48701.70349739   -48933.75094684
  entropy T*S    EENTRO =        -0.02669512
  eigenvalues    EBANDS =     -6698.98589127
  atomic energy  EATOM  =     24021.61036476
  Solvation  Ediel_sol  =       458.54448028
  ---------------------------------------------------
  free energy    TOTEN  =      -876.31312943 eV

  energy without entropy =     -876.28643431  energy(sigma->0) =     -876.29978187


--------------------------------------------------------------------------------------------------------




--------------------------------------- Iteration      1(   6)  ---------------------------------------


    POTLOK:  cpu time   28.1032: real time   28.1559
    SETDIJ:  cpu time    0.7491: real time    0.7508
    EDDIAG:  cpu time   42.0785: real time   42.1343
  RMM-DIIS:  cpu time  221.8644: real time  222.3115
    ORTHCH:  cpu time    1.2747: real time    1.2807
       DOS:  cpu time    0.0032: real time    0.0032
    CHARGE:  cpu time   36.7723: real time   36.8450
    MIXING:  cpu time    0.0222: real time    0.0223
    --------------------------------------------
      LOOP:  cpu time  330.8676: real time  331.5037

 eigenvalue-minimisations  :  5394
 total energy-change (2. order) : 0.2294908E-03  (-0.3941218E-04)
 number of electron     437.0000019 magnetization      -0.3769598
 augmentation part       29.2162342 magnetization      -0.0696516

 Broyden mixing:
  rms(total) = 0.11472E-01    rms(broyden)= 0.11469E-01
  rms(prec ) = 0.11831E-01
  weight for this iteration     100.00

 eigenvalues of (default mixing * dielectric matrix)
  average eigenvalue GAMMA=   0.7314
  1.2644  0.3290  0.3290  0.8675  0.8675

 Free energy of the ion-electron system (eV)
  ---------------------------------------------------
  alpha Z        PSCENC =       138.40680205
  Ewald energy   TEWEN  =    165950.58384309
  -Hartree energ DENC   =   -186635.73528832
  -exchange      EXHF   =         0.00000000
  -V(xc)+E(xc)   XCENC  =      2121.35640198
  PAW double counting   =     48701.88260452   -48933.93227704
  entropy T*S    EENTRO =        -0.02674102
  eigenvalues    EBANDS =     -6699.00076508
  atomic energy  EATOM  =     24021.61036476
  Solvation  Ediel_sol  =       458.54215510
  ---------------------------------------------------
  free energy    TOTEN  =      -876.31289994 eV

  energy without entropy =     -876.28615893  energy(sigma->0) =     -876.29952943


--------------------------------------------------------------------------------------------------------




--------------------------------------- Iteration      1(   7)  ---------------------------------------


    POTLOK:  cpu time   27.5757: real time   27.6334
    SETDIJ:  cpu time    0.7508: real time    0.7527
    EDDIAG:  cpu time   43.0853: real time   43.1600
  RMM-DIIS:  cpu time  205.6944: real time  206.1251
    ORTHCH:  cpu time    1.2418: real time    1.2446
       DOS:  cpu time    0.0032: real time    0.0032
    --------------------------------------------
      LOOP:  cpu time  278.3511: real time  278.9189

 eigenvalue-minimisations  :  4881
 total energy-change (2. order) : 0.1200064E-05  (-0.7562018E-05)
 number of electron     437.0000019 magnetization      -0.3769598
 augmentation part       29.2162342 magnetization      -0.0696516

 Free energy of the ion-electron system (eV)
  ---------------------------------------------------
  alpha Z        PSCENC =       138.40680205
  Ewald energy   TEWEN  =    165950.58384309
  -Hartree energ DENC   =   -186635.69764514
  -exchange      EXHF   =         0.00000000
  -V(xc)+E(xc)   XCENC  =      2121.35201360
  PAW double counting   =     48702.10185204   -48934.15450916
  entropy T*S    EENTRO =        -0.02676815
  eigenvalues    EBANDS =     -6699.03244339
  atomic energy  EATOM  =     24021.61036476
  Solvation  Ediel_sol  =       458.54359156
  ---------------------------------------------------
  free energy    TOTEN  =      -876.31289874 eV

  energy without entropy =     -876.28613059  energy(sigma->0) =     -876.29951467


--------------------------------------------------------------------------------------------------------




 average (electrostatic) potential at core
  the test charge radii are     0.7672  0.7089  0.6991  0.7167  0.7215
  (the norm of the test charge is              1.0000)
       1 -38.8615       2 -38.8635       3 -38.8572       4 -38.8371       5 -38.8401
       6 -38.8561       7 -38.8599       8 -38.8670       9 -38.8620      10 -38.8351
      11 -38.8153      12 -38.8386      13 -38.8586      14 -38.8677      15 -38.8688
      16 -38.8581      17 -38.8305      18 -38.8317      19 -38.8563      20 -38.8651
      21 -38.8706      22 -38.8651      23 -38.8570      24 -38.8513      25 -38.8595
      26 -38.8607      27 -38.8666      28 -38.8696      29 -38.8646      30 -38.8611
      31 -38.8618      32 -38.8610      33 -38.8589      34 -38.8585      35 -38.8605
      36 -38.8612      37 -76.4641      38 -76.4685      39 -76.4575      40 -76.4507
      41 -76.4627      42 -76.4618      43 -76.4660      44 -76.4652      45 -76.4581
      46 -76.4248      47 -76.4152      48 -76.4481      49 -76.4560      50 -76.4740
      51 -76.4633      52 -76.4384      53 -76.4108      54 -76.4454      55 -76.4588
      56 -76.4753      57 -76.4615      58 -76.4545      59 -76.4523      60 -76.4471
      61 -76.4638      62 -76.4652      63 -76.4778      64 -76.4716      65 -76.4590
      66 -76.4616      67 -76.4620      68 -76.4621      69 -76.4707      70 -76.4647
      71 -76.4636      72 -76.4658      73 -66.8692      74 -66.8146      75 -66.8276
      76 -66.6673      77 -66.3458      78 -65.5786      79 -67.9747      80 -63.8073
      81 -92.3275      82 -92.3523      83 -92.2840      84 -92.2884      85 -92.1863
      86 -92.1699      87 -91.9412      88 -91.9510      89 -92.2916      90 -92.2620
      91 -91.4559      92 -91.4510      93 -92.3388      94 -92.3189      95 -92.2940
      96 -83.9067      97 -83.9328
 
 
 
 E-fermi :  -6.5123     XC(G=0):  -1.6076     alpha+bet : -1.3088


 spin component 1

 k-point     1 :       0.0000    0.0000    0.0000
  band No.  band energies     occupation 
      1     -36.1647      1.00000
      2     -35.6149      1.00000
      3     -35.2198      1.00000
      4     -34.9716      1.00000
      5     -34.9215      1.00000
      6     -34.6919      1.00000
      7     -34.1186      1.00000
      8     -33.9107      1.00000
      9     -33.7569      1.00000
     10     -33.7176      1.00000
     11     -33.5803      1.00000
     12     -33.4652      1.00000
     13     -33.4276      1.00000
     14     -33.1990      1.00000
     15     -32.6186      1.00000
     16     -28.2462      1.00000
     17     -25.9958      1.00000
     18     -25.0842      1.00000
     19     -24.5491      1.00000
     20     -24.5459      1.00000
     21     -24.5445      1.00000
     22     -24.5379      1.00000
     23     -24.5358      1.00000
     24     -24.5221      1.00000
     25     -23.5299      1.00000
     26     -23.5291      1.00000
     27     -23.5288      1.00000
     28     -23.5267      1.00000
     29     -23.5256      1.00000
     30     -23.5222      1.00000
     31     -23.0905      1.00000
     32     -23.0902      1.00000
     33     -23.0895      1.00000
     34     -23.0864      1.00000
     35     -23.0859      1.00000
     36     -23.0838      1.00000
     37     -22.5805      1.00000
     38     -22.0411      1.00000
     39     -22.0391      1.00000
     40     -22.0376      1.00000
     41     -22.0370      1.00000
     42     -22.0353      1.00000
     43     -22.0349      1.00000
     44     -22.0297      1.00000
     45     -22.0286      1.00000
     46     -22.0277      1.00000
     47     -22.0259      1.00000
     48     -22.0200      1.00000
     49     -22.0171      1.00000
     50     -22.0063      1.00000
     51     -21.9434      1.00000
     52     -21.9413      1.00000
     53     -21.9406      1.00000
     54     -21.3660      1.00000
     55     -21.3659      1.00000
     56     -21.2245      1.00000
     57     -20.1858      1.00000
     58     -18.9797      1.00000
     59     -18.0712      1.00000
     60     -17.6708      1.00000
     61     -16.9774      1.00000
     62     -16.8622      1.00000
     63     -16.6251      1.00000
     64     -16.4593      1.00000
     65     -16.3338      1.00000
     66     -16.3219      1.00000
     67     -15.9709      1.00000
     68     -15.8912      1.00000
     69     -15.7432      1.00000
     70     -15.6424      1.00000
     71     -15.6394      1.00000
     72     -15.6382      1.00000
     73     -15.5495      1.00000
     74     -15.3049      1.00000
     75     -15.2240      1.00000
     76     -15.1634      1.00000
     77     -15.0016      1.00000
     78     -14.7932      1.00000
     79     -14.7924      1.00000
     80     -14.7917      1.00000
     81     -14.7904      1.00000
     82     -14.7880      1.00000
     83     -14.7874      1.00000
     84     -14.7869      1.00000
     85     -14.7858      1.00000
     86     -14.7819      1.00000
     87     -14.7795      1.00000
     88     -14.7784      1.00000
     89     -14.7740      1.00000
     90     -14.5948      1.00000
     91     -14.5271      1.00000
     92     -14.5247      1.00000
     93     -13.9172      1.00000
     94     -13.9157      1.00000
     95     -13.5813      1.00000
     96     -13.5803      1.00000
     97     -13.5795      1.00000
     98     -13.5793      1.00000
     99     -13.5789      1.00000
    100     -13.5770      1.00000
    101     -13.2021      1.00000
    102     -13.1017      1.00000
    103     -12.9719      1.00000
    104     -12.8748      1.00000
    105     -12.7204      1.00000
    106     -12.6970      1.00000
    107     -12.6184      1.00000
    108     -12.5008      1.00000
    109     -12.3853      1.00000
    110     -12.3403      1.00000
    111     -12.2678      1.00000
    112     -12.1871      1.00000
    113     -12.1768      1.00000
    114     -12.1761      1.00000
    115     -12.1752      1.00000
    116     -12.1747      1.00000
    117     -12.1745      1.00000
    118     -12.1438      1.00000
    119     -12.0515      1.00000
    120     -12.0307      1.00000
    121     -11.9259      1.00000
    122     -11.9252      1.00000
    123     -11.9248      1.00000
    124     -11.9235      1.00000
    125     -11.9216      1.00000
    126     -11.9210      1.00000
    127     -11.9183      1.00000
    128     -11.9174      1.00000
    129     -11.9121      1.00000
    130     -11.9111      1.00000
    131     -11.9102      1.00000
    132     -11.9097      1.00000
    133     -11.8566      1.00000
    134     -11.7532      1.00000
    135     -11.6814      1.00000
    136     -11.5171      1.00000
    137     -11.5022      1.00000
    138     -11.4703      1.00000
    139     -11.4119      1.00000
    140     -11.3725      1.00000
    141     -11.3127      1.00000
    142     -11.3002      1.00000
    143     -11.1958      1.00000
    144     -11.1706      1.00000
    145     -11.1393      1.00000
    146     -11.0626      1.00000
    147     -10.9998      1.00000
    148     -10.9976      1.00000
    149     -10.9964      1.00000
    150     -10.9804      1.00000
    151     -10.9428      1.00000
    152     -10.9272      1.00000
    153     -10.8048      1.00000
    154     -10.7296      1.00000
    155     -10.6914      1.00000
    156     -10.6906      1.00000
    157     -10.6903      1.00000
    158     -10.4750      1.00000
    159     -10.4676      1.00000
    160     -10.4671      1.00000
    161     -10.4664      1.00000
    162     -10.4660      1.00000
    163     -10.4656      1.00000
    164     -10.4616      1.00000
    165     -10.4529      1.00000
    166     -10.1193      1.00000
    167     -10.1184      1.00000
    168     -10.1178      1.00000
    169     -10.1176      1.00000
    170     -10.1154      1.00000
    171     -10.1147      1.00000
    172      -9.8708      1.00000
    173      -9.8688      1.00000
    174      -9.8678      1.00000
    175      -9.8635      1.00000
    176      -9.8620      1.00000
    177      -9.8609      1.00000
    178      -9.7298      1.00000
    179      -9.6147      1.00000
    180      -9.6120      1.00000
    181      -9.6106      1.00000
    182      -9.6065      1.00000
    183      -9.5999      1.00000
    184      -9.5808      1.00000
    185      -9.0113      1.00000
    186      -8.9990      1.00000
    187      -8.9960      1.00000
    188      -8.9939      1.00000
    189      -8.9901      1.00000
    190      -8.9804      1.00000
    191      -8.8977      1.00000
    192      -8.7192      1.00000
    193      -8.7176      1.00000
    194      -8.7162      1.00000
    195      -8.7113      1.00000
    196      -8.7102      1.00000
    197      -8.7093      1.00000
    198      -7.7993      1.00000
    199      -7.7974      1.00000
    200      -7.4785      1.00000
    201      -7.4669      1.00000
    202      -7.4658      1.00000
    203      -7.4648      1.00000
    204      -7.4634      1.00000
    205      -7.4613      1.00000
    206      -7.4587      1.00000
    207      -7.4558      1.00000
    208      -7.4544      1.00000
    209      -7.4528      1.00000
    210      -7.4449      1.00000
    211      -7.4390      1.00000
    212      -7.3099      1.00000
    213      -7.3004      1.00000
    214      -7.2978      1.00000
    215      -7.1648      1.00000
    216      -6.7481      1.00000
    217      -6.5588      0.90541
    218      -6.3971      0.00056
    219      -6.3910      0.00030
    220      -1.6623      0.00000
    221      -1.4408      0.00000
    222      -1.1217      0.00000
    223      -1.0797      0.00000
    224      -1.0476      0.00000
    225      -1.0086      0.00000
    226      -1.0019      0.00000
    227      -0.9936      0.00000
    228      -0.9450      0.00000
    229      -0.3519      0.00000
    230      -0.3235      0.00000
    231      -0.3199      0.00000
    232      -0.3098      0.00000
    233      -0.3063      0.00000
    234      -0.3024      0.00000
    235      -0.2971      0.00000
    236      -0.2937      0.00000
    237      -0.2907      0.00000
    238      -0.2886      0.00000
    239      -0.2861      0.00000
    240      -0.2826      0.00000
    241      -0.2806      0.00000
    242      -0.2529      0.00000
    243      -0.1959      0.00000
    244      -0.1732      0.00000
    245      -0.1439      0.00000
    246      -0.1172      0.00000
    247      -0.0803      0.00000
    248       0.0086      0.00000
    249       0.0356      0.00000
    250       0.0786      0.00000
    251       0.1133      0.00000
    252       0.1933      0.00000
    253       0.5017      0.00000
    254       0.5256      0.00000
    255       0.5285      0.00000
    256       0.5602      0.00000
    257       0.6029      0.00000
    258       0.6178      0.00000
    259       0.6814      0.00000
    260       0.6830      0.00000
    261       0.6833      0.00000
    262       0.6851      0.00000
    263       0.6885      0.00000
    264       0.7032      0.00000
    265       0.7541      0.00000
    266       0.8130      0.00000
    267       0.9059      0.00000
    268       0.9185      0.00000
    269       0.9262      0.00000
    270       0.9309      0.00000
    271       0.9417      0.00000
    272       0.9837      0.00000
    273       0.9986      0.00000
    274       1.0012      0.00000
    275       1.0245      0.00000
    276       1.0278      0.00000
    277       1.0381      0.00000
    278       1.0697      0.00000
    279       1.1154      0.00000
    280       1.2454      0.00000
    281       1.3197      0.00000
    282       1.3244      0.00000
    283       1.3269      0.00000
    284       1.3352      0.00000
    285       1.3455      0.00000
    286       1.3573      0.00000
    287       1.4799      0.00000
    288       1.4872      0.00000
    289       1.5103      0.00000
    290       1.5198      0.00000
    291       1.5300      0.00000
    292       1.5492      0.00000
    293       1.5633      0.00000
    294       1.6145      0.00000
    295       1.6447      0.00000
    296       1.6632      0.00000
    297       1.6734      0.00000
    298       1.6918      0.00000
    299       1.7070      0.00000
    300       1.7117      0.00000
    301       1.7256      0.00000
    302       1.7373      0.00000
    303       1.7461      0.00000
    304       1.7627      0.00000
[...]
   -.288E+00 -.336E+01 0.418E+01   -.398E-12 0.739E-12 0.296E-11   0.262E+00 0.324E+01 -.437E+01   0.147E-01 0.491E-01 0.143E+00
 
 
 POSITION                                       TOTAL-FORCE (eV/Angst)
 -----------------------------------------------------------------------------------
      1.25628     -0.69001     17.26732         0.000657     -0.000550      0.010108
      2.51241      1.48555     17.25955        -0.000446      0.001620      0.000713
      3.76852      3.66137     17.25751         0.001137      0.003356     -0.001242
      5.02528      5.83661     17.26172        -0.000959     -0.000719     -0.000537
      6.28143      8.01174     17.27486        -0.002477     -0.000893      0.008262
      7.53692     10.18797     17.27553        -0.001516      0.002148      0.009607
      2.51221     -2.86576     17.28385        -0.000660     -0.003424      0.005048
      3.76858     -0.68977     17.26310        -0.001066     -0.001332      0.004140
      5.02468      1.48600     17.24548        -0.002513      0.003186     -0.000218
      6.28083      3.66247     17.24652        -0.000543      0.002107     -0.005336
      7.53703      5.83606     17.27878        -0.000771      0.002095      0.000957
      8.79196      8.01162     17.28801        -0.000236     -0.001464      0.001597
      3.76807     -5.04146     17.29229         0.001474     -0.001208     -0.006533
      5.02442     -2.86545     17.27126         0.000371     -0.003600     -0.000433
      6.28079     -0.68955     17.23739         0.000686      0.003569     -0.000001
      7.53675      1.48653     17.22615         0.000059      0.003102      0.002382
      8.79263      3.66257     17.24564        -0.001486      0.001686     -0.004541
     10.04783      5.83590     17.27769         0.002501      0.002441      0.001004
      5.02418     -7.21711     17.27834        -0.001219      0.000482      0.007932
      6.28056     -5.04115     17.27188         0.000542     -0.000893      0.003114
      7.53656     -2.86521     17.25061         0.001587     -0.000204      0.000241
      8.79270     -0.68958     17.23328         0.002183      0.002183     -0.002495
     10.04864      1.48582     17.23830        -0.000310      0.002266     -0.000751
     11.30466      3.66149     17.26033        -0.000608     -0.000466      0.000316
      6.28051     -9.39248     17.26338         0.000359      0.000868      0.003016
      7.53662     -7.21675     17.26586         0.000941     -0.001434      0.004571
      8.79254     -5.04127     17.26286         0.000660     -0.000580      0.002513
     10.04899     -2.86561     17.25904         0.000315      0.002810     -0.002991
     11.30504     -0.68985     17.25323         0.002464      0.004899     -0.004387
     12.56085      1.48575     17.25555         0.001438      0.002478     -0.002911
      7.53667    -11.56814     17.25995         0.002967      0.001986      0.001468
      8.79260     -9.39246     17.26088        -0.000062      0.002489      0.001820
     10.04895     -7.21703     17.26302        -0.001596     -0.001041      0.002204
     11.30535     -5.04140     17.26734        -0.002106     -0.000675      0.006528
     12.56104     -2.86573     17.26609        -0.000066      0.001561      0.005428
     13.81714     -0.69012     17.26176         0.000948      0.000481      0.002620
      1.25636      0.76043     17.26161        -0.000397      0.001169     -0.001963
      2.51243      2.93616     17.25905         0.000064     -0.002844     -0.003015
      3.76841      5.11178     17.26028        -0.001012     -0.001819     -0.000188
      5.02448      7.28728     17.26994         0.000327     -0.000284      0.001248
      6.28059      9.46285     17.27295         0.001761     -0.002564      0.004108
      7.53678     11.63859     17.26795        -0.000402     -0.004044      0.003659
      2.51257     -1.41512     17.27355         0.000452     -0.000477      0.000957
      3.76871      0.76059     17.25633         0.002173     -0.001876     -0.000272
      5.02470      2.93620     17.25032        -0.000872     -0.003422     -0.002289
      6.28007      5.11176     17.25081         0.000569     -0.001188     -0.000102
      7.53663      7.28726     17.27967         0.001847     -0.002706      0.001024
      8.79280      9.46274     17.28605         0.002624      0.004277      0.000710
      3.76861     -3.59074     17.28890         0.000009      0.003397     -0.002430
      5.02504     -1.41484     17.25821        -0.001216      0.000750      0.000991
      6.28088      0.76093     17.22976         0.001146     -0.007465      0.000219
      7.53630      2.93676     17.23442         0.001015     -0.001999      0.000008
      8.79340      5.11130     17.25707        -0.001262     -0.004892      0.000444
     10.04881      7.28701     17.29213        -0.002042     -0.000914     -0.001761
      5.02470     -5.76628     17.28691        -0.000191      0.001399     -0.001851
      6.28067     -3.59039     17.26460        -0.001226      0.000607     -0.002012
      7.53685     -1.41468     17.23306        -0.000952     -0.002341      0.000369
      8.79259      0.76040     17.22403        -0.001449     -0.000222     -0.000703
     10.04851      2.93609     17.24470         0.002518     -0.003313      0.000290
     11.30501      5.11161     17.27434         0.000636     -0.000688      0.002168
      6.28056     -7.94195     17.26975         0.002216     -0.002046      0.003672
      7.53664     -5.76616     17.26406        -0.002939     -0.000923      0.003082
      8.79242     -3.59044     17.25999        -0.001201     -0.002967     -0.000299
     10.04875     -1.41499     17.24963        -0.004096     -0.003061     -0.001006
     11.30471      0.76062     17.24891        -0.000313     -0.005195     -0.002342
     12.56090      2.93620     17.25894        -0.000717     -0.004155      0.001193
      7.53666    -10.11768     17.26039        -0.000531     -0.000935     -0.002079
      8.79267     -7.94200     17.26241        -0.000138     -0.000349      0.001439
     10.04865     -5.76634     17.26493         0.004451      0.001065      0.001753
     11.30481     -3.59074     17.26575         0.000610     -0.001321      0.000453
     12.56095     -1.41519     17.26037         0.000749     -0.000372      0.000450
     13.81709      0.76046     17.25829        -0.002737     -0.002375     -0.001480
      6.92700     -1.74914     21.46543        -0.002661     -0.003422      0.000876
      7.84270     -0.50533     21.65272        -0.011313     -0.000841     -0.004045
      7.52544     -3.05096     22.06439        -0.001963      0.006344     -0.010102
      7.09991      0.84836     21.47169         0.011305     -0.004740     -0.002049
      8.04749      2.06379     21.26994        -0.008374      0.006530      0.006840
      7.38058      3.44406     21.45850         0.008850     -0.008780     -0.013168
      6.88337     -4.35107     21.51585         0.006977      0.005721     -0.001161
      8.18600      4.63940     20.86829        -0.002089     -0.002156     -0.002560
      5.73443     -1.51526     22.05866        -0.000770      0.002396     -0.003012
      6.71945     -1.94399     20.14091         0.002749      0.001788     -0.004420
      8.37339     -0.55402     22.89637        -0.002473     -0.000773      0.002022
      8.84442     -0.57561     20.74332         0.003828      0.001402     -0.001013
      6.28873      0.73235     20.39024         0.002168      0.000758     -0.001591
      6.33824      1.06736     22.56914        -0.001064      0.003754      0.000095
      9.08041      1.92898     22.13852         0.001354      0.000955     -0.001682
      8.53543      2.00103     20.00308         0.004405      0.002818      0.000003
      8.85084     -3.10072     21.79206         0.001476      0.000579     -0.000695
      7.35275     -3.03536     23.40284        -0.003602      0.000584      0.002007
      6.13044      3.36546     20.91122        -0.008511      0.002611     -0.002791
      7.21515      3.65331     22.80423         0.001044      0.008426      0.003127
      5.54691     -4.25595     21.53497        -0.003829      0.004712     -0.008763
      7.28598     -4.58681     20.26134         0.002211     -0.003034     -0.001228
      7.25715     -5.37945     22.28486        -0.001706     -0.002396      0.000163
      9.41262      4.60396     21.09453        -0.001091      0.000039     -0.004087
      7.51589      5.51165     20.28822         0.000959      0.001489     -0.010426
 -----------------------------------------------------------------------------------
    total drift:                               -0.011610     -0.077002     -0.046437


--------------------------------------------------------------------------------------------------------



  FREE ENERGIE OF THE ION-ELECTRON SYSTEM (eV)
  ---------------------------------------------------
  free  energy   TOTEN  =      -876.31343149 eV

  energy  without entropy=     -876.28671414  energy(sigma->0) =     -876.30007282
 
 d Force = 0.8592775E-04[ 0.565E-04, 0.115E-03]  d Energy = 0.9948764E-04-0.136E-04
 d Force =-0.3158945E+01[-0.316E+01,-0.316E+01]  d Ewald  =-0.3158945E+01 0.100E-06


--------------------------------------------------------------------------------------------------------


    POTLOK:  cpu time   26.5375: real time   26.5860


--------------------------------------------------------------------------------------------------------


 Conjugate gradient step on ions:
 trial-energy change:   -0.000099  1 .order   -0.000086   -0.000115   -0.000056
  (g-gl).g = 0.274E-03      g.g   = 0.271E-03  gl.gl    = 0.427E-03
 g(Force)  = 0.271E-03   g(Stress)= 0.000E+00 ortho     = 0.221E-04
 gamma     =   0.64292
 trial     =   0.40490
 opt step  =   0.79325  (harmonic =   0.79325) maximal distance =0.00114318
 next E    =  -876.313445   (d E  =  -0.00011)


--------------------------------------------------------------------------------------------------------


  
 reached required accuracy - stopping structural energy minimisation
 writing wavefunctions
     LOOP+:  cpu time 3166.3835: real time 3205.8369
    4ORBIT:  cpu time    0.0000: real time    0.0000
 


 total charge     
 
# of ion       s       p       d       tot
------------------------------------------
    1        0.743   1.392   0.000   2.135
    2        0.743   1.392   0.000   2.135
    3        0.743   1.392   0.000   2.136
    4        0.743   1.393   0.000   2.136
    5        0.743   1.392   0.000   2.136
    6        0.743   1.392   0.000   2.135
    7        0.743   1.392   0.000   2.135
    8        0.743   1.392   0.000   2.135
    9        0.743   1.392   0.000   2.136
   10        0.743   1.393   0.000   2.136
   11        0.742   1.386   0.000   2.128
   12        0.743   1.392   0.000   2.135
   13        0.743   1.392   0.000   2.135
   14        0.743   1.392   0.000   2.135
   15        0.743   1.393   0.000   2.136
   16        0.743   1.392   0.000   2.136
   17        0.743   1.393   0.000   2.136
   18        0.743   1.392   0.000   2.136
   19        0.743   1.392   0.000   2.135
   20        0.743   1.392   0.000   2.136
   21        0.743   1.393   0.000   2.136
   22        0.743   1.393   0.000   2.137
   23        0.743   1.392   0.000   2.136
   24        0.743   1.392   0.000   2.135
   25        0.743   1.392   0.000   2.135
   26        0.743   1.392   0.000   2.135
   27        0.743   1.392   0.000   2.136
   28        0.743   1.392   0.000   2.135
   29        0.743   1.392   0.000   2.135
   30        0.743   1.392   0.000   2.135
   31        0.743   1.392   0.000   2.135
   32        0.743   1.392   0.000   2.135
   33        0.743   1.392   0.000   2.135
   34        0.743   1.392   0.000   2.135
   35        0.743   1.392   0.000   2.135
   36        0.743   1.392   0.000   2.135
   37        1.239   2.817   0.000   4.056
   38        1.239   2.817   0.000   4.056
   39        1.239   2.817   0.000   4.056
   40        1.239   2.817   0.000   4.056
   41        1.239   2.816   0.000   4.055
   42        1.239   2.817   0.000   4.056
   43        1.239   2.817   0.000   4.056
   44        1.239   2.817   0.000   4.056
   45        1.239   2.816   0.000   4.056
   46        1.240   2.816   0.000   4.056
   47        1.239   2.818   0.000   4.057
   48        1.239   2.817   0.000   4.056
   49        1.239   2.817   0.000   4.056
   50        1.239   2.817   0.000   4.056
   51        1.239   2.817   0.000   4.056
   52        1.239   2.817   0.000   4.056
   53        1.240   2.818   0.000   4.057
   54        1.239   2.816   0.000   4.055
   55        1.239   2.817   0.000   4.056
   56        1.239   2.817   0.000   4.056
   57        1.239   2.817   0.000   4.057
   58        1.239   2.817   0.000   4.056
   59        1.239   2.816   0.000   4.055
   60        1.239   2.817   0.000   4.056
   61        1.239   2.817   0.000   4.056
   62        1.239   2.818   0.000   4.057
   63        1.239   2.817   0.000   4.056
   64        1.239   2.817   0.000   4.056
   65        1.239   2.817   0.000   4.056
   66        1.239   2.817   0.000   4.056
   67        1.239   2.817   0.000   4.056
   68        1.239   2.817   0.000   4.056
   69        1.239   2.817   0.000   4.056
   70        1.239   2.817   0.000   4.056
   71        1.239   2.817   0.000   4.056
   72        1.239   2.817   0.000   4.056
   73        0.832   1.598   0.000   2.430
   74        0.832   1.596   0.000   2.428
   75        0.833   1.605   0.000   2.437
   76        0.833   1.595   0.000   2.428
   77        0.834   1.595   0.000   2.429
   78        0.839   1.577   0.000   2.417
   79        0.815   1.565   0.000   2.380
   80        0.876   1.722   0.000   2.598
   81        1.758   4.402   0.000   6.160
   82        1.759   4.400   0.000   6.159
   83        1.758   4.403   0.000   6.161
   84        1.758   4.400   0.000   6.158
   85        1.758   4.400   0.000   6.158
   86        1.758   4.403   0.000   6.161
   87        1.757   4.403   0.000   6.160
   88        1.758   4.400   0.000   6.159
   89        1.758   4.401   0.000   6.159
   90        1.758   4.403   0.000   6.161
   91        1.756   4.403   0.000   6.158
   92        1.755   4.399   0.000   6.155
   93        1.759   4.411   0.000   6.170
   94        1.759   4.410   0.000   6.169
   95        1.759   4.412   0.000   6.170
   96        1.589   3.572   0.000   5.161
   97        1.591   3.567   0.000   5.158
--------------------------------------------------
tot        107.608 237.567   0.000 345.175
 


 magnetization (x)
 
# of ion       s       p       d       tot
------------------------------------------
    1        0.000   0.001   0.000   0.001
    2        0.000   0.001   0.000   0.001
    3        0.000   0.001   0.000   0.001
    4        0.000   0.001   0.000   0.001
    5        0.000   0.001   0.000   0.001
    6        0.000   0.001   0.000   0.001
    7        0.000   0.001   0.000   0.001
    8        0.000   0.001   0.000   0.001
    9        0.000   0.001   0.000   0.001
   10        0.000   0.001   0.000   0.001
   11        0.000   0.001   0.000   0.001
   12        0.000   0.001   0.000   0.001
   13        0.000   0.001   0.000   0.001
   14        0.000   0.001   0.000   0.001
   15        0.000   0.001   0.000   0.001
   16        0.000   0.001   0.000   0.001
   17        0.000   0.001   0.000   0.001
   18        0.000   0.001   0.000   0.001
   19        0.000   0.001   0.000   0.001
   20        0.000   0.001   0.000   0.001
   21        0.000   0.001   0.000   0.001
   22        0.000   0.001   0.000   0.001
   23        0.000   0.001   0.000   0.001
   24        0.000   0.001   0.000   0.001
   25        0.000   0.001   0.000   0.001
   26        0.000   0.001   0.000   0.001
   27        0.000   0.001   0.000   0.001
   28        0.000   0.001   0.000   0.001
   29        0.000   0.001   0.000   0.001
   30        0.000   0.001   0.000   0.001
   31        0.000   0.001   0.000   0.001
   32        0.000   0.001   0.000   0.001
   33        0.000   0.001   0.000   0.001
   34        0.000   0.001   0.000   0.001
   35        0.000   0.001   0.000   0.001
   36        0.000   0.001   0.000   0.001
   37       -0.000  -0.005   0.000  -0.005
   38       -0.000  -0.006   0.000  -0.007
   39       -0.000  -0.005   0.000  -0.005
   40       -0.000  -0.005   0.000  -0.005
   41       -0.000  -0.007   0.000  -0.007
   42       -0.000  -0.004   0.000  -0.005
   43       -0.000  -0.006   0.000  -0.006
   44       -0.000  -0.004   0.000  -0.004
   45       -0.000  -0.005   0.000  -0.006
   46       -0.000  -0.011   0.000  -0.012
   47       -0.000  -0.006   0.000  -0.006
   48       -0.000  -0.005   0.000  -0.005
   49       -0.000  -0.004   0.000  -0.004
   50       -0.000  -0.004   0.000  -0.005
   51       -0.000  -0.006   0.000  -0.006
   52       -0.000  -0.005   0.000  -0.005
   53       -0.000  -0.007   0.000  -0.007
   54       -0.000  -0.007   0.000  -0.007
   55       -0.000  -0.005   0.000  -0.005
   56       -0.000  -0.005   0.000  -0.006
   57       -0.000  -0.004   0.000  -0.004
   58       -0.000  -0.005   0.000  -0.005
   59       -0.000  -0.007   0.000  -0.007
   60       -0.000  -0.004   0.000  -0.004
   61       -0.000  -0.005   0.000  -0.006
   62       -0.000  -0.004   0.000  -0.004
   63       -0.000  -0.004   0.000  -0.005
   64       -0.000  -0.006   0.000  -0.006
   65       -0.000  -0.004   0.000  -0.004
   66       -0.000  -0.005   0.000  -0.005
   67       -0.000  -0.004   0.000  -0.004
   68       -0.000  -0.004   0.000  -0.005
   69       -0.000  -0.006   0.000  -0.006
   70       -0.000  -0.004   0.000  -0.005
   71       -0.000  -0.005   0.000  -0.005
   72       -0.000  -0.006   0.000  -0.006
   73        0.000   0.000   0.000   0.000
   74       -0.000  -0.000   0.000  -0.000
   75        0.000   0.000   0.000   0.000
   76        0.000   0.000   0.000   0.000
   77       -0.000  -0.000   0.000  -0.000
   78        0.000   0.001   0.000   0.001
   79        0.000   0.000   0.000   0.000
   80        0.001   0.005   0.000   0.005
   81        0.000  -0.000   0.000  -0.000
   82        0.000  -0.000   0.000  -0.000
   83       -0.000  -0.000   0.000  -0.000
   84        0.000   0.000   0.000   0.000
   85        0.000  -0.000   0.000  -0.000
   86        0.000   0.000   0.000   0.000
   87       -0.000  -0.000   0.000  -0.000
   88        0.000  -0.000   0.000  -0.000
   89        0.000  -0.000   0.000  -0.000
   90       -0.000  -0.000   0.000  -0.000
   91       -0.000  -0.002   0.000  -0.002
   92        0.000  -0.000   0.000  -0.000
   93       -0.000  -0.000   0.000  -0.000
   94        0.000  -0.000   0.000  -0.000
   95       -0.000  -0.000   0.000  -0.000
   96       -0.001  -0.066   0.000  -0.067
   97       -0.001  -0.062   0.000  -0.063
--------------------------------------------------
tot         -0.002  -0.288   0.000  -0.290
 

 total amount of memory used by VASP MPI-rank0   237380. kBytes
=======================================================================

   base      :      30000. kBytes
   nonlr-proj:      12362. kBytes
   fftplans  :      17498. kBytes
   grid      :      70152. kBytes
   one-center:         30. kBytes
   wavefun   :     107338. kBytes
 
  
  
 General timing and accounting informations for this job:
 ========================================================
  
                  Total CPU time used (sec):    25641.414
                            User time (sec):    25434.995
                          System time (sec):      206.419
                         Elapsed time (sec):    26288.434
  
                   Maximum memory used (kb):      704732.
                   Average memory used (kb):           0.
  
                          Minor page faults:      4508139
                          Major page faults:          151
                 Voluntary context switches:       180168
