 vasp.5.4.4.18Apr17-6-g9f103f2a35 (build May 01 2020 14:57:12) complex          
  
 executed on             LinuxIFC date 2021.01.07  13:44:23
 running on   96 total cores
 distrk:  each k-point on   24 cores,    4 groups
 distr:  one band on NCORES_PER_BAND=   6 cores,    4 groups


--------------------------------------------------------------------------------------------------------


 INCAR:
 POTCAR:    PAW_PBE B 06Sep2000                   
 POTCAR:    PAW_PBE N 08Apr2002                   

 ----------------------------------------------------------------------------- 
|                                                                             |
|           W    W    AA    RRRRR   N    N  II  N    N   GGGG   !!!           |
|           W    W   A  A   R    R  NN   N  II  NN   N  G    G  !!!           |
|           W    W  A    A  R    R  N N  N  II  N N  N  G       !!!           |
|           W WW W  AAAAAA  RRRRR   N  N N  II  N  N N  G  GGG   !            |
|           WW  WW  A    A  R   R   N   NN  II  N   NN  G    G                |
|           W    W  A    A  R    R  N    N  II  N    N   GGGG   !!!           |
|                                                                             |
|      You have enabled k-point parallelism (KPAR>1).                         |
|      This developmental code was originally  written by Paul Kent at ORNL,  |
|      and carefully double checked in Vienna.                                |
|      GW as well as linear response parallelism added by Martijn Marsman     |
|      and Georg Kresse.                                                      |
|      Carefully verify results versus KPAR=1.                                |
|      Report problems to Paul Kent and Vienna.                               |
|                                                                             |
 ----------------------------------------------------------------------------- 

 POTCAR:    PAW_PBE B 06Sep2000                   
   VRHFIN =B: s2p1                                                              
   LEXCH  = PE                                                                  
   EATOM  =    71.1703 eV,    5.2309 Ry                                         
                                                                                
   TITEL  = PAW_PBE B 06Sep2000                                                 
   LULTRA =        F    use ultrasoft PP ?                                      
   IUNSCR =        1    unscreen: 0-lin 1-nonlin 2-no                           
   RPACOR =    1.200    partial core radius                                     
   POMASS =   10.811; ZVAL   =    3.000    mass and valenz                      
   RCORE  =    1.700    outmost cutoff radius                                   
   RWIGS  =    1.710; RWIGS  =    0.905    wigner-seitz radius (au A)           
   ENMAX  =  318.614; ENMIN  =  238.960 eV                                      
   ICORE  =        2    local potential                                         
   LCOR   =        T    correct aug charges                                     
   LPAW   =        T    paw PP                                                  
   EAUG   =  535.514                                                            
   DEXC   =    0.000                                                            
   RMAX   =    1.732    core radius for proj-oper                               
   RAUG   =    1.300    factor for augmentation sphere                          
   RDEP   =    1.757    radius for radial grids                                 
   RDEPT  =    1.436    core radius for aug-charge                              
                                                                                
   Atomic configuration                                                         
    4 entries                                                                   
     n  l   j            E        occ.                                          
     1  0  0.50      -180.5896   2.0000                                         
     2  0  0.50        -9.4431   2.0000                                         
     2  1  0.50        -3.6068   1.0000                                         
     3  2  1.50        -4.0817   0.0000                                         
   Description                                                                  
     l       E           TYP  RCUT    TYP  RCUT                                 
     0     -9.4430752     23  1.500                                             
     0      0.8675899     23  1.500                                             
     1     -3.6067955     23  1.700                                             
     1      6.1086146     23  1.700                                             
     2     -4.0817478      7  1.700                                             
  local pseudopotential read in
  partial core-charges read in
  partial kinetic energy density read in
  atomic valenz-charges read in
  non local Contribution for L=           0  read in
    real space projection operators read in
  non local Contribution for L=           0  read in
    real space projection operators read in
  non local Contribution for L=           1  read in
    real space projection operators read in
  non local Contribution for L=           1  read in
    real space projection operators read in
    PAW grid and wavefunctions read in
 
   number of l-projection  operators is LMAX  =           4
   number of lm-projection operators is LMMAX =           8
 
 POTCAR:    PAW_PBE N 08Apr2002                   
   VRHFIN =N: s2p3                                                              
   LEXCH  = PE                                                                  
   EATOM  =   264.5486 eV,   19.4438 Ry                                         
                                                                                
   TITEL  = PAW_PBE N 08Apr2002                                                 
   LULTRA =        F    use ultrasoft PP ?                                      
   IUNSCR =        1    unscreen: 0-lin 1-nonlin 2-no                           
   RPACOR =    1.200    partial core radius                                     
   POMASS =   14.001; ZVAL   =    5.000    mass and valenz                      
   RCORE  =    1.500    outmost cutoff radius                                   
   RWIGS  =    1.400; RWIGS  =    0.741    wigner-seitz radius (au A)           
   ENMAX  =  400.000; ENMIN  =  300.000 eV                                      
   ICORE  =        2    local potential                                         
   LCOR   =        T    correct aug charges                                     
   LPAW   =        T    paw PP                                                  
   EAUG   =  627.112                                                            
   DEXC   =    0.000                                                            
   RMAX   =    1.529    core radius for proj-oper                               
   RAUG   =    1.300    factor for augmentation sphere                          
   RDEP   =    1.514    radius for radial grids                                 
   RDEPT  =    1.338    core radius for aug-charge                              
                                                                                
   Atomic configuration                                                         
    4 entries                                                                   
     n  l   j            E        occ.                                          
     1  0  0.50      -384.7179   2.0000                                         
     2  0  0.50       -18.5828   2.0000                                         
     2  1  0.50        -7.0898   3.0000                                         
     3  2  1.50        -6.8029   0.0000                                         
   Description                                                                  
     l       E           TYP  RCUT    TYP  RCUT                                 
     0    -18.5828119     23  1.200                                             
     0    -13.5018863     23  1.200                                             
     1     -7.0897853     23  1.500                                             
     1      9.5240782     23  1.500                                             
     2     -6.8029130      7  1.500                                             
  local pseudopotential read in
  partial core-charges read in
  partial kinetic energy density read in
  atomic valenz-charges read in
  non local Contribution for L=           0  read in
    real space projection operators read in
  non local Contribution for L=           0  read in
    real space projection operators read in
  non local Contribution for L=           1  read in
    real space projection operators read in
  non local Contribution for L=           1  read in
    real space projection operators read in
    PAW grid and wavefunctions read in
 
   number of l-projection  operators is LMAX  =           4
   number of lm-projection operators is LMMAX =           8
 
 Optimization of the real space projectors (new method)

 maximal supplied QI-value         = 22.11
 optimisation between [QCUT,QGAM] = [ 11.94, 23.88] = [ 39.92,159.67] Ry 
 Optimized for a Real-space Cutoff    1.18 Angstroem

   l    n(q)    QCUT    max X(q) W(low)/X(q) W(high)/X(q)  e(spline) 
   0      8    11.939    53.033    0.11E-03    0.34E-03    0.60E-07
   0      8    11.939    34.740    0.11E-03    0.34E-03    0.59E-07
   1      8    11.939    30.949    0.22E-03    0.20E-03    0.17E-06
   1      8    11.939    19.518    0.20E-03    0.18E-03    0.16E-06
 Optimization of the real space projectors (new method)

 maximal supplied QI-value         = 25.13
 optimisation between [QCUT,QGAM] = [ 11.81, 23.88] = [ 39.08,159.64] Ry 
 Optimized for a Real-space Cutoff    1.41 Angstroem

   l    n(q)    QCUT    max X(q) W(low)/X(q) W(high)/X(q)  e(spline) 
   0     10    11.813    79.467    0.48E-04    0.30E-04    0.67E-06
   0     10    11.813    66.151    0.47E-04    0.30E-04    0.67E-06
   1     10    11.813    20.169    0.11E-03    0.17E-03    0.11E-05
   1     10    11.813    14.454    0.11E-03    0.17E-03    0.11E-05
  PAW_PBE B 06Sep2000                   :
 energy of atom  1       EATOM=  -71.1703
 kinetic energy error for atom=    0.0009 (will be added to EATOM!!)
  PAW_PBE N 08Apr2002                   :
 energy of atom  2       EATOM= -264.5486
 kinetic energy error for atom=    0.0116 (will be added to EATOM!!)
 
 
 POSCAR: B N                                     
  positions in direct lattice
  velocities in cartesian coordinates

 METAGGA = SCAN     LMAXTAU =  6    LMIXTAU =  F

 exchange correlation table for  LEXCH =        8
   RHO(1)=    0.500       N(1)  =     2000
   RHO(2)=  100.500       N(2)  =     4000
 


--------------------------------------------------------------------------------------------------------


 ion  position               nearest neighbor table
   1  0.163  0.081  0.500-  22 1.43  21 1.43  18 1.45
   2  0.163  0.332  0.500-  23 1.43  19 1.43  18 1.45
   3  0.167  0.583  0.500-  19 1.45  24 1.45  20 1.45
   4  0.167  0.833  0.500-  21 1.45  25 1.45  20 1.45
   5  0.417  0.083  0.500-  25 1.45  26 1.46  22 1.46
   6  0.402  0.326  0.500-  22 1.43  23 1.43  17 1.58
   7  0.417  0.583  0.500-  24 1.45  27 1.46  23 1.46
   8  0.417  0.833  0.500-  28 1.45  24 1.45  25 1.45
   9  0.668  0.081  0.500-  26 1.43  28 1.43  29 1.45
  10  0.674  0.326  0.500-  26 1.43  30 1.43  17 1.58
  11  0.674  0.598  0.500-  31 1.43  27 1.43  17 1.58
  12  0.668  0.837  0.500-  27 1.43  28 1.43  32 1.45
  13  0.917  0.083  0.500-  18 1.44  32 1.44  29 1.44
  14  0.919  0.332  0.500-  30 1.43  19 1.43  29 1.45
  15  0.917  0.583  0.500-  20 1.45  30 1.46  31 1.46
  16  0.919  0.837  0.500-  31 1.43  21 1.43  32 1.45
  17  0.583  0.417  0.500-   6 1.58  11 1.58  10 1.58
  18  0.082  0.166  0.500-  13 1.44   2 1.45   1 1.45
  19  0.083  0.417  0.500-  14 1.43   2 1.43   3 1.45
  20  0.083  0.667  0.500-  15 1.45   4 1.45   3 1.45
  21  0.083  0.917  0.500-   1 1.43  16 1.43   4 1.45
  22  0.327  0.162  0.500-   1 1.43   6 1.43   5 1.46
  23  0.327  0.415  0.500-   2 1.43   6 1.43   7 1.46
  24  0.333  0.667  0.500-   7 1.45   3 1.45   8 1.45
  25  0.333  0.917  0.500-   5 1.45   4 1.45   8 1.45
  26  0.585  0.162  0.500-   9 1.43  10 1.43   5 1.46
  27  0.585  0.673  0.500-  12 1.43  11 1.43   7 1.46
  28  0.583  0.917  0.500-   9 1.43  12 1.43   8 1.45
  29  0.834  0.166  0.500-  13 1.44   9 1.45  14 1.45
  30  0.838  0.415  0.500-  14 1.43  10 1.43  15 1.46
  31  0.838  0.673  0.500-  16 1.43  11 1.43  15 1.46
  32  0.834  0.918  0.500-  13 1.44  12 1.45  16 1.45
 
  LATTYP: Found a hexagonal cell.
 ALAT       =    10.0487671536
 C/A-ratio  =     3.4944251219
  
  Lattice vectors:
  
 A1 = (   5.0243667045,  -8.7024973730,   0.0000000000)
 A2 = (   5.0243667045,   8.7024973730,   0.0000000000)
 A3 = (   0.0000000000,   0.0000000000,  35.1146643856)


Analysis of symmetry for initial positions (statically):
=====================================================================
 Subroutine PRICEL returns:
 Original cell was already a primitive cell.
 

 Routine SETGRP: Setting up the symmetry group for a 
 hexagonal supercell.


 Subroutine GETGRP returns: Found 12 space group operations
 (whereof  4 operations were pure point group operations)
 out of a pool of 24 trial point group operations.


The static configuration has the point symmetry C_2v.
 The point group associated with its full space group is D_3h.


Analysis of symmetry for dynamics (positions and initial velocities):
=====================================================================
 Subroutine PRICEL returns:
 Original cell was already a primitive cell.
 

 Routine SETGRP: Setting up the symmetry group for a 
 hexagonal supercell.


 Subroutine GETGRP returns: Found 12 space group operations
 (whereof  4 operations were pure point group operations)
 out of a pool of 24 trial point group operations.


The dynamic configuration has the point symmetry C_2v.
 The point group associated with its full space group is D_3h.


Analysis of constrained symmetry for selective dynamics:
=====================================================================
 Subroutine PRICEL returns:
 Original cell was already a primitive cell.
 

 Routine SETGRP: Setting up the symmetry group for a 
 hexagonal supercell.


 Subroutine GETGRP returns: Found 12 space group operations
 (whereof  4 operations were pure point group operations)
 out of a pool of 24 trial point group operations.


The constrained configuration has the point symmetry C_2v.
 The point group associated with its full space group is D_3h.


Analysis of structural, dynamic, and magnetic symmetry:
=====================================================================
 Subroutine PRICEL returns:
 Original cell was already a primitive cell.
 

 Routine SETGRP: Setting up the symmetry group for a 
 hexagonal supercell.


 Subroutine GETGRP returns: Found 12 space group operations
 (whereof  4 operations were pure point group operations)
 out of a pool of 24 trial point group operations.


The magnetic configuration has the point symmetry C_2v.
 The point group associated with its full space group is D_3h.


 Subroutine INISYM returns: Found 12 space group operations
 (whereof  4 operations are pure point group operations),
 and found     1 'primitive' translations

 
 
 KPOINTS: K-Point Grid                            

Automatic generation of k-mesh.
Space group operators:
 irot       det(A)        alpha          n_x          n_y          n_z        tau_x        tau_y        tau_z
    1     1.000000     0.000000     1.000000     0.000000     0.000000     0.000000     0.000000     0.000000
    2    -1.000000   180.000000     0.000000     0.000000     1.000000     0.000000     0.000000     0.000000
    3     1.000000   180.000000     0.000000     1.000000     0.000000     0.000000     0.000000     0.000000
    4    -1.000000   180.000000     1.000000     0.000000     0.000000     0.000000     0.000000     0.000000
    5    -1.000000    60.000000     0.000000     0.000000    -1.000000     0.750001     0.000001     0.000000
    6     1.000000   120.000000     0.000000     0.000000    -1.000000     0.000001     0.250000     0.000000
    7     1.000000   120.000000     0.000000     0.000000     1.000000     0.750001     0.000001     0.000000
    8    -1.000000    60.000000     0.000000     0.000000     1.000000     0.000001     0.250000     0.000000
    9    -1.000000   180.000000     0.500002    -0.866024     0.000000     0.750001     0.000000     0.000000
   10    -1.000000   180.000000    -0.500002    -0.866024     0.000000     0.000000     0.250000     0.000000
   11     1.000000   180.000000     0.866026     0.499998     0.000000     0.750001     0.000000     0.000000
   12     1.000000   180.000000     0.866026    -0.499998     0.000000     0.000000     0.250000     0.000000
 
 Subroutine IBZKPT returns following result:
 ===========================================
 
 Found      6 irreducible k-points:
 
 Following reciprocal coordinates:
            Coordinates               Weight
  0.125000  0.125000  0.000000     48.000000
  0.375000  0.125000  0.000000     96.000000
 -0.375000  0.125000  0.000000     96.000000
 -0.125000  0.125000  0.000000     48.000000
  0.375000  0.375000  0.000000     48.000000
 -0.375000  0.375000  0.000000     48.000000
 
 Following cartesian coordinates:
            Coordinates               Weight
  0.024879  0.000000  0.000000     48.000000
  0.049758 -0.014364  0.000000     96.000000
 -0.024879  0.028727  0.000000     96.000000
  0.000000  0.014364  0.000000     48.000000
  0.074636  0.000000  0.000000     48.000000
  0.000000  0.043091  0.000000     48.000000
 


--------------------------------------------------------------------------------------------------------




 Dimension of arrays:
   k-points           NKPTS =      6   k-points in BZ     NKDIM =      6   number of bands    NBANDS=     96
   number of dos      NEDOS =   1200   number of ions     NIONS =     32
   non local maximal  LDIM  =      4   non local SUM 2l+1 LMDIM =      8
   total plane-waves  NPLWV = ******
   max r-space proj   IRMAX =   6598   max aug-charges    IRDMAX=   8974
   dimension x,y,z NGX =    80 NGY =   80 NGZ =  270
   dimension x,y,z NGXF=   160 NGYF=  160 NGZF=  540
   support grid    NGXF=   160 NGYF=  160 NGZF=  540
   ions per type =              17  15
   NGX,Y,Z   is equivalent  to a cutoff of  13.24, 13.24, 12.78 a.u.
   NGXF,Y,Z  is equivalent  to a cutoff of  26.47, 26.47, 25.57 a.u.

 SYSTEM =  SiC                                     
 POSCAR =  B N                                     

 Startparameter for this run:
   NWRITE =      2    write-flag & timer
   PREC   = accura    normal or accurate (medium, high low for compatibility)
   ISTART =      1    job   : 0-new  1-cont  2-samecut
   ICHARG =      0    charge: 1-file 2-atom 10-const
   ISPIN  =      2    spin polarized calculation?
   LNONCOLLINEAR =      F non collinear calculations
   LSORBIT =      F    spin-orbit coupling
   INIWAV =      1    electr: 0-lowe 1-rand  2-diag
   LASPH  =      T    aspherical Exc in radial PAW
   METAGGA=      F    non-selfconsistent MetaGGA calc.

 Electronic Relaxation 1
   ENCUT  =  550.0 eV  40.42 Ry    6.36 a.u.  19.22 19.22 67.15*2*pi/ulx,y,z
   ENINI  =  550.0     initial cutoff
   ENAUG  =  627.1 eV  augmentation charge cutoff
   NELM   =    100;   NELMIN=  2; NELMDL=  0     # of ELM steps 
   EDIFF  = 0.1E-04   stopping-criterion for ELM
   LREAL  =      T    real-space projection
   NLSPLINE    = F    spline interpolate recip. space projectors
   LCOMPAT=      F    compatible to vasp.4.4
   GGA_COMPAT  = T    GGA compatible to vasp.4.4-vasp.4.6
   LMAXPAW     = -100 max onsite density
   LMAXMIX     =    2 max onsite mixed and CHGCAR
   VOSKOWN=      0    Vosko Wilk Nusair interpolation
   ROPT   =   -0.00025  -0.00025
 Ionic relaxation
   EDIFFG = -.2E-01   stopping-criterion for IOM
   NSW    =    500    number of steps for IOM
   NBLOCK =      1;   KBLOCK =    500    inner block; outer block 
   IBRION =      2    ionic relax: 0-MD 1-quasi-New 2-CG
   NFREE  =      1    steps in history (QN), initial steepest desc. (CG)
   ISIF   =      2    stress and relaxation
   IWAVPR =     11    prediction:  0-non 1-charg 2-wave 3-comb
   ISYM   =      2    0-nonsym 1-usesym 2-fastsym
   LCORR  =      T    Harris-Foulkes like correction to forces

   POTIM  = 0.5000    time-step for ionic-motion
   TEIN   =    0.0    initial temperature
   TEBEG  =    0.0;   TEEND  =   0.0 temperature during run
   SMASS  =  -3.00    Nose mass-parameter (am)
   estimated Nose-frequenzy (Omega)   =  0.10E-29 period in steps =****** mass=  -0.231E-26a.u.
   SCALEE = 1.0000    scale energy and forces
   NPACO  =    256;   APACO  = 16.0  distance and # of slots for P.C.
   PSTRESS=    0.0 pullay stress

  Mass of Ions in am
   POMASS =  10.81 14.00
  Ionic Valenz
   ZVAL   =   3.00  5.00
  Atomic Wigner-Seitz radii
   RWIGS  =  -1.00 -1.00
  virtual crystal weights 
   VCA    =   1.00  1.00
   NELECT =     126.0000    total number of electrons
   NUPDOWN=      -1.0000    fix difference up-down

 DOS related values:
   EMIN   =  10.00;   EMAX   =-10.00  energy-range for DOS
   EFERMI =   0.00
   ISMEAR =     0;   SIGMA  =   0.05  broadening in eV -4-tet -1-fermi 0-gaus

 Electronic relaxation 2 (details)
   IALGO  =     68    algorithm
   LDIAG  =      T    sub-space diagonalisation (order eigenvalues)
   LSUBROT=      F    optimize rotation matrix (better conditioning)
   TURBO    =      0    0=normal 1=particle mesh
   IRESTART =      0    0=no restart 2=restart with 2 vectors
   NREBOOT  =      0    no. of reboots
   NMIN     =      0    reboot dimension
   EREF     =   0.00    reference energy to select bands
   IMIX   =      4    mixing-type and parameters
     AMIX     =   0.40;   BMIX     =  1.00
     AMIX_MAG =   1.60;   BMIX_MAG =  1.00
     AMIN     =   0.10
     WC   =   100.;   INIMIX=   1;  MIXPRE=   1;  MAXMIX= -45

 Intra band minimization:
   WEIMIN = 0.0010     energy-eigenvalue tresh-hold
   EBREAK =  0.26E-07  absolut break condition
   DEPER  =   0.30     relativ break condition  

   TIME   =   0.40     timestep for ELM

  volume/ion in A,a.u.               =      95.96       647.58
  Fermi-wavevector in a.u.,A,eV,Ry     =   0.564656  1.067045  4.338029  0.318836
  Thomas-Fermi vector in A             =   1.602307
 
 Write flags
   LWAVE        =      T    write WAVECAR
   LDOWNSAMPLE  =      F    k-point downsampling of WAVECAR
   LCHARG       =      F    write CHGCAR
   LVTOT        =      F    write LOCPOT, total local potential
   LVHAR        =      T    write LOCPOT, Hartree potential only
   LELF         =      F    write electronic localiz. function (ELF)
   LORBIT       =     11    0 simple, 1 ext, 2 COOP (PROOUT), +10 PAW based schemes


 Dipole corrections
   LMONO  =      F    monopole corrections only (constant potential shift)
   LDIPOL =      F    correct potential (dipole corrections)
   IDIPOL =      0    1-x, 2-y, 3-z, 4-all directions 
   EPSILON=  1.0000000 bulk dielectric constant

 Exchange correlation treatment:
   GGA     =    --    GGA type
   LEXCH   =     8    internal setting for exchange type
   VOSKOWN=      0    Vosko Wilk Nusair interpolation
   LHFCALC =     F    Hartree Fock is set to
   LHFONE  =     F    Hartree Fock one center treatment
   AEXX    =    0.0000 exact exchange contribution

 Linear response parameters
   LEPSILON=     F    determine dielectric tensor
   LRPA    =     F    only Hartree local field effects (RPA)
   LNABLA  =     F    use nabla operator in PAW spheres
   LVEL    =     F    velocity operator in full k-point grid
   LINTERFAST=   F  fast interpolation
   KINTER  =     0    interpolate to denser k-point grid
   CSHIFT  =0.1000    complex shift for real part using Kramers Kronig
   OMEGAMAX=  -1.0    maximum frequency
   DEG_THRESHOLD= 0.2000000E-02 threshold for treating states as degnerate
   RTIME   =   -0.100 relaxation time in fs
  (WPLASMAI=    0.000 imaginary part of plasma frequency in eV, 0.658/RTIME)
   DFIELD  = 0.0000000 0.0000000 0.0000000 field for delta impulse in time
 
 Orbital magnetization related:
   ORBITALMAG=     F  switch on orbital magnetization
   LCHIMAG   =     F  perturbation theory with respect to B field
   DQ        =  0.001000  dq finite difference perturbation B field
   LLRAUG    =     F  two centre corrections for induced B field

 Solvation model:
   LSOL    =     T         switch on solvation model
   EB_K    = 78.400000     relative permittivity of the bulk solvent
   SIGMA_K =  0.600000     width of the dielectric cavity
   NC_K    =  0.002500     cutoff charge density
   TAU     =  0.000000     cavity surface tension
   LAMBDA_D_K    =  3.040000     Debye length in Angstroms
   LRHOB     =     F     write boundcharge  density
   LRHOION     =     F     write ioniccharge density



--------------------------------------------------------------------------------------------------------


 conjugate gradient relaxation of ions
   using selective dynamics as specified on POSCAR
 charge density and potential will be updated during run
 spin polarized calculation
 RMM-DIIS sequential band-by-band and
  variant of blocked Davidson during initial phase
 perform sub-space diagonalisation
    before iterative eigenvector-optimisation
 modified Broyden-mixing scheme, WC =      100.0
 initial mixing is a Kerker type mixing with AMIX =  0.4000 and BMIX =      1.0000
 Hartree-type preconditioning will be used
 using additional bands           33
 real space projection scheme for non local part
 use partial core corrections
 calculate Harris-corrections to forces 
   (improved forces if not selfconsistent)
 use gradient corrections 
 use of overlap-Matrix (Vanderbilt PP)
 Gauss-broadening in eV      SIGMA  =   0.05


--------------------------------------------------------------------------------------------------------


  energy-cutoff  :      550.00
  volume of cell :     3070.74
      direct lattice vectors                 reciprocal lattice vectors
     5.024366704 -8.702497373  0.000000000     0.099515029 -0.057454772  0.000000000
     5.024366704  8.702497373  0.000000000     0.099515029  0.057454772  0.000000000
     0.000000000  0.000000000 35.114664386     0.000000000  0.000000000  0.028478131

  length of vectors
    10.048767154 10.048767154 35.114664386     0.114909929  0.114909929  0.028478131


 
 old parameters found on file WAVECAR:
  energy-cutoff  :      550.00
  volume of cell :     3070.74
      direct lattice vectors                 reciprocal lattice vectors
     5.024366704 -8.702497373  0.000000000     0.099515029 -0.057454772  0.000000000
     5.024366704  8.702497373  0.000000000     0.099515029  0.057454772  0.000000000
     0.000000000  0.000000000 35.114664386     0.000000000  0.000000000  0.028478131

  length of vectors

 
 k-points in units of 2pi/SCALE and weight: K-Point Grid                            
   0.02487876  0.00000000  0.00000000       0.125
   0.04975751 -0.01436369  0.00000000       0.250
  -0.02487876  0.02872739  0.00000000       0.250
   0.00000000  0.01436369  0.00000000       0.125
   0.07463627  0.00000000  0.00000000       0.125
   0.00000000  0.04309108  0.00000000       0.125
 
 k-points in reciprocal lattice and weights: K-Point Grid                            
   0.12500000  0.12500000  0.00000000       0.125
   0.37500000  0.12500000  0.00000000       0.250
  -0.37500000  0.12500000  0.00000000       0.250
  -0.12500000  0.12500000  0.00000000       0.125
   0.37500000  0.37500000  0.00000000       0.125
  -0.37500000  0.37500000  0.00000000       0.125
 
 position of ions in fractional coordinates (direct lattice) 
   0.16314940  0.08075546  0.50000000
   0.16314940  0.33239450  0.50000000
   0.16660054  0.58320064  0.50000000
   0.16660054  0.83340046  0.50000000
   0.41661353  0.08322661  0.50000000
   0.40159635  0.32579845  0.50000000
   0.41661353  0.58338747  0.50000000
   0.41680036  0.83340046  0.50000000
   0.66760650  0.08075546  0.50000000
   0.67420254  0.32579845  0.50000000
   0.67420254  0.59840465  0.50000000
   0.66760650  0.83685160  0.50000000
   0.91666715  0.08333385  0.50000000
   0.91924554  0.33239450  0.50000000
   0.91677438  0.58338747  0.50000000
   0.91924554  0.83685160  0.50000000
   0.58333385  0.41666715  0.50000000
   0.08202417  0.16601231  0.50000000
   0.08345861  0.41691666  0.50000000
   0.08325489  0.66662767  0.50000000
   0.08345861  0.91654239  0.50000000
   0.32701970  0.16175404  0.50000000
   0.32701970  0.41526609  0.50000000
   0.33337333  0.66662767  0.50000000
   0.33337333  0.91674610  0.50000000
   0.58473491  0.16175404  0.50000000
   0.58473491  0.67298130  0.50000000
   0.58308434  0.91654239  0.50000000
   0.83398869  0.16601231  0.50000000
   0.83824696  0.41526609  0.50000000
   0.83824696  0.67298130  0.50000000
   0.83398869  0.91797683  0.50000000
 
 position of ions in cartesian coordinates  (Angst):
   1.22546742 -0.71703306 17.55733219
   2.48979426  1.47285507 17.55733219
   3.76727605  3.62546126 17.55733219
   5.02437172  5.80282458 17.55733219
   2.51138017 -2.90129872 17.55733219
   3.65469824 -0.65963098 17.55733219
   5.02437172  1.45134982 17.55733219
   6.28146739  3.62546126 17.55733219
   3.76004488 -5.10706965 17.55733219
   5.02437172 -3.03198567 17.55733219
   6.39404521 -0.65963098 17.55733219
   7.55894918  1.47285507 17.55733219
   5.02437172 -7.25208079 17.55733219
   6.28869856 -5.10706965 17.55733219
   7.53736328 -2.90129872 17.55733219
   8.82327602 -0.71703306 17.55733219
   5.02437172 -1.45041658 17.55733219
   1.24622622  0.73090651 17.55733219
   2.51406881  2.90191779 17.55733219
   3.76768497  5.07680002 17.55733219
   5.02437172  7.24990943 17.55733219
   2.45577848 -1.43822392 17.55733219
   3.72951600  0.76796405 17.55733219
   5.02437172  2.90014497 17.55733219
   6.28105847  5.07680002 17.55733219
   3.75063420 -3.68098986 17.55733219
   6.31922744  0.76796405 17.55733219
   7.53467463  2.90191779 17.55733219
   5.02437172 -5.81306276 17.55733219
   6.29810924 -3.68098986 17.55733219
   7.59296496 -1.43822392 17.55733219
   8.80251722  0.73090651 17.55733219
 


--------------------------------------------------------------------------------------------------------


 k-point  1 :   0.1250 0.1250 0.0000  plane waves:   89921
 k-point  2 :   0.3750 0.1250 0.0000  plane waves:   89970
 k-point  3 :  -0.3750 0.1250 0.0000  plane waves:   89943
 k-point  4 :  -0.1250 0.1250 0.0000  plane waves:   89893
 k-point  5 :   0.3750 0.3750 0.0000  plane waves:   89957
 k-point  6 :  -0.3750 0.3750 0.0000  plane waves:   89980

 maximum and minimum number of plane-waves per node :     15054    14949

 maximum number of plane-waves:     89980
 maximum index in each direction: 
   IXMAX=   19   IYMAX=   19   IZMAX=   67
   IXMIN=  -19   IYMIN=  -19   IZMIN=  -67


 real space projection operators:
  total allocation   :       9915.38 KBytes
  max/ min on nodes  :       1729.12       1602.81


 parallel 3D FFT for wavefunctions:
    minimum data exchange during FFTs selected (reduces bandwidth)
 parallel 3D FFT for charge:
    minimum data exchange during FFTs selected (reduces bandwidth)


 total amount of memory used by VASP MPI-rank0   235955. kBytes
=======================================================================

   base      :      30000. kBytes
   nonlr-proj:       5701. kBytes
   fftplans  :      29093. kBytes
   grid      :     101821. kBytes
   one-center:         36. kBytes
   wavefun   :      69304. kBytes
 
     INWAV:  cpu time    8.0759: real time    8.5353
 Broyden mixing: mesh for mixing (old mesh)
   NGX = 39   NGY = 39   NGZ =135
  (NGX  =160   NGY  =160   NGZ  =540)
  gives a total of 205335 points

 charge density for first step will be calculated from the start-wavefunctions


--------------------------------------------------------------------------------------------------------


 Maximum index for non-local projection operator         1233
 Maximum index for augmentation-charges          508 (set IRDMAX)


--------------------------------------------------------------------------------------------------------


 initial charge from wavefunction
 First call to EWALD:  gamma=   0.122
 Maximum number of real-space cells 4x 4x 1
 Maximum number of reciprocal cells 2x 2x 6

    FEWALD:  cpu time    0.0259: real time    0.0259


--------------------------------------- Iteration      1(   1)  ---------------------------------------


    POTLOK:  cpu time   43.1325: real time   43.6238
    SETDIJ:  cpu time    1.1591: real time    1.0110
     EDDAV:  cpu time   93.2668: real time   51.7723
       DOS:  cpu time    0.0043: real time    0.0727
    CHARGE:  cpu time   15.4912: real time   13.5470
    MIXING:  cpu time    0.1864: real time    0.2074
    --------------------------------------------
      LOOP:  cpu time  153.2405: real time  110.2342

 eigenvalue-minimisations  :  2544
 total energy-change (2. order) :-0.3046771E+03  (-0.4764911E+00)
 number of electron     125.9999990 magnetization      -0.0000000
 augmentation part        3.4288345 magnetization       0.0000006

 Broyden mixing:
  rms(total) = 0.22065E+00    rms(broyden)= 0.22048E+00
  rms(prec ) = 0.22351E+00
  weight for this iteration     100.00

 Free energy of the ion-electron system (eV)
  ---------------------------------------------------
  alpha Z        PSCENC =        29.25924521
  Ewald energy   TEWEN  =     39687.93210201
  -Hartree energ DENC   =    -44098.38644335
  -exchange      EXHF   =         0.00000000
  -V(xc)+E(xc)   XCENC  =       538.68282689
  PAW double counting   =     14573.04038381   -14627.64128238
  entropy T*S    EENTRO =        -0.00000000
  eigenvalues    EBANDS =     -1681.14100163
  atomic energy  EATOM  =      5177.93391500
  Solvation  Ediel_sol  =        95.64319608
  ---------------------------------------------------
  free energy    TOTEN  =      -304.67705836 eV

  energy without entropy =     -304.67705836  energy(sigma->0) =     -304.67705836


--------------------------------------------------------------------------------------------------------




--------------------------------------- Iteration      1(   2)  ---------------------------------------


    POTLOK:  cpu time   35.2337: real time   35.2476
    SETDIJ:  cpu time    1.2483: real time    1.0503
    EDDIAG:  cpu time   13.6742: real time   11.3717
  RMM-DIIS:  cpu time  120.6622: real time   65.5132
    ORTHCH:  cpu time    0.1893: real time    0.0954
       DOS:  cpu time    0.0020: real time    0.0010
    CHARGE:  cpu time   15.6167: real time   13.5117
    MIXING:  cpu time    0.0971: real time    0.0980
    --------------------------------------------
      LOOP:  cpu time  186.7236: real time  126.8889

 eigenvalue-minimisations  :  2304
 total energy-change (2. order) : 0.5832581E-01  (-0.1427317E-01)
 number of electron     125.9999990 magnetization      -0.0000000
 augmentation part        3.3995577 magnetization       0.0000005

 Broyden mixing:
  rms(total) = 0.11434E+00    rms(broyden)= 0.11434E+00
  rms(prec ) = 0.11531E+00
  weight for this iteration     100.00

 eigenvalues of (default mixing * dielectric matrix)
  average eigenvalue GAMMA=   1.8894
  1.8894

 Free energy of the ion-electron system (eV)
  ---------------------------------------------------
  alpha Z        PSCENC =        29.25924521
  Ewald energy   TEWEN  =     39687.93210201
  -Hartree energ DENC   =    -44105.28603136
  -exchange      EXHF   =         0.00000000
  -V(xc)+E(xc)   XCENC  =       539.38287642
  PAW double counting   =     15008.65240765   -15063.07692640
  entropy T*S    EENTRO =        -0.00000000
  eigenvalues    EBANDS =     -1674.61849332
  atomic energy  EATOM  =      5177.93391500
  Solvation  Ediel_sol  =        95.20217224
  ---------------------------------------------------
  free energy    TOTEN  =      -304.61873255 eV

  energy without entropy =     -304.61873255  energy(sigma->0) =     -304.61873255


--------------------------------------------------------------------------------------------------------




--------------------------------------- Iteration      1(   3)  ---------------------------------------


    POTLOK:  cpu time   35.3330: real time   35.3234
    SETDIJ:  cpu time    1.1263: real time    0.9282
    EDDIAG:  cpu time   13.7033: real time   11.3369
  RMM-DIIS:  cpu time  120.7901: real time   65.6925
    ORTHCH:  cpu time    0.1871: real time    0.0940
       DOS:  cpu time    0.0020: real time    0.0010
    CHARGE:  cpu time   15.7161: real time   13.5593
    MIXING:  cpu time    0.1285: real time    0.1285
    --------------------------------------------
      LOOP:  cpu time  186.9863: real time  127.0637

 eigenvalue-minimisations  :  2304
 total energy-change (2. order) :-0.1057802E-01  (-0.8497995E-02)
 number of electron     125.9999990 magnetization      -0.0000000
 augmentation part        3.3802210 magnetization       0.0000001

 Broyden mixing:
  rms(total) = 0.41169E-01    rms(broyden)= 0.41165E-01
  rms(prec ) = 0.41569E-01
  weight for this iteration     100.00

 eigenvalues of (default mixing * dielectric matrix)
  average eigenvalue GAMMA=   2.2697
  1.7100  2.8295

 Free energy of the ion-electron system (eV)
  ---------------------------------------------------
  alpha Z        PSCENC =        29.25924521
  Ewald energy   TEWEN  =     39687.93210201
  -Hartree energ DENC   =    -44109.04758561
  -exchange      EXHF   =         0.00000000
  -V(xc)+E(xc)   XCENC  =       539.67615277
  PAW double counting   =     15478.59074277   -15532.79365511
  entropy T*S    EENTRO =        -0.00000000
  eigenvalues    EBANDS =     -1671.36514146
  atomic energy  EATOM  =      5177.93391500
  Solvation  Ediel_sol  =        95.18491386
  ---------------------------------------------------
  free energy    TOTEN  =      -304.62931057 eV

  energy without entropy =     -304.62931057  energy(sigma->0) =     -304.62931057


--------------------------------------------------------------------------------------------------------




--------------------------------------- Iteration      1(   4)  ---------------------------------------


    POTLOK:  cpu time   35.2458: real time   35.2394
    SETDIJ:  cpu time    1.2023: real time    1.0041
    EDDIAG:  cpu time   13.6997: real time   11.3424
  RMM-DIIS:  cpu time  120.7818: real time   65.5770
    ORTHCH:  cpu time    0.1876: real time    0.0942
       DOS:  cpu time    0.0037: real time    0.0018
    CHARGE:  cpu time   15.8944: real time   13.6793
    MIXING:  cpu time    0.0819: real time    0.0819
    --------------------------------------------
      LOOP:  cpu time  187.0970: real time  127.0202

 eigenvalue-minimisations  :  2304
 total energy-change (2. order) :-0.1208645E-02  (-0.1874990E-02)
 number of electron     125.9999990 magnetization      -0.0000000
 augmentation part        3.3926291 magnetization       0.0000001

 Broyden mixing:
  rms(total) = 0.20426E-01    rms(broyden)= 0.20423E-01
  rms(prec ) = 0.20906E-01
  weight for this iteration     100.00

 eigenvalues of (default mixing * dielectric matrix)
  average eigenvalue GAMMA=   1.5900
  2.4409  1.0474  1.2817

 Free energy of the ion-electron system (eV)
  ---------------------------------------------------
  alpha Z        PSCENC =        29.25924521
  Ewald energy   TEWEN  =     39687.93210201
  -Hartree energ DENC   =    -44105.86252429
  -exchange      EXHF   =         0.00000000
  -V(xc)+E(xc)   XCENC  =       539.44167176
  PAW double counting   =     15649.79967930   -15703.90442170
  entropy T*S    EENTRO =        -0.00000000
  eigenvalues    EBANDS =     -1674.98500411
  atomic energy  EATOM  =      5177.93391500
  Solvation  Ediel_sol  =        95.75481760
  ---------------------------------------------------
  free energy    TOTEN  =      -304.63051922 eV

  energy without entropy =     -304.63051922  energy(sigma->0) =     -304.63051922


--------------------------------------------------------------------------------------------------------




--------------------------------------- Iteration      1(   5)  ---------------------------------------


    POTLOK:  cpu time   32.8666: real time   32.8607
    SETDIJ:  cpu time    1.1364: real time    0.9383
    EDDIAG:  cpu time   13.7699: real time   11.4207
  RMM-DIIS:  cpu time  120.4529: real time   65.4034
    ORTHCH:  cpu time    0.1888: real time    0.0948
       DOS:  cpu time    0.0025: real time    0.0012
    CHARGE:  cpu time   15.8364: real time   13.6388
    MIXING:  cpu time    0.0930: real time    0.0930
    --------------------------------------------
      LOOP:  cpu time  184.3464: real time  124.4508

 eigenvalue-minimisations  :  2304
 total energy-change (2. order) : 0.9569402E-03  (-0.3024064E-03)
 number of electron     125.9999990 magnetization      -0.0000000
 augmentation part        3.3877607 magnetization       0.0000000

 Broyden mixing:
  rms(total) = 0.40374E-02    rms(broyden)= 0.40361E-02
  rms(prec ) = 0.41696E-02
  weight for this iteration     100.00

 eigenvalues of (default mixing * dielectric matrix)
  average eigenvalue GAMMA=   2.0551
  3.4007  2.4708  1.1745  1.1745

 Free energy of the ion-electron system (eV)
  ---------------------------------------------------
  alpha Z        PSCENC =        29.25924521
  Ewald energy   TEWEN  =     39687.93210201
  -Hartree energ DENC   =    -44107.45042235
  -exchange      EXHF   =         0.00000000
  -V(xc)+E(xc)   XCENC  =       539.57773624
  PAW double counting   =     15621.27444415   -15675.40005773
  entropy T*S    EENTRO =        -0.00000000
  eigenvalues    EBANDS =     -1673.34239685
  atomic energy  EATOM  =      5177.93391500
  Solvation  Ediel_sol  =        95.58587205
  ---------------------------------------------------
  free energy    TOTEN  =      -304.62956228 eV

  energy without entropy =     -304.62956228  energy(sigma->0) =     -304.62956228


--------------------------------------------------------------------------------------------------------




--------------------------------------- Iteration      1(   6)  ---------------------------------------


    POTLOK:  cpu time   34.0054: real time   33.9958
    SETDIJ:  cpu time    1.0855: real time    0.8874
    EDDIAG:  cpu time   13.7454: real time   11.3568
  RMM-DIIS:  cpu time  121.4202: real time   66.1759
    ORTHCH:  cpu time    0.1852: real time    0.0929
       DOS:  cpu time    0.0075: real time    0.0038
    CHARGE:  cpu time   15.9439: real time   13.6848
    MIXING:  cpu time    0.1342: real time    0.1342
    --------------------------------------------
      LOOP:  cpu time  186.5273: real time  126.3315

 eigenvalue-minimisations  :  2304
 total energy-change (2. order) :-0.3551218E-03  (-0.8683955E-04)
 number of electron     125.9999990 magnetization      -0.0000000
 augmentation part        3.3864823 magnetization       0.0000000

 Broyden mixing:
  rms(total) = 0.26368E-02    rms(broyden)= 0.26358E-02
  rms(prec ) = 0.27079E-02
  weight for this iteration     100.00

 eigenvalues of (default mixing * dielectric matrix)
  average eigenvalue GAMMA=   1.7190
  2.7809  2.3671  1.1581  1.1581  1.1309

 Free energy of the ion-electron system (eV)
  ---------------------------------------------------
  alpha Z        PSCENC =        29.25924521
  Ewald energy   TEWEN  =     39687.93210201
  -Hartree energ DENC   =    -44108.18614080
  -exchange      EXHF   =         0.00000000
  -V(xc)+E(xc)   XCENC  =       539.57966917
  PAW double counting   =     15614.98475558   -15669.11383090
  entropy T*S    EENTRO =        -0.00000000
  eigenvalues    EBANDS =     -1672.69361418
  atomic energy  EATOM  =      5177.93391500
  Solvation  Ediel_sol  =        95.67398151
  ---------------------------------------------------
  free energy    TOTEN  =      -304.62991740 eV

  energy without entropy =     -304.62991740  energy(sigma->0) =     -304.62991740


--------------------------------------------------------------------------------------------------------




--------------------------------------- Iteration      1(   7)  ---------------------------------------


    POTLOK:  cpu time   30.1090: real time   30.1014
    SETDIJ:  cpu time    1.1332: real time    0.9351
    EDDIAG:  cpu time   13.7675: real time   11.3543
  RMM-DIIS:  cpu time   98.3617: real time   53.2910
    ORTHCH:  cpu time    0.2281: real time    0.1143
       DOS:  cpu time    0.0055: real time    0.0028
    CHARGE:  cpu time   15.8327: real time   13.6156
    MIXING:  cpu time    0.0687: real time    0.0687
    --------------------------------------------
      LOOP:  cpu time  159.5063: real time  109.4831

 eigenvalue-minimisations  :  1662
 total energy-change (2. order) : 0.2603111E-04  (-0.2782043E-05)
 number of electron     125.9999990 magnetization      -0.0000000
 augmentation part        3.3869000 magnetization       0.0000000

 Broyden mixing:
  rms(total) = 0.95938E-03    rms(broyden)= 0.95920E-03
  rms(prec ) = 0.10312E-02
  weight for this iteration     100.00

 eigenvalues of (default mixing * dielectric matrix)
  average eigenvalue GAMMA=   1.9783
  3.9386  2.5825  1.9042  1.2353  1.2353  0.9739

 Free energy of the ion-electron system (eV)
  ---------------------------------------------------
  alpha Z        PSCENC =        29.25924521
  Ewald energy   TEWEN  =     39687.93210201
  -Hartree energ DENC   =    -44107.99331714
  -exchange      EXHF   =         0.00000000
  -V(xc)+E(xc)   XCENC  =       539.55917550
  PAW double counting   =     15617.20052794   -15671.32779589
  entropy T*S    EENTRO =        -0.00000000
  eigenvalues    EBANDS =     -1672.91096114
  atomic energy  EATOM  =      5177.93391500
  Solvation  Ediel_sol  =        95.71721714
  ---------------------------------------------------
  free energy    TOTEN  =      -304.62989137 eV

  energy without entropy =     -304.62989137  energy(sigma->0) =     -304.62989137


--------------------------------------------------------------------------------------------------------




--------------------------------------- Iteration      1(   8)  ---------------------------------------


    POTLOK:  cpu time   32.2561: real time   32.2514
    SETDIJ:  cpu time    1.1082: real time    0.9100
    EDDIAG:  cpu time   13.7295: real time   11.3559
  RMM-DIIS:  cpu time  117.6508: real time   63.7678
    ORTHCH:  cpu time    0.1859: real time    0.0933
       DOS:  cpu time    0.0059: real time    0.0030
    CHARGE:  cpu time   15.9173: real time   13.6747
    MIXING:  cpu time    0.0763: real time    0.0763
    --------------------------------------------
      LOOP:  cpu time  180.9300: real time  122.1324

 eigenvalue-minimisations  :  2232
 total energy-change (2. order) :-0.5464227E-04  (-0.6693468E-05)
 number of electron     125.9999990 magnetization      -0.0000000
 augmentation part        3.3874940 magnetization       0.0000000

 Broyden mixing:
  rms(total) = 0.12028E-02    rms(broyden)= 0.12026E-02
  rms(prec ) = 0.12462E-02
  weight for this iteration     100.00

 eigenvalues of (default mixing * dielectric matrix)
  average eigenvalue GAMMA=   1.7420
  3.5566  2.5227  1.8880  1.2435  1.2435  0.9966  0.7431

 Free energy of the ion-electron system (eV)
  ---------------------------------------------------
  alpha Z        PSCENC =        29.25924521
  Ewald energy   TEWEN  =     39687.93210201
  -Hartree energ DENC   =    -44108.12207414
  -exchange      EXHF   =         0.00000000
  -V(xc)+E(xc)   XCENC  =       539.55755977
  PAW double counting   =     15615.37081840   -15669.49876664
  entropy T*S    EENTRO =        -0.00000000
  eigenvalues    EBANDS =     -1672.92956433
  atomic energy  EATOM  =      5177.93391500
  Solvation  Ediel_sol  =        95.86681871
  ---------------------------------------------------
  free energy    TOTEN  =      -304.62994601 eV

  energy without entropy =     -304.62994601  energy(sigma->0) =     -304.62994601


--------------------------------------------------------------------------------------------------------




--------------------------------------- Iteration      1(   9)  ---------------------------------------


    POTLOK:  cpu time   28.4231: real time   28.4160
    SETDIJ:  cpu time    1.0567: real time    0.8586
    EDDIAG:  cpu time   13.7120: real time   11.3475
  RMM-DIIS:  cpu time   94.5857: real time   50.7843
    ORTHCH:  cpu time    0.1868: real time    0.0938
       DOS:  cpu time    0.0036: real time    0.0018
    --------------------------------------------
      LOOP:  cpu time  137.9680: real time   91.5021

 eigenvalue-minimisations  :  1548
 total energy-change (2. order) :-0.9248057E-05  (-0.5448932E-06)
 number of electron     125.9999990 magnetization      -0.0000000
 augmentation part        3.3874940 magnetization       0.0000000

 Free energy of the ion-electron system (eV)
  ---------------------------------------------------
  alpha Z        PSCENC =        29.25924521
  Ewald energy   TEWEN  =     39687.93210201
  -Hartree energ DENC   =    -44108.18765835
  -exchange      EXHF   =         0.00000000
  -V(xc)+E(xc)   XCENC  =       539.56409759
  PAW double counting   =     15615.84324463   -15669.97114385
  entropy T*S    EENTRO =        -0.00000000
  eigenvalues    EBANDS =     -1672.87257789
  atomic energy  EATOM  =      5177.93391500
  Solvation  Ediel_sol  =        95.86882040
  ---------------------------------------------------
  free energy    TOTEN  =      -304.62995526 eV

  energy without entropy =     -304.62995526  energy(sigma->0) =     -304.62995526


--------------------------------------------------------------------------------------------------------




 average (electrostatic) potential at core
  the test charge radii are     0.7672  0.7089
  (the norm of the test charge is              1.0000)
       1 -38.3099       2 -38.3099       3 -38.5442       4 -38.5442       5 -38.5640
       6 -37.0061       7 -38.5639       8 -38.5442       9 -38.3099      10 -37.0061
      11 -37.0060      12 -38.3099      13 -38.3841      14 -38.3099      15 -38.5639
      16 -38.3099      17 -35.3398      18 -76.0245      19 -75.9969      20 -76.0955
      21 -75.9969      22 -75.9146      23 -75.9146      24 -76.0955      25 -76.0955
      26 -75.9146      27 -75.9146      28 -75.9969      29 -76.0245      30 -75.9146
      31 -75.9146      32 -76.0245
 
 
 
 E-fermi :  -5.0879     XC(G=0):  -1.2164     alpha+bet : -1.0389


 spin component 1

 k-point     1 :       0.1250    0.1250    0.0000
  band No.  band energies     occupation 
      1     -24.6265      1.00000
      2     -23.9731      1.00000
      3     -23.7809      1.00000
      4     -23.4557      1.00000
      5     -23.3249      1.00000
      6     -23.1270      1.00000
      7     -22.5862      1.00000
      8     -22.1887      1.00000
      9     -21.9209      1.00000
     10     -21.8857      1.00000
     11     -21.6472      1.00000
     12     -21.5624      1.00000
     13     -21.5469      1.00000
     14     -21.4302      1.00000
     15     -21.3145      1.00000
     16     -15.2325      1.00000
     17     -15.0665      1.00000
     18     -14.9841      1.00000
     19     -14.5227      1.00000
     20     -14.2582      1.00000
     21     -14.2322      1.00000
     22     -13.8813      1.00000
     23     -13.5918      1.00000
     24     -13.4591      1.00000
     25     -12.8371      1.00000
     26     -12.6948      1.00000
     27     -12.2068      1.00000
     28     -12.1545      1.00000
     29     -11.9980      1.00000
     30     -11.7470      1.00000
     31     -11.6590      1.00000
     32     -11.3398      1.00000
     33     -11.2907      1.00000
     34     -11.1638      1.00000
     35     -10.8180      1.00000
     36     -10.7582      1.00000
     37     -10.3775      1.00000
     38     -10.3702      1.00000
     39     -10.3452      1.00000
     40     -10.1677      1.00000
     41     -10.0899      1.00000
     42      -9.9505      1.00000
     43      -9.7161      1.00000
     44      -9.5632      1.00000
     45      -9.4181      1.00000
     46      -9.2918      1.00000
     47      -9.2171      1.00000
     48      -9.1062      1.00000
     49      -9.0498      1.00000
     50      -8.7504      1.00000
     51      -8.7324      1.00000
     52      -8.0094      1.00000
     53      -7.9592      1.00000
     54      -7.9009      1.00000
     55      -7.5085      1.00000
     56      -7.4326      1.00000
     57      -7.1239      1.00000
     58      -6.9982      1.00000
     59      -6.9073      1.00000
     60      -6.7773      1.00000
     61      -6.5640      1.00000
     62      -5.4055      1.00000
     63      -5.3349      1.00000
     64      -3.6894      0.00000
     65      -0.7640      0.00000
     66      -0.5727      0.00000
     67      -0.3688      0.00000
     68      -0.3150      0.00000
     69      -0.1920      0.00000
     70      -0.1336      0.00000
     71      -0.0678      0.00000
     72      -0.0617      0.00000
     73       0.1359      0.00000
     74       0.2263      0.00000
     75       0.2814      0.00000
     76       0.4567      0.00000
     77       0.5024      0.00000
     78       0.7015      0.00000
     79       0.8143      0.00000
     80       0.8990      0.00000
     81       0.9628      0.00000
     82       1.0820      0.00000
     83       1.0873      0.00000
     84       1.1713      0.00000
     85       1.1741      0.00000
     86       1.1830      0.00000
     87       1.2386      0.00000
     88       1.3732      0.00000
     89       1.4372      0.00000
     90       1.4590      0.00000
     91       1.5226      0.00000
     92       1.5313      0.00000
     93       1.7443      0.00000
     94       1.7798      0.00000
     95       1.8866      0.00000
     96       1.9100      0.00000

 k-point     2 :       0.3750    0.1250    0.0000
  band No.  band energies     occupation 
      1     -24.4812      1.00000
      2     -24.2712      1.00000
      3     -23.8989      1.00000
      4     -23.4504      1.00000
      5     -22.9753      1.00000
      6     -22.7282      1.00000
      7     -22.6316      1.00000
      8     -22.4127      1.00000
      9     -22.2264      1.00000
     10     -21.9323      1.00000
     11     -21.8800      1.00000
     12     -21.5890      1.00000
     13     -21.5005      1.00000
     14     -21.2730      1.00000
     15     -21.1257      1.00000
     16     -15.0924      1.00000
     17     -14.9164      1.00000
     18     -14.6633      1.00000
     19     -14.5613      1.00000
     20     -14.4620      1.00000
     21     -14.2905      1.00000
     22     -14.0718      1.00000
     23     -13.7121      1.00000
     24     -13.4055      1.00000
     25     -13.1663      1.00000
     26     -12.9427      1.00000
     27     -12.5505      1.00000
     28     -12.2127      1.00000
     29     -12.1417      1.00000
     30     -11.4299      1.00000
     31     -11.2712      1.00000
     32     -11.0720      1.00000
     33     -11.0564      1.00000
     34     -10.9095      1.00000
     35     -10.8068      1.00000
     36     -10.6382      1.00000
     37     -10.5143      1.00000
     38     -10.3675      1.00000
     39     -10.3517      1.00000
     40     -10.2570      1.00000
     41     -10.1755      1.00000
     42      -9.9803      1.00000
     43      -9.7540      1.00000
     44      -9.7398      1.00000
     45      -9.5242      1.00000
     46      -9.1825      1.00000
     47      -9.0489      1.00000
     48      -8.7996      1.00000
     49      -8.7006      1.00000
     50      -8.6188      1.00000
     51      -8.5350      1.00000
     52      -8.2515      1.00000
     53      -8.1424      1.00000
     54      -8.0374      1.00000
     55      -8.0295      1.00000
     56      -7.6436      1.00000
     57      -7.4150      1.00000
     58      -7.0848      1.00000
     59      -6.8453      1.00000
     60      -6.5239      1.00000
     61      -6.2358      1.00000
     62      -5.5882      1.00000
     63      -5.4114      1.00000
     64      -3.6286      0.00000
     65      -0.6161      0.00000
     66      -0.5339      0.00000
     67      -0.4478      0.00000
     68      -0.3840      0.00000
     69      -0.2354      0.00000
     70      -0.1934      0.00000
     71       0.1153      0.00000
     72       0.1774      0.00000
     73       0.2422      0.00000
     74       0.3026      0.00000
     75       0.3866      0.00000
     76       0.4386      0.00000
     77       0.4915      0.00000
     78       0.5272      0.00000
     79       0.5970      0.00000
     80       0.7121      0.00000
     81       0.7756      0.00000
     82       0.8440      0.00000
     83       0.8980      0.00000
     84       0.9876      0.00000
     85       1.0390      0.00000
     86       1.1277      0.00000
     87       1.2530      0.00000
     88       1.2805      0.00000
     89       1.3037      0.00000
     90       1.3415      0.00000
     91       1.3769      0.00000
     92       1.5121      0.00000
     93       1.5276      0.00000
     94       1.6075      0.00000
     95       1.8457      0.00000
     96       1.9284      0.00000

 k-point     3 :      -0.3750    0.1250    0.0000
  band No.  band energies     occupation 
      1     -24.5621      1.00000
      2     -24.1357      1.00000
      3     -23.8600      1.00000
      4     -23.4417      1.00000
      5     -23.1777      1.00000
      6     -22.8844      1.00000
      7     -22.5278      1.00000
      8     -22.3779      1.00000
      9     -22.1174      1.00000
     10     -21.9011      1.00000
     11     -21.7728      1.00000
     12     -21.5782      1.00000
     13     -21.5102      1.00000
     14     -21.3340      1.00000
     15     -21.1934      1.00000
     16     -15.1585      1.00000
     17     -14.9861      1.00000
     18     -14.8151      1.00000
     19     -14.5272      1.00000
     20     -14.4043      1.00000
     21     -14.2200      1.00000
     22     -13.9990      1.00000
     23     -13.7278      1.00000
     24     -13.3847      1.00000
     25     -13.0397      1.00000
     26     -12.6997      1.00000
     27     -12.5810      1.00000
     28     -12.1903      1.00000
     29     -11.9978      1.00000
     30     -11.7358      1.00000
     31     -11.3305      1.00000
     32     -11.1965      1.00000
     33     -11.1610      1.00000
     34     -10.8865      1.00000
     35     -10.7864      1.00000
     36     -10.6518      1.00000
     37     -10.6026      1.00000
     38     -10.4019      1.00000
     39     -10.3278      1.00000
     40     -10.2944      1.00000
     41     -10.1428      1.00000
     42      -9.8074      1.00000
     43      -9.7248      1.00000
     44      -9.6707      1.00000
     45      -9.4754      1.00000
     46      -9.3467      1.00000
     47      -9.0853      1.00000
     48      -8.9513      1.00000
     49      -8.8792      1.00000
     50      -8.6318      1.00000
     51      -8.5221      1.00000
     52      -8.2466      1.00000
     53      -8.0915      1.00000
     54      -8.0057      1.00000
     55      -7.8083      1.00000
     56      -7.4614      1.00000
     57      -7.3347      1.00000
     58      -7.0507      1.00000
     59      -6.8590      1.00000
     60      -6.6156      1.00000
     61      -6.3565      1.00000
     62      -5.5097      1.00000
     63      -5.3790      1.00000
     64      -3.6575      0.00000
     65      -0.6359      0.00000
     66      -0.5375      0.00000
     67      -0.4864      0.00000
     68      -0.3377      0.00000
     69      -0.1454      0.00000
     70      -0.0442      0.00000
     71      -0.0004      0.00000
     72       0.0558      0.00000
     73       0.1120      0.00000
     74       0.1824      0.00000
     75       0.3477      0.00000
     76       0.3559      0.00000
     77       0.4168      0.00000
     78       0.6108      0.00000
     79       0.7249      0.00000
     80       0.8015      0.00000
     81       0.9407      0.00000
     82       0.9591      0.00000
     83       1.0492      0.00000
     84       1.0670      0.00000
     85       1.0744      0.00000
     86       1.1149      0.00000
     87       1.1597      0.00000
     88       1.1884      0.00000
     89       1.3234      0.00000
     90       1.4019      0.00000
     91       1.5782      0.00000
     92       1.6446      0.00000
     93       1.6667      0.00000
     94       1.7541      0.00000
     95       1.8728      0.00000
     96       2.0235      0.00000

 k-point     4 :      -0.1250    0.1250    0.0000
  band No.  band energies     occupation 
      1     -24.6599      1.00000
      2     -23.8311      1.00000
      3     -23.6919      1.00000
      4     -23.5164      1.00000
      5     -23.3626      1.00000
      6     -23.3357      1.00000
      7     -22.6550      1.00000
      8     -21.9820      1.00000
      9     -21.8768      1.00000
     10     -21.7341      1.00000
     11     -21.6595      1.00000
     12     -21.5802      1.00000
     13     -21.5545      1.00000
     14     -21.4713      1.00000
     15     -21.4570      1.00000
     16     -15.2953      1.00000
     17     -15.0879      1.00000
     18     -15.0671      1.00000
     19     -14.6350      1.00000
     20     -14.1400      1.00000
     21     -14.0806      1.00000
     22     -13.8426      1.00000
     23     -13.5420      1.00000
     24     -13.5243      1.00000
     25     -12.8150      1.00000
     26     -12.3344      1.00000
     27     -12.3280      1.00000
     28     -12.0005      1.00000
     29     -11.9008      1.00000
     30     -11.8373      1.00000
     31     -11.7003      1.00000
     32     -11.5419      1.00000
     33     -11.3763      1.00000
     34     -11.3390      1.00000
     35     -10.9541      1.00000
     36     -10.6450      1.00000
     37     -10.6356      1.00000
     38     -10.3092      1.00000
     39     -10.1772      1.00000
     40     -10.0061      1.00000
     41      -9.9999      1.00000
     42      -9.9637      1.00000
     43      -9.8169      1.00000
     44      -9.5911      1.00000
     45      -9.5199      1.00000
     46      -9.2507      1.00000
     47      -9.1998      1.00000
     48      -9.1808      1.00000
     49      -9.0820      1.00000
     50      -8.9097      1.00000
     51      -8.8225      1.00000
     52      -7.9506      1.00000
     53      -7.9239      1.00000
     54      -7.5708      1.00000
     55      -7.4436      1.00000
     56      -7.1476      1.00000
     57      -7.1449      1.00000
     58      -7.0129      1.00000
     59      -6.9546      1.00000
     60      -6.8507      1.00000
     61      -6.8015      1.00000
     62      -5.3342      1.00000
     63      -5.3062      1.00000
     64      -3.7053      0.00000
     65      -0.8289      0.00000
     66      -0.5886      0.00000
     67      -0.5166      0.00000
     68      -0.4353      0.00000
     69      -0.1925      0.00000
     70      -0.1298      0.00000
     71      -0.0099      0.00000
     72       0.0696      0.00000
     73       0.1605      0.00000
     74       0.2206      0.00000
     75       0.4503      0.00000
     76       0.4566      0.00000
     77       0.6543      0.00000
     78       0.7596      0.00000
     79       0.8363      0.00000
     80       0.8749      0.00000
     81       0.8789      0.00000
     82       0.9514      0.00000
     83       1.0357      0.00000
     84       1.2678      0.00000
     85       1.3490      0.00000
     86       1.3592      0.00000
     87       1.4132      0.00000
     88       1.4717      0.00000
     89       1.5139      0.00000
     90       1.6041      0.00000
     91       1.6078      0.00000
     92       1.6187      0.00000
     93       1.6223      0.00000
     94       1.6590      0.00000
     95       1.7210      0.00000
     96       1.8945      0.00000

 k-point     5 :       0.3750    0.3750    0.0000
  band No.  band energies     occupation 
      1     -24.4193      1.00000
      2     -24.3282      1.00000
      3     -23.9827      1.00000
      4     -23.2617      1.00000
      5     -23.0503      1.00000
      6     -22.8954      1.00000
      7     -22.3805      1.00000
      8     -22.3689      1.00000
      9     -22.1721      1.00000
     10     -22.1139      1.00000
     11     -22.0131      1.00000
     12     -21.6073      1.00000
     13     -21.3880      1.00000
     14     -21.3094      1.00000
     15     -21.0858      1.00000
     16     -15.0658      1.00000
     17     -14.8789      1.00000
     18     -14.7138      1.00000
     19     -14.6794      1.00000
     20     -14.2766      1.00000
     21     -14.1419      1.00000
     22     -14.0137      1.00000
     23     -13.7831      1.00000
     24     -13.6829      1.00000
     25     -13.2668      1.00000
     26     -12.9996      1.00000
     27     -12.5995      1.00000
     28     -12.0519      1.00000
     29     -11.9459      1.00000
     30     -11.6442      1.00000
     31     -11.2356      1.00000
     32     -11.1463      1.00000
     33     -10.9799      1.00000
     34     -10.8648      1.00000
     35     -10.6447      1.00000
     36     -10.6040      1.00000
     37     -10.5141      1.00000
     38     -10.4534      1.00000
     39     -10.3366      1.00000
     40     -10.2078      1.00000
     41     -10.1352      1.00000
     42     -10.0754      1.00000
     43      -9.9074      1.00000
     44      -9.5015      1.00000
     45      -9.4610      1.00000
     46      -9.4018      1.00000
     47      -9.1499      1.00000
     48      -8.9746      1.00000
     49      -8.5920      1.00000
     50      -8.4614      1.00000
     51      -8.1918      1.00000
     52      -8.1713      1.00000
     53      -8.1634      1.00000
     54      -8.1353      1.00000
     55      -7.9531      1.00000
     56      -7.7708      1.00000
     57      -7.7613      1.00000
     58      -7.1832      1.00000
     59      -6.6748      1.00000
     60      -6.5426      1.00000
     61      -6.1793      1.00000
     62      -5.5742      1.00000
     63      -5.4675      1.00000
     64      -3.6086      0.00000
     65      -0.6611      0.00000
     66      -0.5923      0.00000
     67      -0.4349      0.00000
     68      -0.4154      0.00000
     69      -0.2820      0.00000
     70      -0.2353      0.00000
     71      -0.0018      0.00000
     72       0.3368      0.00000
     73       0.3633      0.00000
     74       0.4286      0.00000
     75       0.4301      0.00000
     76       0.5627      0.00000
     77       0.6070      0.00000
     78       0.6776      0.00000
     79       0.6885      0.00000
     80       0.7086      0.00000
     81       0.7352      0.00000
     82       0.7785      0.00000
     83       0.7875      0.00000
     84       0.9241      0.00000
     85       0.9516      0.00000
     86       1.0314      0.00000
     87       1.0602      0.00000
     88       1.1898      0.00000
     89       1.3016      0.00000
     90       1.3096      0.00000
     91       1.4316      0.00000
     92       1.4680      0.00000
     93       1.4948      0.00000
     94       1.5089      0.00000
     95       1.6290      0.00000
     96       1.9256      0.00000

 k-point     6 :      -0.3750    0.3750    0.0000
  band No.  band energies     occupation 
      1     -24.5337      1.00000
      2     -24.2024      1.00000
      3     -23.8177      1.00000
      4     -23.5490      1.00000
      5     -22.9851      1.00000
      6     -22.8636      1.00000
      7     -22.4999      1.00000
      8     -22.4694      1.00000
      9     -22.2382      1.00000
     10     -21.8443      1.00000
     11     -21.7246      1.00000
     12     -21.6296      1.00000
     13     -21.5687      1.00000
     14     -21.2686      1.00000
     15     -21.1808      1.00000
     16     -15.1449      1.00000
     17     -14.8858      1.00000
     18     -14.7827      1.00000
     19     -14.5901      1.00000
     20     -14.4412      1.00000
     21     -14.1825      1.00000
     22     -14.0414      1.00000
     23     -13.8880      1.00000
     24     -13.1102      1.00000
     25     -13.0830      1.00000
     26     -12.7508      1.00000
     27     -12.7003      1.00000
     28     -12.4560      1.00000
     29     -11.9307      1.00000
     30     -11.3997      1.00000
     31     -11.3420      1.00000
     32     -11.2603      1.00000
     33     -11.1529      1.00000
     34     -10.8208      1.00000
     35     -10.7139      1.00000
     36     -10.7136      1.00000
     37     -10.7113      1.00000
     38     -10.4337      1.00000
     39     -10.2377      1.00000
     40     -10.1882      1.00000
     41     -10.1088      1.00000
     42      -9.9283      1.00000
     43      -9.8057      1.00000
     44      -9.7664      1.00000
     45      -9.4883      1.00000
     46      -9.1030      1.00000
     47      -9.0429      1.00000
     48      -8.8855      1.00000
     49      -8.8676      1.00000
     50      -8.7103      1.00000
     51      -8.4112      1.00000
     52      -8.3460      1.00000
     53      -8.1238      1.00000
     54      -8.0504      1.00000
     55      -7.9722      1.00000
     56      -7.4932      1.00000
     57      -7.1313      1.00000
     58      -7.1017      1.00000
     59      -6.9982      1.00000
     60      -6.5457      1.00000
     61      -6.3131      1.00000
     62      -5.5586      1.00000
     63      -5.3774      1.00000
     64      -3.6489      0.00000
     65      -0.5728      0.00000
     66      -0.5465      0.00000
     67      -0.4616      0.00000
     68      -0.2998      0.00000
     69      -0.2633      0.00000
     70      -0.0717      0.00000
     71       0.0393      0.00000
     72       0.1188      0.00000
     73       0.1270      0.00000
     74       0.1811      0.00000
     75       0.3910      0.00000
     76       0.4495      0.00000
     77       0.4692      0.00000
     78       0.5436      0.00000
     79       0.6144      0.00000
     80       0.6450      0.00000
     81       0.6966      0.00000
     82       0.8947      0.00000
     83       0.9711      0.00000
     84       1.0076      0.00000
     85       1.1556      0.00000
     86       1.2411      0.00000
     87       1.2634      0.00000
     88       1.3600      0.00000
     89       1.3601      0.00000
     90       1.4827      0.00000
     91       1.5777      0.00000
     92       1.6067      0.00000
     93       1.6131      0.00000
     94       1.6368      0.00000
     95       1.6517      0.00000
     96       1.8034      0.00000

 spin component 2

 k-point     1 :       0.1250    0.1250    0.0000
  band No.  band energies     occupation 
      1     -24.6265      1.00000
      2     -23.9731      1.00000
      3     -23.7809      1.00000
      4     -23.4557      1.00000
      5     -23.3249      1.00000
      6     -23.1270      1.00000
      7     -22.5862      1.00000
      8     -22.1887      1.00000
      9     -21.9209      1.00000
     10     -21.8857      1.00000
     11     -21.6472      1.00000
     12     -21.5624      1.00000
     13     -21.5469      1.00000
     14     -21.4302      1.00000
     15     -21.3145      1.00000
     16     -15.2325      1.00000
     17     -15.0665      1.00000
     18     -14.9841      1.00000
     19     -14.5227      1.00000
     20     -14.2582      1.00000
     21     -14.2322      1.00000
     22     -13.8813      1.00000
     23     -13.5918      1.00000
     24     -13.4591      1.00000
     25     -12.8371      1.00000
     26     -12.6948      1.00000
     27     -12.2068      1.00000
     28     -12.1545      1.00000
     29     -11.9980      1.00000
     30     -11.7470      1.00000
     31     -11.6590      1.00000
     32     -11.3398      1.00000
     33     -11.2907      1.00000
     34     -11.1638      1.00000
     35     -10.8180      1.00000
     36     -10.7582      1.00000
     37     -10.3775      1.00000
     38     -10.3702      1.00000
     39     -10.3452      1.00000
     40     -10.1677      1.00000
     41     -10.0899      1.00000
     42      -9.9505      1.00000
     43      -9.7161      1.00000
     44      -9.5632      1.00000
     45      -9.4181      1.00000
     46      -9.2918      1.00000
     47      -9.2171      1.00000
     48      -9.1062      1.00000
     49      -9.0498      1.00000
     50      -8.7504      1.00000
     51      -8.7324      1.00000
     52      -8.0094      1.00000
     53      -7.9592      1.00000
     54      -7.9009      1.00000
     55      -7.5085      1.00000
     56      -7.4326      1.00000
     57      -7.1239      1.00000
     58      -6.9982      1.00000
     59      -6.9073      1.00000
     60      -6.7773      1.00000
     61      -6.5640      1.00000
     62      -5.4055      1.00000
     63      -5.3349      1.00000
     64      -3.6894      0.00000
     65      -0.7641      0.00000
     66      -0.5727      0.00000
     67      -0.3688      0.00000
     68      -0.3150      0.00000
     69      -0.1920      0.00000
     70      -0.1336      0.00000
     71      -0.0678      0.00000
     72      -0.0617      0.00000
     73       0.1359      0.00000
     74       0.2263      0.00000
     75       0.2814      0.00000
     76       0.4566      0.00000
     77       0.5024      0.00000
     78       0.7015      0.00000
     79       0.8142      0.00000
     80       0.8990      0.00000
     81       0.9628      0.00000
     82       1.0820      0.00000
     83       1.0872      0.00000
     84       1.1713      0.00000
     85       1.1741      0.00000
     86       1.1829      0.00000
     87       1.2386      0.00000
     88       1.3731      0.00000
     89       1.4372      0.00000
     90       1.4590      0.00000
     91       1.5226      0.00000
     92       1.5313      0.00000
     93       1.7441      0.00000
     94       1.7799      0.00000
     95       1.8865      0.00000
     96       1.9101      0.00000

 k-point     2 :       0.3750    0.1250    0.0000
  band No.  band energies     occupation 
      1     -24.4812      1.00000
      2     -24.2712      1.00000
      3     -23.8989      1.00000
      4     -23.4504      1.00000
      5     -22.9753      1.00000
      6     -22.7282      1.00000
      7     -22.6316      1.00000
      8     -22.4127      1.00000
      9     -22.2264      1.00000
     10     -21.9323      1.00000
     11     -21.8800      1.00000
     12     -21.5890      1.00000
     13     -21.5005      1.00000
     14     -21.2730      1.00000
     15     -21.1257      1.00000
     16     -15.0924      1.00000
     17     -14.9164      1.00000
     18     -14.6633      1.00000
     19     -14.5613      1.00000
     20     -14.4620      1.00000
     21     -14.2905      1.00000
     22     -14.0718      1.00000
     23     -13.7121      1.00000
     24     -13.4055      1.00000
     25     -13.1663      1.00000
     26     -12.9427      1.00000
     27     -12.5505      1.00000
     28     -12.2127      1.00000
     29     -12.1417      1.00000
     30     -11.4299      1.00000
     31     -11.2712      1.00000
     32     -11.0720      1.00000
     33     -11.0564      1.00000
     34     -10.9095      1.00000
     35     -10.8068      1.00000
     36     -10.6382      1.00000
     37     -10.5143      1.00000
     38     -10.3675      1.00000
     39     -10.3517      1.00000
     40     -10.2570      1.00000
     41     -10.1755      1.00000
     42      -9.9803      1.00000
     43      -9.7540      1.00000
     44      -9.7398      1.00000
     45      -9.5242      1.00000
     46      -9.1825      1.00000
     47      -9.0489      1.00000
     48      -8.7996      1.00000
     49      -8.7006      1.00000
     50      -8.6188      1.00000
     51      -8.5350      1.00000
     52      -8.2515      1.00000
     53      -8.1424      1.00000
     54      -8.0374      1.00000
     55      -8.0295      1.00000
     56      -7.6436      1.00000
     57      -7.4150      1.00000
     58      -7.0848      1.00000
     59      -6.8453      1.00000
     60      -6.5239      1.00000
     61      -6.2358      1.00000
     62      -5.5882      1.00000
     63      -5.4114      1.00000
     64      -3.6286      0.00000
     65      -0.6161      0.00000
     66      -0.5339      0.00000
     67      -0.4478      0.00000
     68      -0.3840      0.00000
     69      -0.2354      0.00000
     70      -0.1934      0.00000
     71       0.1153      0.00000
     72       0.1773      0.00000
     73       0.2422      0.00000
     74       0.3026      0.00000
     75       0.3866      0.00000
     76       0.4386      0.00000
     77       0.4915      0.00000
     78       0.5272      0.00000
     79       0.5970      0.00000
     80       0.7121      0.00000
     81       0.7756      0.00000
     82       0.8439      0.00000
     83       0.8979      0.00000
     84       0.9876      0.00000
     85       1.0390      0.00000
     86       1.1277      0.00000
     87       1.2529      0.00000
     88       1.2805      0.00000
     89       1.3037      0.00000
     90       1.3415      0.00000
     91       1.3768      0.00000
     92       1.5121      0.00000
     93       1.5276      0.00000
     94       1.6074      0.00000
     95       1.8457      0.00000
     96       1.9283      0.00000

 k-point     3 :      -0.3750    0.1250    0.0000
  band No.  band energies     occupation 
      1     -24.5621      1.00000
      2     -24.1357      1.00000
      3     -23.8600      1.00000
      4     -23.4417      1.00000
      5     -23.1777      1.00000
      6     -22.8844      1.00000
      7     -22.5278      1.00000
      8     -22.3779      1.00000
      9     -22.1174      1.00000
     10     -21.9011      1.00000
     11     -21.7728      1.00000
     12     -21.5782      1.00000
     13     -21.5102      1.00000
     14     -21.3340      1.00000
     15     -21.1934      1.00000
     16     -15.1585      1.00000
     17     -14.9861      1.00000
     18     -14.8151      1.00000
     19     -14.5272      1.00000
     20     -14.4043      1.00000
     21     -14.2200      1.00000
     22     -13.9990      1.00000
     23     -13.7278      1.00000
     24     -13.3847      1.00000
     25     -13.0397      1.00000
     26     -12.6997      1.00000
     27     -12.5810      1.00000
     28     -12.1903      1.00000
     29     -11.9978      1.00000
     30     -11.7358      1.00000
     31     -11.3305      1.00000
     32     -11.1965      1.00000
     33     -11.1610      1.00000
     34     -10.8865      1.00000
     35     -10.7864      1.00000
     36     -10.6518      1.00000
     37     -10.6026      1.00000
     38     -10.4019      1.00000
     39     -10.3278      1.00000
     40     -10.2944      1.00000
     41     -10.1428      1.00000
     42      -9.8074      1.00000
     43      -9.7248      1.00000
     44      -9.6707      1.00000
     45      -9.4754      1.00000
     46      -9.3467      1.00000
     47      -9.0853      1.00000
     48      -8.9513      1.00000
     49      -8.8792      1.00000
     50      -8.6318      1.00000
     51      -8.5221      1.00000
     52      -8.2466      1.00000
     53      -8.0915      1.00000
     54      -8.0057      1.00000
     55      -7.8083      1.00000
     56      -7.4614      1.00000
     57      -7.3347      1.00000
     58      -7.0507      1.00000
     59      -6.8590      1.00000
     60      -6.6156      1.00000
[...]
  0.000   0.000  -0.000  -2.396   0.000  -0.000  -4.114   0.000
 -0.000  -0.000  -0.000   0.000  -2.402  -0.000   0.000  -4.132
  0.000   0.000  -4.132  -0.000  -0.000  -6.901  -0.000  -0.001
  0.000   0.000  -0.000  -4.114   0.000  -0.000  -6.860   0.000
 -0.000  -0.000  -0.000   0.000  -4.132  -0.001   0.000  -6.902
 total augmentation occupancy for first ion, spin component:           1
  4.658  -1.434  -0.132  -0.000   0.032   0.046   0.000  -0.011
 -1.434   0.471   0.042   0.000  -0.009  -0.016   0.000   0.005
 -0.132   0.042   5.336   0.000   0.017  -1.666   0.000  -0.010
 -0.000   0.000   0.000   1.745   0.000   0.000  -0.471   0.000
  0.032  -0.009   0.017   0.000   5.417  -0.010   0.000  -1.687
  0.046  -0.016  -1.666   0.000  -0.010   0.535   0.000   0.004
  0.000   0.000   0.000  -0.471   0.000   0.000   0.128   0.000
 -0.011   0.005  -0.010   0.000  -1.687   0.004   0.000   0.543
 total augmentation occupancy for first ion, spin component:           2
  0.000  -0.000   0.000   0.000  -0.000  -0.000   0.000   0.000
 -0.000   0.000  -0.000   0.000   0.000   0.000   0.000  -0.000
  0.000  -0.000  -0.000   0.000  -0.000   0.000   0.000   0.000
  0.000   0.000   0.000   0.000   0.000   0.000  -0.000  -0.000
 -0.000   0.000  -0.000   0.000  -0.000   0.000  -0.000   0.000
 -0.000   0.000   0.000   0.000   0.000  -0.000   0.000  -0.000
  0.000   0.000   0.000  -0.000  -0.000   0.000   0.000   0.000
  0.000  -0.000   0.000  -0.000   0.000  -0.000   0.000  -0.000


------------------------ aborting loop because EDIFF is reached ----------------------------------------


 


 total charge     
 
# of ion       s       p       d       tot
------------------------------------------
    1        0.761   1.445   0.000   2.205
    2        0.761   1.444   0.000   2.205
    3        0.745   1.395   0.000   2.140
    4        0.745   1.393   0.000   2.139
    5        0.739   1.358   0.000   2.097
    6        0.785   1.445   0.000   2.230
    7        0.739   1.359   0.000   2.098
    8        0.745   1.392   0.000   2.137
    9        0.761   1.444   0.000   2.205
   10        0.785   1.445   0.000   2.230
   11        0.785   1.445   0.000   2.230
   12        0.761   1.444   0.000   2.205
   13        0.756   1.429   0.000   2.185
   14        0.761   1.444   0.000   2.205
   15        0.739   1.360   0.000   2.098
   16        0.761   1.444   0.000   2.205
   17        0.824   1.413   0.000   2.237
   18        1.240   2.830   0.000   4.070
   19        1.244   2.849   0.000   4.093
   20        1.240   2.820   0.000   4.059
   21        1.244   2.850   0.000   4.094
   22        1.247   2.827   0.000   4.074
   23        1.247   2.826   0.000   4.074
   24        1.240   2.821   0.000   4.061
   25        1.240   2.822   0.000   4.062
   26        1.247   2.827   0.000   4.074
   27        1.247   2.827   0.000   4.074
   28        1.244   2.850   0.000   4.094
   29        1.240   2.831   0.000   4.071
   30        1.247   2.826   0.000   4.074
   31        1.247   2.827   0.000   4.074
   32        1.240   2.833   0.000   4.073
--------------------------------------------------
tot         31.605  66.565   0.000  98.170
 


 magnetization (x)
 
# of ion       s       p       d       tot
------------------------------------------
    1       -0.000   0.000   0.000   0.000
    2       -0.000   0.000   0.000   0.000
    3       -0.000   0.000   0.000   0.000
    4       -0.000  -0.000   0.000  -0.000
    5       -0.000   0.000   0.000   0.000
    6       -0.000  -0.000   0.000  -0.000
    7       -0.000   0.000   0.000   0.000
    8       -0.000  -0.000   0.000  -0.000
    9       -0.000   0.000   0.000   0.000
   10       -0.000  -0.000   0.000  -0.000
   11       -0.000  -0.000   0.000  -0.000
   12       -0.000   0.000   0.000   0.000
   13       -0.000   0.000   0.000  -0.000
   14       -0.000   0.000   0.000   0.000
   15       -0.000   0.000   0.000   0.000
   16       -0.000   0.000   0.000   0.000
   17        0.000   0.000   0.000   0.000
   18        0.000  -0.000   0.000  -0.000
   19        0.000  -0.000   0.000   0.000
   20       -0.000   0.000   0.000   0.000
   21        0.000  -0.000   0.000  -0.000
   22        0.000  -0.000   0.000   0.000
   23        0.000  -0.000   0.000   0.000
   24       -0.000   0.000   0.000   0.000
   25       -0.000   0.000   0.000   0.000
   26        0.000  -0.000   0.000   0.000
   27        0.000  -0.000   0.000  -0.000
   28        0.000   0.000   0.000   0.000
   29        0.000  -0.000   0.000  -0.000
   30        0.000  -0.000   0.000  -0.000
   31        0.000  -0.000   0.000  -0.000
   32        0.000  -0.000   0.000  -0.000
--------------------------------------------------
tot         -0.000  -0.000   0.000  -0.000
 
    CHARGE:  cpu time    2.4118: real time    1.6635
    FORLOC:  cpu time    0.2730: real time    0.1621
    FORNL :  cpu time    8.7127: real time    4.3919
    STRESS:  cpu time  209.3541: real time  187.2988
    FORCOR:  cpu time    2.3419: real time    2.3414
    FORHAR:  cpu time    0.2564: real time    0.2563
    MIXING:  cpu time    0.0783: real time    0.0782
    OFIELD:  cpu time    0.0001: real time    0.0001

  FORCE on cell =-STRESS in cart. coord.  units (eV):
  Direction    XX          YY          ZZ          XY          YZ          ZX
  --------------------------------------------------------------------------------------
  Alpha Z    29.25925    29.25925    29.25925
  Ewald   43876.76124 43876.75622-48065.01555     0.00000    -0.00000     0.00000
  Hartree 43632.57778 43632.57816-43156.13670     0.00011    -0.00000     0.00000
  E(xc)    -501.64577  -501.64574  -508.88975     0.02566     0.00003    -0.00001
  Local  -88827.75102-88827.75804 89689.01719     0.00172     0.00002    -0.00003
  n-local  -229.19411  -229.19325  -218.08415    -0.05586    -0.00000     0.00000
  augment    16.17161    16.17148    18.58298     0.00002    -0.00001     0.00001
  Kinetic  2014.68017  2014.67595  2210.93386     0.89874     0.00004    -0.00001
  Fock        0.00000     0.00000     0.00000     0.00000     0.00000     0.00000
  -------------------------------------------------------------------------------------
  Total      10.85154    10.85164    -0.33287     0.00000     0.00000     0.00000
  in kB       5.66185     5.66190    -0.17368     0.00000     0.00000     0.00000
  external pressure =        3.72 kB  Pullay stress =        0.00 kB


 VOLUME and BASIS-vectors are now :
 -----------------------------------------------------------------------------
  energy-cutoff  :      550.00
  volume of cell :     3070.74
      direct lattice vectors                 reciprocal lattice vectors
     5.024366704 -8.702497373  0.000000000     0.099515029 -0.057454772  0.000000000
     5.024366704  8.702497373  0.000000000     0.099515029  0.057454772  0.000000000
     0.000000000  0.000000000 35.114664386     0.000000000  0.000000000  0.028478131

  length of vectors
    10.048767154 10.048767154 35.114664386     0.114909929  0.114909929  0.028478131


 FORCES acting on ions
    electron-ion (+dipol)            ewald-force                    non-local-force                 convergence-correction
 -----------------------------------------------------------------------------------------------
   -.455E+01 -.236E+01 -.101E-04   0.474E+01 0.193E+01 -.109E-18   -.177E+00 0.433E+00 -.265E-22   0.524E-04 -.213E-02 0.115E-08
   -.234E+00 0.512E+01 0.449E-04   0.702E+00 -.507E+01 -.103E-18   -.464E+00 -.631E-01 -.265E-22   0.187E-02 0.102E-02 0.953E-08
   -.133E+01 -.766E+00 0.216E-04   0.128E+01 0.742E+00 -.260E-18   0.145E-01 0.837E-02 0.000E+00   0.679E-03 0.392E-03 0.368E-08
   0.118E-03 0.153E+01 -.401E-04   0.399E-11 -.148E+01 -.117E-18   -.217E-18 -.167E-01 0.000E+00   -.110E-07 -.784E-03 -.524E-08
   -.182E+02 -.105E+02 0.348E-04   0.183E+02 0.106E+02 -.849E-19   -.141E+00 -.812E-01 -.265E-22   -.209E-02 -.121E-02 0.725E-08
   -.480E+02 0.277E+02 0.114E-03   0.528E+02 -.305E+02 -.161E-18   -.479E+01 0.277E+01 0.000E+00   -.181E-02 0.105E-02 0.637E-08
   0.166E-03 0.210E+02 -.551E-04   -.114E-12 -.212E+02 -.697E-19   0.000E+00 0.162E+00 0.000E+00   0.437E-07 0.241E-02 -.132E-07
   0.133E+01 -.766E+00 0.190E-04   -.128E+01 0.742E+00 0.353E-19   -.145E-01 0.837E-02 0.000E+00   -.679E-03 0.392E-03 0.156E-08
   -.432E+01 -.276E+01 0.639E-05   0.404E+01 0.315E+01 0.173E-18   0.287E+00 -.370E+00 0.000E+00   -.182E-02 0.111E-02 -.783E-08
   0.242E-03 -.554E+02 -.150E-03   0.179E-10 0.610E+02 -.262E-19   0.000E+00 -.554E+01 0.000E+00   0.281E-07 -.209E-02 -.106E-07
   0.480E+02 0.277E+02 0.376E-04   -.528E+02 -.305E+02 -.287E-19   0.479E+01 0.277E+01 0.000E+00   0.181E-02 0.105E-02 0.424E-08
   0.234E+00 0.512E+01 0.143E-04   -.702E+00 -.507E+01 0.770E-19   0.464E+00 -.631E-01 0.000E+00   -.187E-02 0.102E-02 0.738E-08
   0.905E-04 -.455E-03 -.293E-06   0.411E-11 0.753E-03 0.816E-19   -.767E-19 0.171E-17 0.000E+00   0.276E-07 0.305E-07 -.324E-11
   0.432E+01 -.276E+01 -.415E-04   -.404E+01 0.315E+01 0.149E-18   -.287E+00 -.370E+00 0.000E+00   0.182E-02 0.111E-02 -.572E-08
   0.182E+02 -.105E+02 0.219E-04   -.183E+02 0.106E+02 0.155E-18   0.141E+00 -.812E-01 -.265E-22   0.209E-02 -.121E-02 0.598E-08
   0.455E+01 -.236E+01 -.144E-04   -.474E+01 0.193E+01 0.849E-19   0.177E+00 0.433E+00 0.000E+00   -.524E-04 -.213E-02 -.451E-08
   -.753E-04 0.724E-04 0.985E-07   0.381E-11 -.386E-03 0.857E-19   -.191E-18 0.729E-18 0.000E+00   0.283E-07 0.360E-07 0.385E-11
   -.741E+01 0.428E+01 0.131E-04   0.793E+01 -.458E+01 0.345E-19   -.535E+00 0.309E+00 0.238E-21   0.548E-02 -.317E-02 0.328E-07
   -.592E+01 -.342E+01 0.704E-04   0.647E+01 0.373E+01 -.150E-19   -.612E+00 -.353E+00 0.000E+00   0.770E-02 0.445E-02 0.176E-07
   0.414E+01 -.239E+01 0.234E-04   -.443E+01 0.256E+01 -.149E-18   0.235E+00 -.136E+00 0.000E+00   0.456E-02 -.263E-02 0.132E-07
   -.144E-02 0.684E+01 -.576E-04   0.403E-11 -.747E+01 0.957E-19   0.000E+00 0.706E+00 0.265E-22   0.223E-07 -.890E-02 -.353E-07
   -.350E+02 0.127E+02 -.197E-04   0.365E+02 -.134E+02 -.238E-18   -.159E+01 0.758E+00 0.662E-23   -.654E-02 -.231E-02 0.429E-07
   -.285E+02 0.240E+02 0.440E-04   0.298E+02 -.250E+02 -.292E-18   -.145E+01 0.998E+00 0.000E+00   -.127E-02 0.682E-02 0.119E-07
   -.141E-02 0.479E+01 -.847E-04   -.290E-11 -.512E+01 -.308E-18   0.000E+00 0.271E+00 0.212E-21   0.478E-07 0.527E-02 -.210E-07
   -.415E+01 -.239E+01 0.616E-04   0.443E+01 0.256E+01 -.356E-18   -.235E+00 -.136E+00 -.212E-21   -.456E-02 -.263E-02 0.777E-08
   -.654E+01 -.366E+02 0.777E-06   0.668E+01 0.383E+02 0.124E-18   -.138E+00 -.176E+01 0.000E+00   -.527E-02 -.451E-02 -.357E-07
   0.285E+02 0.240E+02 -.410E-04   -.298E+02 -.250E+02 0.395E-19   0.145E+01 0.998E+00 -.212E-21   0.127E-02 0.682E-02 -.920E-08
   0.592E+01 -.342E+01 -.131E-04   -.647E+01 0.373E+01 0.194E-18   0.612E+00 -.353E+00 -.106E-21   -.771E-02 0.445E-02 0.178E-07
   -.142E-02 -.856E+01 -.683E-04   -.391E-11 0.916E+01 0.277E-18   -.347E-17 -.618E+00 0.000E+00   0.211E-07 0.633E-02 -.417E-07
   0.654E+01 -.366E+02 -.154E-04   -.668E+01 0.383E+02 0.293E-18   0.138E+00 -.176E+01 -.529E-22   0.527E-02 -.451E-02 -.298E-07
   0.350E+02 0.127E+02 0.311E-04   -.365E+02 -.134E+02 0.180E-18   0.159E+01 0.758E+00 0.000E+00   0.654E-02 -.231E-02 0.201E-07
   0.741E+01 0.428E+01 0.553E-04   -.793E+01 -.458E+01 0.239E-18   0.535E+00 0.309E+00 0.000E+00   -.548E-02 -.317E-02 0.881E-08
 -----------------------------------------------------------------------------------------------
   -.232E-01 -.152E-01 0.508E-05   0.293E-13 0.924E-13 0.000E+00   -.333E-15 0.278E-15 -.205E-21   -.344E-07 0.163E-06 0.119E-11
 
 
 POSITION                                       TOTAL-FORCE (eV/Angst)
 -----------------------------------------------------------------------------------
      1.22550     -0.71789     17.55733        -0.006722     -0.002607      0.000000
      2.49055      1.47325     17.55733        -0.001103      0.007125     -0.000000
      3.76726      3.62545     17.55733         0.009602      0.005544      0.000000
      5.02437      5.80285     17.55733        -0.000000     -0.011087     -0.000000
      2.51076     -2.90166     17.55733        -0.007734     -0.004465      0.000000
      3.65303     -0.65867     17.55733         0.006752     -0.003898      0.000000
      5.02437      1.45207     17.55733        -0.000000      0.008930      0.000000
      6.28149      3.62545     17.55733        -0.009602      0.005544      0.000000
      3.75932     -5.10661     17.55733        -0.005619     -0.004518      0.000000
      5.02437     -3.03391     17.55733        -0.000000      0.007796     -0.000000
      6.39571     -0.65867     17.55733        -0.006752     -0.003898     -0.000000
      7.55819      1.47325     17.55733         0.001103      0.007125      0.000000
      5.02437     -7.25208     17.55733        -0.000000      0.000000      0.000000
      6.28942     -5.10661     17.55733         0.005619     -0.004518     -0.000000
      7.53799     -2.90166     17.55733         0.007734     -0.004465      0.000000
      8.82324     -0.71789     17.55733         0.006722     -0.002607      0.000000
      5.02437     -1.45042     17.55733        -0.000000      0.000000      0.000000
      1.24632      0.73085     17.55733        -0.007808      0.004508      0.000000
      2.51394      2.90184     17.55733        -0.006149     -0.003550      0.000000
      3.76824      5.07648     17.55733        -0.003852      0.002224      0.000000
      5.02437      7.25006     17.55733        -0.000000      0.007100      0.000000
      2.45519     -1.43782     17.55733        -0.008496     -0.005364      0.000000
      3.72888      0.76828     17.55733         0.000397      0.010039      0.000000
      5.02437      2.90079     17.55733        -0.000000     -0.004447      0.000000
      6.28050      5.07648     17.55733         0.003852      0.002224      0.000000
      3.75068     -3.68170     17.55733        -0.008893     -0.004676      0.000000
      6.31987      0.76828     17.55733        -0.000397      0.010039     -0.000000
      7.53481      2.90184     17.55733         0.006149     -0.003550     -0.000000
      5.02437     -5.81295     17.55733        -0.000000     -0.009016      0.000000
      6.29806     -3.68170     17.55733         0.008893     -0.004676      0.000000
      7.59355     -1.43782     17.55733         0.008496     -0.005364     -0.000000
      8.80242      0.73085     17.55733         0.007808      0.004508     -0.000000
 -----------------------------------------------------------------------------------
    total drift:                               -0.023214     -0.015169      0.000005


--------------------------------------------------------------------------------------------------------



  FREE ENERGIE OF THE ION-ELECTRON SYSTEM (eV)
  ---------------------------------------------------
  free  energy   TOTEN  =      -304.63058634 eV

  energy  without entropy=     -304.63058634  energy(sigma->0) =     -304.63058634
 
 d Force = 0.5999727E-04[ 0.908E-05, 0.111E-03]  d Energy = 0.6655388E-04-0.656E-05
 d Force = 0.1716540E+00[ 0.171E+00, 0.172E+00]  d Ewald  = 0.1716540E+00-0.137E-07


--------------------------------------------------------------------------------------------------------


    POTLOK:  cpu time   29.5087: real time   29.3008


--------------------------------------------------------------------------------------------------------




--------------------------------------------------------------------------------------------------------


  
 reached required accuracy - stopping structural energy minimisation
 writing wavefunctions
     LOOP+:  cpu time  789.6363: real time  625.7211
    4ORBIT:  cpu time    0.0000: real time    0.0000
 


 total charge     
 
# of ion       s       p       d       tot
------------------------------------------
    1        0.761   1.445   0.000   2.205
    2        0.761   1.444   0.000   2.205
    3        0.745   1.395   0.000   2.140
    4        0.745   1.393   0.000   2.139
    5        0.739   1.358   0.000   2.097
    6        0.785   1.445   0.000   2.230
    7        0.739   1.359   0.000   2.098
    8        0.745   1.392   0.000   2.137
    9        0.761   1.444   0.000   2.205
   10        0.785   1.445   0.000   2.230
   11        0.785   1.445   0.000   2.230
   12        0.761   1.444   0.000   2.205
   13        0.756   1.429   0.000   2.185
   14        0.761   1.444   0.000   2.205
   15        0.739   1.360   0.000   2.098
   16        0.761   1.444   0.000   2.205
   17        0.824   1.413   0.000   2.237
   18        1.240   2.830   0.000   4.070
   19        1.244   2.849   0.000   4.093
   20        1.240   2.820   0.000   4.059
   21        1.244   2.850   0.000   4.094
   22        1.247   2.827   0.000   4.074
   23        1.247   2.826   0.000   4.074
   24        1.240   2.821   0.000   4.061
   25        1.240   2.822   0.000   4.062
   26        1.247   2.827   0.000   4.074
   27        1.247   2.827   0.000   4.074
   28        1.244   2.850   0.000   4.094
   29        1.240   2.831   0.000   4.071
   30        1.247   2.826   0.000   4.074
   31        1.247   2.827   0.000   4.074
   32        1.240   2.833   0.000   4.073
--------------------------------------------------
tot         31.605  66.565   0.000  98.170
 


 magnetization (x)
 
# of ion       s       p       d       tot
------------------------------------------
    1       -0.000   0.000   0.000   0.000
    2       -0.000   0.000   0.000   0.000
    3       -0.000   0.000   0.000   0.000
    4       -0.000  -0.000   0.000  -0.000
    5       -0.000   0.000   0.000   0.000
    6       -0.000  -0.000   0.000  -0.000
    7       -0.000   0.000   0.000   0.000
    8       -0.000  -0.000   0.000  -0.000
    9       -0.000   0.000   0.000   0.000
   10       -0.000  -0.000   0.000  -0.000
   11       -0.000  -0.000   0.000  -0.000
   12       -0.000   0.000   0.000   0.000
   13       -0.000   0.000   0.000  -0.000
   14       -0.000   0.000   0.000   0.000
   15       -0.000   0.000   0.000   0.000
   16       -0.000   0.000   0.000   0.000
   17        0.000   0.000   0.000   0.000
   18        0.000  -0.000   0.000  -0.000
   19        0.000  -0.000   0.000   0.000
   20       -0.000   0.000   0.000   0.000
   21        0.000  -0.000   0.000  -0.000
   22        0.000  -0.000   0.000   0.000
   23        0.000  -0.000   0.000   0.000
   24       -0.000   0.000   0.000   0.000
   25       -0.000   0.000   0.000   0.000
   26        0.000  -0.000   0.000   0.000
   27        0.000  -0.000   0.000  -0.000
   28        0.000   0.000   0.000   0.000
   29        0.000  -0.000   0.000  -0.000
   30        0.000  -0.000   0.000  -0.000
   31        0.000  -0.000   0.000  -0.000
   32        0.000  -0.000   0.000  -0.000
--------------------------------------------------
tot         -0.000  -0.000   0.000  -0.000
 

 total amount of memory used by VASP MPI-rank0   235955. kBytes
=======================================================================

   base      :      30000. kBytes
   nonlr-proj:       5701. kBytes
   fftplans  :      29093. kBytes
   grid      :     101821. kBytes
   one-center:         36. kBytes
   wavefun   :      69304. kBytes
 
  
  
 General timing and accounting informations for this job:
 ========================================================
  
                  Total CPU time used (sec):     6835.922
                            User time (sec):     6351.883
                          System time (sec):      484.039
                         Elapsed time (sec):     4998.972
  
                   Maximum memory used (kb):     1036396.
                   Average memory used (kb):           0.
  
                          Minor page faults:      9641918
                          Major page faults:           21
                 Voluntary context switches:        34945
