 vasp.5.4.4.18Apr17-6-g9f103f2a35 (build May 01 2020 14:57:12) complex          
  
 executed on             LinuxIFC date 2021.06.17  21:07:57
 running on  192 total cores
 distrk:  each k-point on   48 cores,    4 groups
 distr:  one band on NCORES_PER_BAND=  12 cores,    4 groups


--------------------------------------------------------------------------------------------------------


 INCAR:
 POTCAR:    PAW_PBE B 06Sep2000                   
 POTCAR:    PAW_PBE H 15Jun2001                   
 POTCAR:    PAW_PBE N 08Apr2002                   
 POTCAR:    PAW_PBE O 08Apr2002                   

 ----------------------------------------------------------------------------- 
|                                                                             |
|           W    W    AA    RRRRR   N    N  II  N    N   GGGG   !!!           |
|           W    W   A  A   R    R  NN   N  II  NN   N  G    G  !!!           |
|           W    W  A    A  R    R  N N  N  II  N N  N  G       !!!           |
|           W WW W  AAAAAA  RRRRR   N  N N  II  N  N N  G  GGG   !            |
|           WW  WW  A    A  R   R   N   NN  II  N   NN  G    G                |
|           W    W  A    A  R    R  N    N  II  N    N   GGGG   !!!           |
|                                                                             |
|      You have enabled k-point parallelism (KPAR>1).                         |
|      This developmental code was originally  written by Paul Kent at ORNL,  |
|      and carefully double checked in Vienna.                                |
|      GW as well as linear response parallelism added by Martijn Marsman     |
|      and Georg Kresse.                                                      |
|      Carefully verify results versus KPAR=1.                                |
|      Report problems to Paul Kent and Vienna.                               |
|                                                                             |
 ----------------------------------------------------------------------------- 

 POTCAR:    PAW_PBE B 06Sep2000                   
   VRHFIN =B: s2p1                                                              
   LEXCH  = PE                                                                  
   EATOM  =    71.1703 eV,    5.2309 Ry                                         
                                                                                
   TITEL  = PAW_PBE B 06Sep2000                                                 
   LULTRA =        F    use ultrasoft PP ?                                      
   IUNSCR =        1    unscreen: 0-lin 1-nonlin 2-no                           
   RPACOR =    1.200    partial core radius                                     
   POMASS =   10.811; ZVAL   =    3.000    mass and valenz                      
   RCORE  =    1.700    outmost cutoff radius                                   
   RWIGS  =    1.710; RWIGS  =    0.905    wigner-seitz radius (au A)           
   ENMAX  =  318.614; ENMIN  =  238.960 eV                                      
   ICORE  =        2    local potential                                         
   LCOR   =        T    correct aug charges                                     
   LPAW   =        T    paw PP                                                  
   EAUG   =  535.514                                                            
   DEXC   =    0.000                                                            
   RMAX   =    1.732    core radius for proj-oper                               
   RAUG   =    1.300    factor for augmentation sphere                          
   RDEP   =    1.757    radius for radial grids                                 
   RDEPT  =    1.436    core radius for aug-charge                              
                                                                                
   Atomic configuration                                                         
    4 entries                                                                   
     n  l   j            E        occ.                                          
     1  0  0.50      -180.5896   2.0000                                         
     2  0  0.50        -9.4431   2.0000                                         
     2  1  0.50        -3.6068   1.0000                                         
     3  2  1.50        -4.0817   0.0000                                         
   Description                                                                  
     l       E           TYP  RCUT    TYP  RCUT                                 
     0     -9.4430752     23  1.500                                             
     0      0.8675899     23  1.500                                             
     1     -3.6067955     23  1.700                                             
     1      6.1086146     23  1.700                                             
     2     -4.0817478      7  1.700                                             
  local pseudopotential read in
  partial core-charges read in
  partial kinetic energy density read in
  atomic valenz-charges read in
  non local Contribution for L=           0  read in
    real space projection operators read in
  non local Contribution for L=           0  read in
    real space projection operators read in
  non local Contribution for L=           1  read in
    real space projection operators read in
  non local Contribution for L=           1  read in
    real space projection operators read in
    PAW grid and wavefunctions read in
 
   number of l-projection  operators is LMAX  =           4
   number of lm-projection operators is LMMAX =           8
 
 POTCAR:    PAW_PBE H 15Jun2001                   
   VRHFIN =H: ultrasoft test                                                    
   LEXCH  = PE                                                                  
   EATOM  =    12.4884 eV,    0.9179 Ry                                         
                                                                                
   TITEL  = PAW_PBE H 15Jun2001                                                 
   LULTRA =        F    use ultrasoft PP ?                                      
   IUNSCR =        0    unscreen: 0-lin 1-nonlin 2-no                           
   RPACOR =    0.000    partial core radius                                     
   POMASS =    1.000; ZVAL   =    1.000    mass and valenz                      
   RCORE  =    1.100    outmost cutoff radius                                   
   RWIGS  =    0.700; RWIGS  =    0.370    wigner-seitz radius (au A)           
   ENMAX  =  250.000; ENMIN  =  200.000 eV                                      
   RCLOC  =    0.701    cutoff for local pot                                    
   LCOR   =        T    correct aug charges                                     
   LPAW   =        T    paw PP                                                  
   EAUG   =  400.000                                                            
   RMAX   =    1.123    core radius for proj-oper                               
   RAUG   =    1.200    factor for augmentation sphere                          
   RDEP   =    1.112    radius for radial grids                                 
   RDEPT  =    0.926    core radius for aug-charge                              
                                                                                
   Atomic configuration                                                         
    2 entries                                                                   
     n  l   j            E        occ.                                          
     1  0  0.50        -6.4927   1.0000                                         
     2  1  0.50        -3.4015   0.0000                                         
   Description                                                                  
     l       E           TYP  RCUT    TYP  RCUT                                 
     0     -6.4927494     23  1.100                                             
     0      6.8029130     23  1.100                                             
     1     -4.0817478     23  1.100                                             
  local pseudopotential read in
  atomic valenz-charges read in
  non local Contribution for L=           0  read in
    real space projection operators read in
  non local Contribution for L=           0  read in
    real space projection operators read in
  non local Contribution for L=           1  read in
    real space projection operators read in
    PAW grid and wavefunctions read in
 
   number of l-projection  operators is LMAX  =           3
   number of lm-projection operators is LMMAX =           5
 
 POTCAR:    PAW_PBE N 08Apr2002                   
   VRHFIN =N: s2p3                                                              
   LEXCH  = PE                                                                  
   EATOM  =   264.5486 eV,   19.4438 Ry                                         
                                                                                
   TITEL  = PAW_PBE N 08Apr2002                                                 
   LULTRA =        F    use ultrasoft PP ?                                      
   IUNSCR =        1    unscreen: 0-lin 1-nonlin 2-no                           
   RPACOR =    1.200    partial core radius                                     
   POMASS =   14.001; ZVAL   =    5.000    mass and valenz                      
   RCORE  =    1.500    outmost cutoff radius                                   
   RWIGS  =    1.400; RWIGS  =    0.741    wigner-seitz radius (au A)           
   ENMAX  =  400.000; ENMIN  =  300.000 eV                                      
   ICORE  =        2    local potential                                         
   LCOR   =        T    correct aug charges                                     
   LPAW   =        T    paw PP                                                  
   EAUG   =  627.112                                                            
   DEXC   =    0.000                                                            
   RMAX   =    1.529    core radius for proj-oper                               
   RAUG   =    1.300    factor for augmentation sphere                          
   RDEP   =    1.514    radius for radial grids                                 
   RDEPT  =    1.338    core radius for aug-charge                              
                                                                                
   Atomic configuration                                                         
    4 entries                                                                   
     n  l   j            E        occ.                                          
     1  0  0.50      -384.7179   2.0000                                         
     2  0  0.50       -18.5828   2.0000                                         
     2  1  0.50        -7.0898   3.0000                                         
     3  2  1.50        -6.8029   0.0000                                         
   Description                                                                  
     l       E           TYP  RCUT    TYP  RCUT                                 
     0    -18.5828119     23  1.200                                             
     0    -13.5018863     23  1.200                                             
     1     -7.0897853     23  1.500                                             
     1      9.5240782     23  1.500                                             
     2     -6.8029130      7  1.500                                             
  local pseudopotential read in
  partial core-charges read in
  partial kinetic energy density read in
  atomic valenz-charges read in
  non local Contribution for L=           0  read in
    real space projection operators read in
  non local Contribution for L=           0  read in
    real space projection operators read in
  non local Contribution for L=           1  read in
    real space projection operators read in
  non local Contribution for L=           1  read in
    real space projection operators read in
    PAW grid and wavefunctions read in
 
   number of l-projection  operators is LMAX  =           4
   number of lm-projection operators is LMMAX =           8
 
 POTCAR:    PAW_PBE O 08Apr2002                   
   VRHFIN =O: s2p4                                                              
   LEXCH  = PE                                                                  
   EATOM  =   432.3788 eV,   31.7789 Ry                                         
                                                                                
   TITEL  = PAW_PBE O 08Apr2002                                                 
   LULTRA =        F    use ultrasoft PP ?                                      
   IUNSCR =        1    unscreen: 0-lin 1-nonlin 2-no                           
   RPACOR =    1.200    partial core radius                                     
   POMASS =   16.000; ZVAL   =    6.000    mass and valenz                      
   RCORE  =    1.520    outmost cutoff radius                                   
   RWIGS  =    1.550; RWIGS  =    0.820    wigner-seitz radius (au A)           
   ENMAX  =  400.000; ENMIN  =  300.000 eV                                      
   ICORE  =        2    local potential                                         
   LCOR   =        T    correct aug charges                                     
   LPAW   =        T    paw PP                                                  
   EAUG   =  605.392                                                            
   DEXC   =    0.000                                                            
   RMAX   =    1.553    core radius for proj-oper                               
   RAUG   =    1.300    factor for augmentation sphere                          
   RDEP   =    1.550    radius for radial grids                                 
   RDEPT  =    1.329    core radius for aug-charge                              
                                                                                
   Atomic configuration                                                         
    4 entries                                                                   
     n  l   j            E        occ.                                          
     1  0  0.50      -514.6923   2.0000                                         
     2  0  0.50       -23.9615   2.0000                                         
     2  1  0.50        -9.0305   4.0000                                         
     3  2  1.50        -9.5241   0.0000                                         
   Description                                                                  
     l       E           TYP  RCUT    TYP  RCUT                                 
     0    -23.9615318     23  1.200                                             
     0     -9.5240782     23  1.200                                             
     1     -9.0304911     23  1.520                                             
     1      8.1634956     23  1.520                                             
     2     -9.5240782      7  1.500                                             
  local pseudopotential read in
  partial core-charges read in
  partial kinetic energy density read in
  kinetic energy density of atom read in
  atomic valenz-charges read in
  non local Contribution for L=           0  read in
    real space projection operators read in
  non local Contribution for L=           0  read in
    real space projection operators read in
  non local Contribution for L=           1  read in
    real space projection operators read in
  non local Contribution for L=           1  read in
    real space projection operators read in
    PAW grid and wavefunctions read in
 
   number of l-projection  operators is LMAX  =           4
   number of lm-projection operators is LMMAX =           8
 
 Optimization of the real space projectors (new method)

 maximal supplied QI-value         = 22.11
 optimisation between [QCUT,QGAM] = [ 11.94, 23.88] = [ 39.92,159.67] Ry 
 Optimized for a Real-space Cutoff    1.18 Angstroem

   l    n(q)    QCUT    max X(q) W(low)/X(q) W(high)/X(q)  e(spline) 
   0      8    11.939    53.033    0.11E-03    0.34E-03    0.60E-07
   0      8    11.939    34.740    0.11E-03    0.34E-03    0.59E-07
   1      8    11.939    30.949    0.22E-03    0.20E-03    0.17E-06
   1      8    11.939    19.518    0.20E-03    0.18E-03    0.16E-06
 Optimization of the real space projectors (new method)

 maximal supplied QI-value         = 34.20
 optimisation between [QCUT,QGAM] = [ 11.97, 23.94] = [ 40.13,160.53] Ry 
 Optimized for a Real-space Cutoff    1.18 Angstroem

   l    n(q)    QCUT    max X(q) W(low)/X(q) W(high)/X(q)  e(spline) 
   0      8    11.971    19.460    0.15E-03    0.31E-03    0.25E-06
   0      8    11.971    12.209    0.13E-03    0.29E-03    0.25E-06
   1      8    11.971     4.655    0.22E-03    0.24E-03    0.21E-06
 Optimization of the real space projectors (new method)

 maximal supplied QI-value         = 25.13
 optimisation between [QCUT,QGAM] = [ 11.81, 23.88] = [ 39.08,159.64] Ry 
 Optimized for a Real-space Cutoff    1.41 Angstroem

   l    n(q)    QCUT    max X(q) W(low)/X(q) W(high)/X(q)  e(spline) 
   0     10    11.813    79.467    0.48E-04    0.30E-04    0.67E-06
   0     10    11.813    66.151    0.47E-04    0.30E-04    0.67E-06
   1     10    11.813    20.169    0.11E-03    0.17E-03    0.11E-05
   1     10    11.813    14.454    0.11E-03    0.17E-03    0.11E-05
 Optimization of the real space projectors (new method)

 maximal supplied QI-value         = 24.76
 optimisation between [QCUT,QGAM] = [ 11.88, 24.01] = [ 39.54,161.47] Ry 
 Optimized for a Real-space Cutoff    1.18 Angstroem

   l    n(q)    QCUT    max X(q) W(low)/X(q) W(high)/X(q)  e(spline) 
   0      8    11.883    20.381    0.86E-04    0.11E-03    0.31E-06
   0      8    11.883    15.268    0.94E-04    0.12E-03    0.33E-06
   1      8    11.883     5.964    0.19E-03    0.18E-04    0.33E-06
   1      8    11.883     5.382    0.17E-03    0.20E-04    0.29E-06
  PAW_PBE B 06Sep2000                   :
 energy of atom  1       EATOM=  -71.1703
 kinetic energy error for atom=    0.0009 (will be added to EATOM!!)
  PAW_PBE H 15Jun2001                   :
 energy of atom  2       EATOM=  -12.4884
 kinetic energy error for atom=    0.0008 (will be added to EATOM!!)
  PAW_PBE N 08Apr2002                   :
 energy of atom  3       EATOM= -264.5486
 kinetic energy error for atom=    0.0116 (will be added to EATOM!!)
  PAW_PBE O 08Apr2002                   :
 energy of atom  4       EATOM= -432.3788
 kinetic energy error for atom=    0.0194 (will be added to EATOM!!)
 
 
 POSCAR: B H N O                                 
  positions in direct lattice
  velocities in cartesian coordinates

 METAGGA = SCAN     LMAXTAU =  6    LMIXTAU =  F

 exchange correlation table for  LEXCH =        8
   RHO(1)=    0.500       N(1)  =     2000
   RHO(2)=  100.500       N(2)  =     4000
 


--------------------------------------------------------------------------------------------------------


 ion  position               nearest neighbor table
   1  0.321  0.496  0.389-  45 1.38  27 1.41  37 1.45
   2  0.324  0.499  0.444-  37 1.45  28 1.45  38 1.45
   3  0.324  0.499  0.500-  38 1.45  39 1.45  29 1.45
   4  0.324  0.499  0.556-  40 1.45  30 1.45  39 1.45
   5  0.321  0.496  0.611-  47 1.38  31 1.41  40 1.45
   6  0.821  0.505  0.389-  46 1.38  32 1.41  41 1.45
   7  0.824  0.501  0.444-  41 1.45  33 1.45  42 1.45
   8  0.824  0.500  0.500-  42 1.45  43 1.45  34 1.45
   9  0.824  0.501  0.556-  44 1.45  35 1.45  43 1.45
  10  0.821  0.505  0.611-  48 1.38  36 1.41  44 1.45
  11  0.073  0.502  0.417-  27 1.42  28 1.45  41 1.45
  12  0.074  0.500  0.472-  28 1.44  29 1.44  42 1.45
  13  0.074  0.500  0.528-  30 1.44  29 1.44  43 1.45
  14  0.073  0.502  0.583-  31 1.42  30 1.45  44 1.45
  15  0.573  0.498  0.417-  32 1.42  33 1.45  37 1.45
  16  0.574  0.499  0.472-  33 1.44  34 1.44  38 1.45
  17  0.574  0.499  0.528-  35 1.44  34 1.44  39 1.45
  18  0.573  0.498  0.583-  36 1.42  35 1.45  40 1.45
  19  0.098  0.502  0.371-  27 1.01
  20  0.098  0.502  0.629-  31 1.01
  21  0.598  0.499  0.371-  32 1.01
  22  0.598  0.499  0.629-  36 1.01
  23  0.324  0.491  0.345-  45 0.96
  24  0.824  0.513  0.345-  46 0.96
  25  0.324  0.491  0.655-  47 0.96
  26  0.824  0.513  0.655-  48 0.96
  27  0.159  0.501  0.390-  19 1.01   1 1.41  11 1.42
  28  0.157  0.500  0.445-  12 1.44  11 1.45   2 1.45
  29  0.157  0.500  0.500-  13 1.44  12 1.44   3 1.45
  30  0.157  0.500  0.555-  13 1.44  14 1.45   4 1.45
  31  0.159  0.501  0.610-  20 1.01   5 1.41  14 1.42
  32  0.659  0.500  0.390-  21 1.01   6 1.41  15 1.42
  33  0.657  0.499  0.445-  16 1.44  15 1.45   7 1.45
  34  0.657  0.500  0.500-  16 1.44  17 1.44   8 1.45
  35  0.657  0.499  0.555-  17 1.44  18 1.45   9 1.45
  36  0.659  0.500  0.610-  22 1.01  10 1.41  18 1.42
  37  0.407  0.496  0.417-  15 1.45   2 1.45   1 1.45
  38  0.407  0.499  0.472-   3 1.45   2 1.45  16 1.45
  39  0.407  0.499  0.528-   3 1.45   4 1.45  17 1.45
  40  0.407  0.496  0.583-  18 1.45   4 1.45   5 1.45
  41  0.907  0.504  0.417-  11 1.45   7 1.45   6 1.45
  42  0.907  0.500  0.472-   8 1.45   7 1.45  12 1.45
  43  0.907  0.500  0.528-   8 1.45   9 1.45  13 1.45
  44  0.907  0.504  0.583-  14 1.45   9 1.45  10 1.45
  45  0.393  0.491  0.362-  23 0.96   1 1.38
  46  0.893  0.512  0.362-  24 0.96   6 1.38
  47  0.393  0.491  0.638-  25 0.96   5 1.38
  48  0.893  0.512  0.638-  26 0.96  10 1.38
 
  LATTYP: Found a simple orthorhombic cell.
 ALAT       =     8.7025000000
 B/A-ratio  =     1.7236426314
 C/A-ratio  =     5.1709278943
  
  Lattice vectors:
  
 A1 = (   0.0000000000,  -8.7025000000,   0.0000000000)
 A2 = (  15.0000000000,   0.0000000000,   0.0000000000)
 A3 = (   0.0000000000,   0.0000000000,  45.0000000000)


Analysis of symmetry for initial positions (statically):
=====================================================================
 Subroutine PRICEL returns:
 Original cell was already a primitive cell.
 

 Routine SETGRP: Setting up the symmetry group for a 
 simple orthorhombic supercell.


 Subroutine GETGRP returns: Found  2 space group operations
 (whereof  2 operations were pure point group operations)
 out of a pool of  8 trial point group operations.


The static configuration has the point symmetry C_1h.


Analysis of symmetry for dynamics (positions and initial velocities):
=====================================================================
 Subroutine PRICEL returns:
 Original cell was already a primitive cell.
 

 Routine SETGRP: Setting up the symmetry group for a 
 simple orthorhombic supercell.


 Subroutine GETGRP returns: Found  2 space group operations
 (whereof  2 operations were pure point group operations)
 out of a pool of  8 trial point group operations.


The dynamic configuration has the point symmetry C_1h.


Analysis of constrained symmetry for selective dynamics:
=====================================================================
 Subroutine PRICEL returns:
 Original cell was already a primitive cell.
 

 Routine SETGRP: Setting up the symmetry group for a 
 simple orthorhombic supercell.


 Subroutine GETGRP returns: Found  2 space group operations
 (whereof  2 operations were pure point group operations)
 out of a pool of  8 trial point group operations.


The constrained configuration has the point symmetry C_1h.


Analysis of structural, dynamic, and magnetic symmetry:
=====================================================================
 Subroutine PRICEL returns:
 Original cell was already a primitive cell.
 

 Routine SETGRP: Setting up the symmetry group for a 
 simple orthorhombic supercell.


 Subroutine GETGRP returns: Found  2 space group operations
 (whereof  2 operations were pure point group operations)
 out of a pool of  8 trial point group operations.


The magnetic configuration has the point symmetry C_1h.


 Subroutine INISYM returns: Found  2 space group operations
 (whereof  2 operations are pure point group operations),
 and found     1 'primitive' translations

 
 
 KPOINTS: K-Point Grid                            

Automatic generation of k-mesh.
Space group operators:
 irot       det(A)        alpha          n_x          n_y          n_z        tau_x        tau_y        tau_z
    1     1.000000     0.000001     1.000000     0.000000     0.000000     0.000000     0.000000     0.000000
    2    -1.000000   180.000000     0.000000     0.000000     1.000000     0.000000     0.000000     0.000000
 
 Subroutine IBZKPT returns following result:
 ===========================================
 
 Found      8 irreducible k-points:
 
 Following reciprocal coordinates:
            Coordinates               Weight
  0.125000  0.125000  0.000000      2.000000
  0.375000  0.125000  0.000000      2.000000
 -0.375000  0.125000  0.000000      2.000000
 -0.125000  0.125000  0.000000      2.000000
  0.125000  0.375000  0.000000      2.000000
  0.375000  0.375000  0.000000      2.000000
 -0.375000  0.375000  0.000000      2.000000
 -0.125000  0.375000  0.000000      2.000000
 
 Following cartesian coordinates:
            Coordinates               Weight
  0.008333 -0.014364  0.000000      2.000000
  0.008333 -0.043091  0.000000      2.000000
  0.008333  0.043091  0.000000      2.000000
  0.008333  0.014364  0.000000      2.000000
  0.025000 -0.014364  0.000000      2.000000
  0.025000 -0.043091  0.000000      2.000000
  0.025000  0.043091  0.000000      2.000000
  0.025000  0.014364  0.000000      2.000000
 


--------------------------------------------------------------------------------------------------------




 Dimension of arrays:
   k-points           NKPTS =      8   k-points in BZ     NKDIM =      8   number of bands    NBANDS=    140
   number of dos      NEDOS =   1200   number of ions     NIONS =     48
   non local maximal  LDIM  =      4   non local SUM 2l+1 LMDIM =      8
   total plane-waves  NPLWV = ******
   max r-space proj   IRMAX =   5874   max aug-charges    IRDMAX=   8004
   dimension x,y,z NGX =    70 NGY =  120 NGZ =  350
   dimension x,y,z NGXF=   140 NGYF=  240 NGZF=  700
   support grid    NGXF=   140 NGYF=  240 NGZF=  700
   ions per type =              18   8  18   4
   NGX,Y,Z   is equivalent  to a cutoff of  13.37, 13.30, 12.93 a.u.
   NGXF,Y,Z  is equivalent  to a cutoff of  26.74, 26.60, 25.86 a.u.

 SYSTEM =  SiC                                     
 POSCAR =  B H N O                                 

 Startparameter for this run:
   NWRITE =      2    write-flag & timer
   PREC   = accura    normal or accurate (medium, high low for compatibility)
   ISTART =      1    job   : 0-new  1-cont  2-samecut
   ICHARG =      0    charge: 1-file 2-atom 10-const
   ISPIN  =      2    spin polarized calculation?
   LNONCOLLINEAR =      F non collinear calculations
   LSORBIT =      F    spin-orbit coupling
   INIWAV =      1    electr: 0-lowe 1-rand  2-diag
   LASPH  =      T    aspherical Exc in radial PAW
   METAGGA=      F    non-selfconsistent MetaGGA calc.

 Electronic Relaxation 1
   ENCUT  =  550.0 eV  40.42 Ry    6.36 a.u.  16.64 28.68 86.05*2*pi/ulx,y,z
   ENINI  =  550.0     initial cutoff
   ENAUG  =  627.1 eV  augmentation charge cutoff
   NELM   =    100;   NELMIN=  2; NELMDL=  0     # of ELM steps 
   EDIFF  = 0.1E-04   stopping-criterion for ELM
   LREAL  =      T    real-space projection
   NLSPLINE    = F    spline interpolate recip. space projectors
   LCOMPAT=      F    compatible to vasp.4.4
   GGA_COMPAT  = T    GGA compatible to vasp.4.4-vasp.4.6
   LMAXPAW     = -100 max onsite density
   LMAXMIX     =    2 max onsite mixed and CHGCAR
   VOSKOWN=      0    Vosko Wilk Nusair interpolation
   ROPT   =   -0.00025  -0.00025  -0.00025  -0.00025
 Ionic relaxation
   EDIFFG = -.2E-01   stopping-criterion for IOM
   NSW    =    500    number of steps for IOM
   NBLOCK =      1;   KBLOCK =    500    inner block; outer block 
   IBRION =      2    ionic relax: 0-MD 1-quasi-New 2-CG
   NFREE  =      1    steps in history (QN), initial steepest desc. (CG)
   ISIF   =      2    stress and relaxation
   IWAVPR =     11    prediction:  0-non 1-charg 2-wave 3-comb
   ISYM   =      2    0-nonsym 1-usesym 2-fastsym
   LCORR  =      T    Harris-Foulkes like correction to forces

   POTIM  = 0.5000    time-step for ionic-motion
   TEIN   =    0.0    initial temperature
   TEBEG  =    0.0;   TEEND  =   0.0 temperature during run
   SMASS  =  -3.00    Nose mass-parameter (am)
   estimated Nose-frequenzy (Omega)   =  0.10E-29 period in steps =****** mass=  -0.173E-26a.u.
   SCALEE = 1.0000    scale energy and forces
   NPACO  =    256;   APACO  = 16.0  distance and # of slots for P.C.
   PSTRESS=    0.0 pullay stress

  Mass of Ions in am
   POMASS =  10.81  1.00 14.00 16.00
  Ionic Valenz
   ZVAL   =   3.00  1.00  5.00  6.00
  Atomic Wigner-Seitz radii
   RWIGS  =  -1.00 -1.00 -1.00 -1.00
  virtual crystal weights 
   VCA    =   1.00  1.00  1.00  1.00
   NELECT =     176.0000    total number of electrons
   NUPDOWN=      -1.0000    fix difference up-down

 DOS related values:
   EMIN   =  10.00;   EMAX   =-10.00  energy-range for DOS
   EFERMI =   0.00
   ISMEAR =     0;   SIGMA  =   0.05  broadening in eV -4-tet -1-fermi 0-gaus

 Electronic relaxation 2 (details)
   IALGO  =     68    algorithm
   LDIAG  =      T    sub-space diagonalisation (order eigenvalues)
   LSUBROT=      F    optimize rotation matrix (better conditioning)
   TURBO    =      0    0=normal 1=particle mesh
   IRESTART =      0    0=no restart 2=restart with 2 vectors
   NREBOOT  =      0    no. of reboots
   NMIN     =      0    reboot dimension
   EREF     =   0.00    reference energy to select bands
   IMIX   =      4    mixing-type and parameters
     AMIX     =   0.40;   BMIX     =  1.00
     AMIX_MAG =   1.60;   BMIX_MAG =  1.00
     AMIN     =   0.10
     WC   =   100.;   INIMIX=   1;  MIXPRE=   1;  MAXMIX= -45

 Intra band minimization:
   WEIMIN = 0.0010     energy-eigenvalue tresh-hold
   EBREAK =  0.18E-07  absolut break condition
   DEPER  =   0.30     relativ break condition  

   TIME   =   0.40     timestep for ELM

  volume/ion in A,a.u.               =     122.38       825.85
  Fermi-wavevector in a.u.,A,eV,Ry     =   0.508467  0.960864  3.517638  0.258539
  Thomas-Fermi vector in A             =   1.520497
 
 Write flags
   LWAVE        =      T    write WAVECAR
   LDOWNSAMPLE  =      F    k-point downsampling of WAVECAR
   LCHARG       =      F    write CHGCAR
   LVTOT        =      F    write LOCPOT, total local potential
   LVHAR        =      T    write LOCPOT, Hartree potential only
   LELF         =      F    write electronic localiz. function (ELF)
   LORBIT       =     11    0 simple, 1 ext, 2 COOP (PROOUT), +10 PAW based schemes


 Dipole corrections
   LMONO  =      F    monopole corrections only (constant potential shift)
   LDIPOL =      F    correct potential (dipole corrections)
   IDIPOL =      0    1-x, 2-y, 3-z, 4-all directions 
   EPSILON=  1.0000000 bulk dielectric constant

 Exchange correlation treatment:
   GGA     =    --    GGA type
   LEXCH   =     8    internal setting for exchange type
   VOSKOWN=      0    Vosko Wilk Nusair interpolation
   LHFCALC =     F    Hartree Fock is set to
   LHFONE  =     F    Hartree Fock one center treatment
   AEXX    =    0.0000 exact exchange contribution

 Linear response parameters
   LEPSILON=     F    determine dielectric tensor
   LRPA    =     F    only Hartree local field effects (RPA)
   LNABLA  =     F    use nabla operator in PAW spheres
   LVEL    =     F    velocity operator in full k-point grid
   LINTERFAST=   F  fast interpolation
   KINTER  =     0    interpolate to denser k-point grid
   CSHIFT  =0.1000    complex shift for real part using Kramers Kronig
   OMEGAMAX=  -1.0    maximum frequency
   DEG_THRESHOLD= 0.2000000E-02 threshold for treating states as degnerate
   RTIME   =   -0.100 relaxation time in fs
  (WPLASMAI=    0.000 imaginary part of plasma frequency in eV, 0.658/RTIME)
   DFIELD  = 0.0000000 0.0000000 0.0000000 field for delta impulse in time
 
 Orbital magnetization related:
   ORBITALMAG=     F  switch on orbital magnetization
   LCHIMAG   =     F  perturbation theory with respect to B field
   DQ        =  0.001000  dq finite difference perturbation B field
   LLRAUG    =     F  two centre corrections for induced B field

 Solvation model:
   LSOL    =     T         switch on solvation model
   EB_K    = 78.400000     relative permittivity of the bulk solvent
   SIGMA_K =  0.600000     width of the dielectric cavity
   NC_K    =  0.002500     cutoff charge density
   TAU     =  0.000000     cavity surface tension
   LAMBDA_D_K    =  3.040000     Debye length in Angstroms
   LRHOB     =     F     write boundcharge  density
   LRHOION     =     F     write ioniccharge density



--------------------------------------------------------------------------------------------------------


 conjugate gradient relaxation of ions
   using selective dynamics as specified on POSCAR
 charge density and potential will be updated during run
 spin polarized calculation
 RMM-DIIS sequential band-by-band and
  variant of blocked Davidson during initial phase
 perform sub-space diagonalisation
    before iterative eigenvector-optimisation
 modified Broyden-mixing scheme, WC =      100.0
 initial mixing is a Kerker type mixing with AMIX =  0.4000 and BMIX =      1.0000
 Hartree-type preconditioning will be used
 using additional bands           52
 real space projection scheme for non local part
 use partial core corrections
 calculate Harris-corrections to forces 
   (improved forces if not selfconsistent)
 use gradient corrections 
 use of overlap-Matrix (Vanderbilt PP)
 Gauss-broadening in eV      SIGMA  =   0.05


--------------------------------------------------------------------------------------------------------


  energy-cutoff  :      550.00
  volume of cell :     5874.19
      direct lattice vectors                 reciprocal lattice vectors
     0.000000000 -8.702500000  0.000000000     0.000000000 -0.114909509  0.000000000
    15.000000000  0.000000000  0.000000000     0.066666667  0.000000000  0.000000000
     0.000000000  0.000000000 45.000000000     0.000000000  0.000000000  0.022222222

  length of vectors
     8.702500000 15.000000000 45.000000000     0.114909509  0.066666667  0.022222222


 
 old parameters found on file WAVECAR:
  energy-cutoff  :      550.00
  volume of cell :     5874.19
      direct lattice vectors                 reciprocal lattice vectors
     0.000000000 -8.702500000  0.000000000     0.000000000 -0.114909509  0.000000000
    15.000000000  0.000000000  0.000000000     0.066666667  0.000000000  0.000000000
     0.000000000  0.000000000 45.000000000     0.000000000  0.000000000  0.022222222

  length of vectors

 
 k-points in units of 2pi/SCALE and weight: K-Point Grid                            
   0.00833333 -0.01436369  0.00000000       0.125
   0.00833333 -0.04309107  0.00000000       0.125
   0.00833333  0.04309107  0.00000000       0.125
   0.00833333  0.01436369  0.00000000       0.125
   0.02500000 -0.01436369  0.00000000       0.125
   0.02500000 -0.04309107  0.00000000       0.125
   0.02500000  0.04309107  0.00000000       0.125
   0.02500000  0.01436369  0.00000000       0.125
 
 k-points in reciprocal lattice and weights: K-Point Grid                            
   0.12500000  0.12500000  0.00000000       0.125
   0.37500000  0.12500000  0.00000000       0.125
  -0.37500000  0.12500000  0.00000000       0.125
  -0.12500000  0.12500000  0.00000000       0.125
   0.12500000  0.37500000  0.00000000       0.125
   0.37500000  0.37500000  0.00000000       0.125
  -0.37500000  0.37500000  0.00000000       0.125
  -0.12500000  0.37500000  0.00000000       0.125
 
 position of ions in fractional coordinates (direct lattice) 
   0.32098794  0.49595129  0.38891561
   0.32365870  0.49854476  0.44436208
   0.32381987  0.49943869  0.50000000
   0.32365870  0.49854476  0.55563792
   0.32098794  0.49595129  0.61108439
   0.82096636  0.50512719  0.38894223
   0.82365808  0.50111093  0.44436966
   0.82381833  0.49999157  0.50000000
   0.82365808  0.50111093  0.55563034
   0.82096636  0.50512719  0.61105777
   0.07345025  0.50181611  0.41693600
   0.07378387  0.50026341  0.47230092
   0.07378387  0.50026341  0.52769908
   0.07345025  0.50181611  0.58306400
   0.57347366  0.49807188  0.41692923
   0.57378632  0.49922209  0.47229943
   0.57378632  0.49922209  0.52770057
   0.57347366  0.49807188  0.58307077
   0.09760030  0.50207644  0.37108217
   0.09760030  0.50207644  0.62891783
   0.59766557  0.49886618  0.37107471
   0.59766557  0.49886618  0.62892529
   0.32417119  0.49129494  0.34493834
   0.82418219  0.51277999  0.34501070
   0.32417119  0.49129494  0.65506166
   0.82418219  0.51277999  0.65498930
   0.15909600  0.50050646  0.39015563
   0.15722145  0.50011828  0.44469629
   0.15732030  0.49990864  0.50000000
   0.15722145  0.50011828  0.55530371
   0.15909600  0.50050646  0.60984437
   0.65916504  0.49961744  0.39015395
   0.65721988  0.49946291  0.44469551
   0.65731892  0.49955252  0.50000000
   0.65721988  0.49946291  0.55530449
   0.65916504  0.49961744  0.60984605
   0.40712211  0.49645563  0.41652276
   0.40724633  0.49907428  0.47221323
   0.40724633  0.49907428  0.52778677
   0.40712211  0.49645563  0.58347724
   0.90712175  0.50366985  0.41654105
   0.90724739  0.50038964  0.47221637
   0.90724739  0.50038964  0.52778363
   0.90712175  0.50366985  0.58345895
   0.39337914  0.49101734  0.36168654
   0.89333858  0.51212848  0.36176461
   0.39337914  0.49101734  0.63831346
   0.89333858  0.51212848  0.63823539
 
 position of ions in cartesian coordinates  (Angst):
   7.43926937 -2.79339758 17.50120225
   7.47817140 -2.81663987 19.99629373
   7.49158034 -2.81804245 22.50000000
   7.47817140 -2.81663987 25.00370627
   7.43926937 -2.79339758 27.49879775
   7.57690785 -7.14445978 17.50240057
   7.51666396 -7.16788442 19.99663491
   7.49987351 -7.16927901 22.50000000
   7.51666396 -7.16788442 25.00336509
   7.57690785 -7.14445978 27.49759943
   7.52724171 -0.63920077 18.76212000
   7.50395118 -0.64210415 21.25354143
   7.50395118 -0.64210415 23.74645857
   7.52724171 -0.63920077 26.23788000
   7.47107824 -4.99065451 18.76181552
   7.48833137 -4.99337544 21.25347452
   7.48833137 -4.99337544 23.74652548
   7.47107824 -4.99065451 26.23818448
   7.53114661 -0.84936661 16.69869745
   7.53114661 -0.84936661 28.30130255
   7.48299277 -5.20118462 16.69836200
   7.48299277 -5.20118462 28.30163800
   7.36942415 -2.82109979 15.52222535
   7.69169979 -7.17244549 15.52548138
   7.36942415 -2.82109979 29.47777465
   7.69169979 -7.17244549 29.47451862
   7.50759685 -1.38453290 17.55700345
   7.50177413 -1.36821968 20.01133287
   7.49862953 -1.36907990 22.50000000
   7.50177413 -1.36821968 24.98866713
   7.50759685 -1.38453290 27.44299655
   7.49426155 -5.73638379 17.55692769
   7.49194364 -5.71945602 20.01129773
   7.49328781 -5.72031788 22.50000000
   7.49194364 -5.71945602 24.98870227
   7.49426155 -5.73638379 27.44307231
   7.44683452 -3.54298016 18.74352421
   7.48611422 -3.54406121 21.24959543
   7.48611422 -3.54406121 23.75040457
   7.44683452 -3.54298016 26.25647579
   7.55504774 -7.89422703 18.74434718
   7.50584462 -7.89532041 21.24973649
   7.50584462 -7.89532041 23.75026351
   7.55504774 -7.89422703 26.25565282
   7.36526017 -3.42338195 16.27589445
   7.68192718 -7.77427901 16.27940749
   7.36526017 -3.42338195 28.72410555
   7.68192718 -7.77427901 28.72059251
 


--------------------------------------------------------------------------------------------------------


 k-point  1 :   0.1250 0.1250 0.0000  plane waves:  172058
 k-point  2 :   0.3750 0.1250 0.0000  plane waves:  171988
 k-point  3 :  -0.3750 0.1250 0.0000  plane waves:  171988
 k-point  4 :  -0.1250 0.1250 0.0000  plane waves:  172058
 k-point  5 :   0.1250 0.3750 0.0000  plane waves:  172081
 k-point  6 :   0.3750 0.3750 0.0000  plane waves:  171978
 k-point  7 :  -0.3750 0.3750 0.0000  plane waves:  171978
 k-point  8 :  -0.1250 0.3750 0.0000  plane waves:  172081

 maximum and minimum number of plane-waves per node :     14366    14280

 maximum number of plane-waves:    172081
 maximum index in each direction: 
   IXMAX=   17   IYMAX=   28   IZMAX=   86
   IXMIN=  -17   IYMIN=  -29   IZMIN=  -86


 real space projection operators:
  total allocation   :      11955.17 KBytes
  max/ min on nodes  :       1026.58        885.00


 parallel 3D FFT for wavefunctions:
    minimum data exchange during FFTs selected (reduces bandwidth)
 parallel 3D FFT for charge:
    minimum data exchange during FFTs selected (reduces bandwidth)


 total amount of memory used by VASP MPI-rank0   282289. kBytes
=======================================================================

   base      :      30000. kBytes
   nonlr-proj:       6025. kBytes
   fftplans  :      24463. kBytes
   grid      :      92897. kBytes
   one-center:         24. kBytes
   wavefun   :     128880. kBytes
 
     INWAV:  cpu time   25.9489: real time   27.2378
 Broyden mixing: mesh for mixing (old mesh)
   NGX = 33   NGY = 57   NGZ =173
  (NGX  =140   NGY  =240   NGZ  =700)
  gives a total of 325413 points

 charge density for first step will be calculated from the start-wavefunctions


--------------------------------------------------------------------------------------------------------


 Maximum index for non-local projection operator          594
 Maximum index for augmentation-charges          439 (set IRDMAX)


--------------------------------------------------------------------------------------------------------


 initial charge from wavefunction
 First call to EWALD:  gamma=   0.098
 Maximum number of real-space cells 5x 3x 1
 Maximum number of reciprocal cells 2x 2x 6

    FEWALD:  cpu time    0.1468: real time    0.1476


--------------------------------------- Iteration      1(   1)  ---------------------------------------


    POTLOK:  cpu time   19.0453: real time   19.0111
    SETDIJ:  cpu time    0.6666: real time    0.4712
     EDDAV:  cpu time   60.1265: real time   30.1503
       DOS:  cpu time    0.0445: real time    0.0227
    CHARGE:  cpu time   12.7927: real time   10.3621
    MIXING:  cpu time    0.1357: real time    0.1365
    --------------------------------------------
      LOOP:  cpu time   92.8114: real time   60.1540

 eigenvalue-minimisations  :  3980
 total energy-change (2. order) :-0.4178463E+03  (-0.2178376E-05)
 number of electron     176.0000017 magnetization       0.0000000
 augmentation part        7.0009933 magnetization       0.0000001

 Broyden mixing:
  rms(total) = 0.14306E-03    rms(broyden)= 0.14295E-03
  rms(prec ) = 0.14767E-03
  weight for this iteration     100.00

 Free energy of the ion-electron system (eV)
  ---------------------------------------------------
  alpha Z        PSCENC =        27.34839307
  Ewald energy   TEWEN  =     52893.29664621
  -Hartree energ DENC   =    -59735.27721406
  -exchange      EXHF   =         0.00000000
  -V(xc)+E(xc)   XCENC  =       791.36259556
  PAW double counting   =     20354.39103991   -20431.50397225
  entropy T*S    EENTRO =        -0.00000000
  eigenvalues    EBANDS =     -2389.34446611
  atomic energy  EATOM  =      7872.05236163
  Solvation  Ediel_sol  =       199.82829109
  ---------------------------------------------------
  free energy    TOTEN  =      -417.84632495 eV

  energy without entropy =     -417.84632495  energy(sigma->0) =     -417.84632495


--------------------------------------------------------------------------------------------------------




--------------------------------------- Iteration      1(   2)  ---------------------------------------


    POTLOK:  cpu time   12.8921: real time   12.9235
    SETDIJ:  cpu time    0.6556: real time    0.4602
    EDDIAG:  cpu time   11.1513: real time    7.2934
  RMM-DIIS:  cpu time   64.9275: real time   32.7176
    ORTHCH:  cpu time    0.2676: real time    0.1368
       DOS:  cpu time    0.0109: real time    0.0054
    --------------------------------------------
      LOOP:  cpu time   89.9050: real time   53.5368

 eigenvalue-minimisations  :  3072
 total energy-change (2. order) :-0.4201029E-06  (-0.2682691E-06)
 number of electron     176.0000017 magnetization       0.0000000
 augmentation part        7.0009933 magnetization       0.0000001

 Free energy of the ion-electron system (eV)
  ---------------------------------------------------
  alpha Z        PSCENC =        27.34839307
  Ewald energy   TEWEN  =     52893.29664621
  -Hartree energ DENC   =    -59735.27947589
  -exchange      EXHF   =         0.00000000
  -V(xc)+E(xc)   XCENC  =       791.36299968
  PAW double counting   =     20354.39898263   -20431.51196620
  entropy T*S    EENTRO =        -0.00000000
  eigenvalues    EBANDS =     -2389.33863022
  atomic energy  EATOM  =      7872.05236163
  Solvation  Ediel_sol  =       199.82436372
  ---------------------------------------------------
  free energy    TOTEN  =      -417.84632537 eV

  energy without entropy =     -417.84632537  energy(sigma->0) =     -417.84632537


--------------------------------------------------------------------------------------------------------




 average (electrostatic) potential at core
  the test charge radii are     0.7672  0.5201  0.7089  0.7215
  (the norm of the test charge is              1.0000)
       1 -38.4628       2 -38.2525       3 -38.2700       4 -38.2525       5 -38.4628
       6 -38.4622       7 -38.2514       8 -38.2695       9 -38.2514      10 -38.4622
      11 -38.0831      12 -38.2317      13 -38.2317      14 -38.0831      15 -38.0841
      16 -38.2316      17 -38.2316      18 -38.0841      19 -45.4031      20 -45.4031
      21 -45.3996      22 -45.3996      23 -46.5758      24 -46.5755      25 -46.5758
      26 -46.5755      27 -75.6878      28 -75.7878      29 -75.8410      30 -75.7878
      31 -75.6878      32 -75.6872      33 -75.7879      34 -75.8404      35 -75.7879
      36 -75.6872      37 -75.7846      38 -75.8412      39 -75.8412      40 -75.7846
      41 -75.7827      42 -75.8401      43 -75.8401      44 -75.7827      45 -84.5301
      46 -84.5297      47 -84.5301      48 -84.5297
 
 
 
 E-fermi :  -5.6986     XC(G=0):  -0.8825     alpha+bet : -0.6949


 spin component 1

 k-point     1 :       0.1250    0.1250    0.0000
  band No.  band energies     occupation 
      1     -26.9329      1.00000
      2     -26.9328      1.00000
      3     -26.8652      1.00000
      4     -26.8652      1.00000
      5     -24.3875      1.00000
      6     -23.9075      1.00000
      7     -23.5144      1.00000
      8     -23.2260      1.00000
      9     -23.1369      1.00000
     10     -22.9765      1.00000
     11     -22.6108      1.00000
     12     -22.6082      1.00000
     13     -22.4138      1.00000
     14     -22.0825      1.00000
     15     -21.9975      1.00000
     16     -21.6400      1.00000
     17     -21.5768      1.00000
     18     -21.5256      1.00000
     19     -21.3702      1.00000
     20     -21.2344      1.00000
     21     -20.9903      1.00000
     22     -20.9692      1.00000
     23     -15.0087      1.00000
     24     -14.9336      1.00000
     25     -14.8080      1.00000
     26     -14.6294      1.00000
     27     -14.5499      1.00000
     28     -14.4198      1.00000
     29     -14.3188      1.00000
     30     -14.1934      1.00000
     31     -14.0153      1.00000
     32     -13.6284      1.00000
     33     -13.5425      1.00000
     34     -13.4990      1.00000
     35     -13.1683      1.00000
     36     -12.8985      1.00000
     37     -12.6451      1.00000
     38     -12.4174      1.00000
     39     -12.3299      1.00000
     40     -12.1306      1.00000
     41     -12.0569      1.00000
     42     -11.8015      1.00000
     43     -11.7393      1.00000
     44     -11.4570      1.00000
     45     -11.2409      1.00000
     46     -11.1299      1.00000
     47     -11.0818      1.00000
     48     -10.6865      1.00000
     49     -10.6681      1.00000
     50     -10.5958      1.00000
     51     -10.5078      1.00000
     52     -10.4272      1.00000
     53     -10.4102      1.00000
     54     -10.3794      1.00000
     55     -10.2449      1.00000
     56     -10.1268      1.00000
     57      -9.9954      1.00000
     58      -9.9337      1.00000
     59      -9.9054      1.00000
     60      -9.7428      1.00000
     61      -9.6106      1.00000
     62      -9.5770      1.00000
     63      -9.3373      1.00000
     64      -9.2562      1.00000
     65      -9.1753      1.00000
     66      -9.1283      1.00000
     67      -9.0732      1.00000
     68      -8.9759      1.00000
     69      -8.8807      1.00000
     70      -8.5717      1.00000
     71      -8.4285      1.00000
     72      -8.3997      1.00000
     73      -8.3801      1.00000
     74      -8.2835      1.00000
     75      -8.1200      1.00000
     76      -7.9176      1.00000
     77      -7.6157      1.00000
     78      -7.5676      1.00000
     79      -7.4896      1.00000
     80      -7.4330      1.00000
     81      -7.2440      1.00000
     82      -6.7882      1.00000
     83      -6.7690      1.00000
     84      -6.6467      1.00000
     85      -6.6069      1.00000
     86      -6.3267      1.00000
     87      -5.9573      1.00000
     88      -5.9406      1.00000
     89      -0.6901      0.00000
     90      -0.3905      0.00000
     91      -0.3904      0.00000
     92      -0.3623      0.00000
     93      -0.3001      0.00000
     94      -0.1105      0.00000
     95      -0.0463      0.00000
     96      -0.0005      0.00000
     97       0.0093      0.00000
     98       0.0517      0.00000
     99       0.1517      0.00000
    100       0.1571      0.00000
    101       0.3353      0.00000
    102       0.3586      0.00000
    103       0.3622      0.00000
    104       0.4419      0.00000
    105       0.5637      0.00000
    106       0.5923      0.00000
    107       0.6257      0.00000
    108       0.6943      0.00000
    109       0.7793      0.00000
    110       0.8070      0.00000
    111       0.8533      0.00000
    112       0.8708      0.00000
    113       0.9034      0.00000
    114       0.9257      0.00000
    115       0.9406      0.00000
    116       0.9937      0.00000
    117       1.0189      0.00000
    118       1.0456      0.00000
    119       1.0868      0.00000
    120       1.2879      0.00000
    121       1.3187      0.00000
    122       1.3535      0.00000
    123       1.3766      0.00000
    124       1.4368      0.00000
    125       1.4525      0.00000
    126       1.4825      0.00000
    127       1.5386      0.00000
    128       1.5468      0.00000
    129       1.5721      0.00000
    130       1.5809      0.00000
    131       1.7597      0.00000
    132       1.7659      0.00000
    133       1.7967      0.00000
    134       1.8161      0.00000
    135       1.8374      0.00000
    136       1.8422      0.00000
    137       1.9222      0.00000
    138       2.0125      0.00000
    139       2.0238      0.00000
    140       2.0511      0.00000

 k-point     2 :       0.3750    0.1250    0.0000
  band No.  band energies     occupation 
      1     -26.9133      1.00000
      2     -26.9133      1.00000
      3     -26.8853      1.00000
      4     -26.8853      1.00000
      5     -24.2370      1.00000
      6     -23.9413      1.00000
      7     -23.7719      1.00000
      8     -23.5069      1.00000
      9     -23.1166      1.00000
     10     -22.9097      1.00000
     11     -22.3533      1.00000
     12     -22.3513      1.00000
     13     -22.2825      1.00000
     14     -21.9549      1.00000
     15     -21.8113      1.00000
     16     -21.7609      1.00000
     17     -21.6000      1.00000
     18     -21.5230      1.00000
     19     -21.4512      1.00000
     20     -21.3678      1.00000
     21     -21.1929      1.00000
     22     -21.1478      1.00000
     23     -14.8302      1.00000
     24     -14.7988      1.00000
     25     -14.6515      1.00000
     26     -14.5209      1.00000
     27     -14.3187      1.00000
     28     -14.2526      1.00000
     29     -14.2517      1.00000
     30     -14.1915      1.00000
     31     -14.1315      1.00000
     32     -13.8145      1.00000
     33     -13.4128      1.00000
     34     -13.2752      1.00000
     35     -13.1953      1.00000
     36     -13.1866      1.00000
     37     -12.9979      1.00000
     38     -12.6637      1.00000
     39     -12.5957      1.00000
     40     -12.5213      1.00000
     41     -12.1592      1.00000
     42     -11.8539      1.00000
     43     -11.6978      1.00000
     44     -11.3261      1.00000
     45     -11.2177      1.00000
     46     -11.2160      1.00000
     47     -11.0975      1.00000
     48     -10.8810      1.00000
     49     -10.7571      1.00000
     50     -10.7433      1.00000
     51     -10.4781      1.00000
     52     -10.4235      1.00000
     53     -10.3323      1.00000
     54     -10.2979      1.00000
     55     -10.2521      1.00000
     56     -10.0555      1.00000
     57      -9.9302      1.00000
     58      -9.8740      1.00000
     59      -9.7863      1.00000
     60      -9.6739      1.00000
     61      -9.6402      1.00000
     62      -9.5098      1.00000
     63      -9.3640      1.00000
     64      -9.0745      1.00000
     65      -9.0488      1.00000
     66      -9.0089      1.00000
     67      -8.9300      1.00000
     68      -8.9140      1.00000
     69      -8.5118      1.00000
     70      -8.3964      1.00000
     71      -8.3543      1.00000
     72      -8.3418      1.00000
     73      -8.2577      1.00000
     74      -8.1002      1.00000
     75      -8.0870      1.00000
     76      -8.0262      1.00000
     77      -7.7339      1.00000
     78      -7.7127      1.00000
     79      -7.5414      1.00000
     80      -7.3384      1.00000
     81      -7.3179      1.00000
     82      -6.9909      1.00000
     83      -6.8427      1.00000
     84      -6.6569      1.00000
     85      -6.6106      1.00000
     86      -6.4747      1.00000
     87      -6.3269      1.00000
     88      -6.1519      1.00000
     89      -0.4308      0.00000
     90      -0.1389      0.00000
     91      -0.1155      0.00000
     92      -0.0260      0.00000
     93       0.0025      0.00000
     94       0.0727      0.00000
     95       0.0826      0.00000
     96       0.1335      0.00000
     97       0.2541      0.00000
     98       0.2996      0.00000
     99       0.3571      0.00000
    100       0.3885      0.00000
    101       0.4079      0.00000
    102       0.4103      0.00000
    103       0.5824      0.00000
    104       0.6026      0.00000
    105       0.6037      0.00000
    106       0.6226      0.00000
    107       0.6894      0.00000
    108       0.7452      0.00000
    109       0.7579      0.00000
    110       0.7956      0.00000
    111       0.8094      0.00000
    112       0.8377      0.00000
    113       0.8451      0.00000
    114       0.8768      0.00000
    115       0.9021      0.00000
    116       0.9371      0.00000
    117       1.0272      0.00000
    118       1.0562      0.00000
    119       1.0874      0.00000
    120       1.0951      0.00000
    121       1.0952      0.00000
    122       1.1159      0.00000
    123       1.1680      0.00000
    124       1.1843      0.00000
    125       1.1859      0.00000
    126       1.1962      0.00000
    127       1.2372      0.00000
    128       1.2663      0.00000
    129       1.2968      0.00000
    130       1.3239      0.00000
    131       1.3668      0.00000
    132       1.4224      0.00000
    133       1.5220      0.00000
    134       1.5290      0.00000
    135       1.5620      0.00000
    136       1.5808      0.00000
    137       1.5824      0.00000
    138       1.6067      0.00000
    139       1.6477      0.00000
    140       1.6741      0.00000

 k-point     3 :      -0.3750    0.1250    0.0000
  band No.  band energies     occupation 
      1     -26.9133      1.00000
      2     -26.9133      1.00000
      3     -26.8853      1.00000
      4     -26.8853      1.00000
      5     -24.2370      1.00000
      6     -23.9413      1.00000
      7     -23.7719      1.00000
      8     -23.5069      1.00000
      9     -23.1166      1.00000
     10     -22.9097      1.00000
     11     -22.3533      1.00000
     12     -22.3513      1.00000
     13     -22.2825      1.00000
     14     -21.9549      1.00000
     15     -21.8113      1.00000
     16     -21.7609      1.00000
     17     -21.6000      1.00000
     18     -21.5230      1.00000
     19     -21.4512      1.00000
     20     -21.3678      1.00000
     21     -21.1929      1.00000
     22     -21.1478      1.00000
     23     -14.8302      1.00000
     24     -14.7988      1.00000
     25     -14.6515      1.00000
     26     -14.5209      1.00000
     27     -14.3187      1.00000
     28     -14.2526      1.00000
     29     -14.2517      1.00000
     30     -14.1915      1.00000
     31     -14.1315      1.00000
     32     -13.8145      1.00000
     33     -13.4128      1.00000
     34     -13.2752      1.00000
     35     -13.1953      1.00000
     36     -13.1866      1.00000
     37     -12.9979      1.00000
     38     -12.6637      1.00000
     39     -12.5957      1.00000
     40     -12.5213      1.00000
     41     -12.1592      1.00000
     42     -11.8539      1.00000
     43     -11.6978      1.00000
     44     -11.3261      1.00000
     45     -11.2177      1.00000
     46     -11.2160      1.00000
     47     -11.0975      1.00000
     48     -10.8810      1.00000
     49     -10.7571      1.00000
     50     -10.7433      1.00000
     51     -10.4781      1.00000
     52     -10.4235      1.00000
     53     -10.3323      1.00000
     54     -10.2979      1.00000
     55     -10.2521      1.00000
     56     -10.0555      1.00000
     57      -9.9302      1.00000
     58      -9.8740      1.00000
     59      -9.7863      1.00000
     60      -9.6739      1.00000
     61      -9.6402      1.00000
     62      -9.5098      1.00000
     63      -9.3640      1.00000
     64      -9.0745      1.00000
     65      -9.0488      1.00000
     66      -9.0089      1.00000
     67      -8.9300      1.00000
     68      -8.9140      1.00000
     69      -8.5118      1.00000
     70      -8.3964      1.00000
     71      -8.3543      1.00000
     72      -8.3418      1.00000
     73      -8.2577      1.00000
     74      -8.1002      1.00000
     75      -8.0870      1.00000
     76      -8.0262      1.00000
     77      -7.7339      1.00000
     78      -7.7127      1.00000
     79      -7.5414      1.00000
     80      -7.3384      1.00000
     81      -7.3179      1.00000
     82      -6.9909      1.00000
     83      -6.8427      1.00000
     84      -6.6569      1.00000
     85      -6.6106      1.00000
     86      -6.4747      1.00000
     87      -6.3269      1.00000
     88      -6.1519      1.00000
     89      -0.4308      0.00000
     90      -0.1389      0.00000
     91      -0.1155      0.00000
     92      -0.0260      0.00000
     93       0.0025      0.00000
     94       0.0728      0.00000
     95       0.0825      0.00000
     96       0.1335      0.00000
     97       0.2541      0.00000
     98       0.2996      0.00000
     99       0.3570      0.00000
    100       0.3886      0.00000
    101       0.4077      0.00000
    102       0.4104      0.00000
    103       0.5822      0.00000
    104       0.6026      0.00000
    105       0.6037      0.00000
    106       0.6226      0.00000
    107       0.6895      0.00000
    108       0.7452      0.00000
    109       0.7577      0.00000
    110       0.7956      0.00000
    111       0.8094      0.00000
    112       0.8377      0.00000
    113       0.8449      0.00000
    114       0.8770      0.00000
    115       0.9026      0.00000
    116       0.9372      0.00000
    117       1.0272      0.00000
    118       1.0565      0.00000
    119       1.0871      0.00000
    120       1.0951      0.00000
    121       1.0952      0.00000
    122       1.1157      0.00000
    123       1.1680      0.00000
    124       1.1843      0.00000
    125       1.1859      0.00000
    126       1.1965      0.00000
    127       1.2373      0.00000
    128       1.2664      0.00000
    129       1.2968      0.00000
    130       1.3239      0.00000
    131       1.3666      0.00000
    132       1.4220      0.00000
    133       1.5220      0.00000
    134       1.5290      0.00000
    135       1.5619      0.00000
    136       1.5800      0.00000
    137       1.5829      0.00000
    138       1.6079      0.00000
    139       1.6480      0.00000
    140       1.6741      0.00000

 k-point     4 :      -0.1250    0.1250    0.0000
  band No.  band energies     occupation 
      1     -26.9329      1.00000
      2     -26.9328      1.00000
      3     -26.8652      1.00000
      4     -26.8652      1.00000
      5     -24.3875      1.00000
      6     -23.9075      1.00000
      7     -23.5144      1.00000
      8     -23.2260      1.00000
      9     -23.1369      1.00000
     10     -22.9765      1.00000
     11     -22.6108      1.00000
     12     -22.6082      1.00000
     13     -22.4138      1.00000
     14     -22.0825      1.00000
     15     -21.9975      1.00000
     16     -21.6400      1.00000
     17     -21.5768      1.00000
     18     -21.5256      1.00000
     19     -21.3702      1.00000
     20     -21.2344      1.00000
     21     -20.9903      1.00000
     22     -20.9692      1.00000
     23     -15.0087      1.00000
     24     -14.9336      1.00000
     25     -14.8080      1.00000
     26     -14.6294      1.00000
     27     -14.5499      1.00000
     28     -14.4198      1.00000
     29     -14.3188      1.00000
     30     -14.1934      1.00000
     31     -14.0153      1.00000
     32     -13.6284      1.00000
     33     -13.5425      1.00000
     34     -13.4990      1.00000
     35     -13.1683      1.00000
     36     -12.8985      1.00000
     37     -12.6451      1.00000
     38     -12.4174      1.00000
     39     -12.3299      1.00000
     40     -12.1306      1.00000
     41     -12.0569      1.00000
     42     -11.8015      1.00000
     43     -11.7393      1.00000
     44     -11.4570      1.00000
     45     -11.2409      1.00000
     46     -11.1299      1.00000
     47     -11.0818      1.00000
     48     -10.6865      1.00000
     49     -10.6681      1.00000
     50     -10.5958      1.00000
     51     -10.5078      1.00000
     52     -10.4272      1.00000
     53     -10.4102      1.00000
     54     -10.3794      1.00000
     55     -10.2449      1.00000
     56     -10.1268      1.00000
     57      -9.9954      1.00000
     58      -9.9337      1.00000
     59      -9.9054      1.00000
     60      -9.7428      1.00000
     61      -9.6106      1.00000
     62      -9.5770      1.00000
     63      -9.3373      1.00000
     64      -9.2562      1.00000
     65      -9.1753      1.00000
     66      -9.1283      1.00000
     67      -9.0732      1.00000
     68      -8.9759      1.00000
     69      -8.8807      1.00000
     70      -8.5717      1.00000
     71      -8.4285      1.00000
     72      -8.3997      1.00000
     73      -8.3801      1.00000
     74      -8.2835      1.00000
     75      -8.1200      1.00000
     76      -7.9176      1.00000
     77      -7.6157      1.00000
     78      -7.5676      1.00000
     79      -7.4896      1.00000
     80      -7.4330      1.00000
     81      -7.2440      1.00000
     82      -6.7882      1.00000
     83      -6.7690      1.00000
     84      -6.6467      1.00000
     85      -6.6069      1.00000
     86      -6.3267      1.00000
     87      -5.9573      1.00000
     88      -5.9406      1.00000
     89      -0.6901      0.00000
     90      -0.3905      0.00000
     91      -0.3904      0.00000
     92      -0.3623      0.00000
     93      -0.3001      0.00000
     94      -0.1105      0.00000
     95      -0.0463      0.00000
     96      -0.0005      0.00000
     97       0.0093      0.00000
     98       0.0517      0.00000
     99       0.1516      0.00000
    100       0.1571      0.00000
    101       0.3352      0.00000
    102       0.3586      0.00000
    103       0.3622      0.00000
    104       0.4419      0.00000
    105       0.5637      0.00000
    106       0.5923      0.00000
    107       0.6257      0.00000
    108       0.6943      0.00000
    109       0.7793      0.00000
    110       0.8070      0.00000
    111       0.8533      0.00000
    112       0.8707      0.00000
    113       0.9033      0.00000
    114       0.9259      0.00000
    115       0.9406      0.00000
    116       0.9937      0.00000
    117       1.0189      0.00000
    118       1.0456      0.00000
    119       1.0868      0.00000
    120       1.2879      0.00000
    121       1.3187      0.00000
    122       1.3533      0.00000
    123       1.3766      0.00000
    124       1.4367      0.00000
    125       1.4525      0.00000
    126       1.4825      0.00000
    127       1.5386      0.00000
    128       1.5469      0.00000
    129       1.5725      0.00000
    130       1.5810      0.00000
    131       1.7594      0.00000
    132       1.7668      0.00000
    133       1.7967      0.00000
    134       1.8158      0.00000
    135       1.8375      0.00000
    136       1.8421      0.00000
    137       1.9223      0.00000
    138       2.0125      0.00000
    139       2.0205      0.00000
    140       2.0528      0.00000

 k-point     5 :       0.1250    0.3750    0.0000
  band No.  band energies     occupation 
      1     -26.9329      1.00000
      2     -26.9328      1.00000
      3     -26.8652      1.00000
      4     -26.8652      1.00000
      5     -24.3875      1.00000
      6     -23.9075      1.00000
      7     -23.5144      1.00000
      8     -23.2260      1.00000
      9     -23.1369      1.00000
     10     -22.9765      1.00000
     11     -22.6108      1.00000
     12     -22.6082      1.00000
     13     -22.4138      1.00000
     14     -22.0825      1.00000
     15     -21.9975      1.00000
     16     -21.6400      1.00000
     17     -21.5768      1.00000
     18     -21.5256      1.00000
     19     -21.3703      1.00000
     20     -21.2344      1.00000
     21     -20.9903      1.00000
     22     -20.9692      1.00000
     23     -15.0087      1.00000
     24     -14.9336      1.00000
     25     -14.8080      1.00000
     26     -14.6293      1.00000
     27     -14.5499      1.00000
     28     -14.4198      1.00000
     29     -14.3188      1.00000
     30     -14.1934      1.00000
     31     -14.0153      1.00000
     32     -13.6284      1.00000
     33     -13.5425      1.00000
     34     -13.4990      1.00000
     35     -13.1683      1.00000
     36     -12.8985      1.00000
     37     -12.6451      1.00000
     38     -12.4174      1.00000
     39     -12.3299      1.00000
     40     -12.1306      1.00000
     41     -12.0569      1.00000
     42     -11.8015      1.00000
     43     -11.7393      1.00000
     44     -11.4570      1.00000
     45     -11.2409      1.00000
     46     -11.1299      1.00000
     47     -11.0818      1.00000
     48     -10.6865      1.00000
     49     -10.6681      1.00000
     50     -10.5958      1.00000
     51     -10.5078      1.00000
     52     -10.4272      1.00000
     53     -10.4102      1.00000
     54     -10.3794      1.00000
     55     -10.2449      1.00000
     56     -10.1268      1.00000
     57      -9.9954      1.00000
     58      -9.9337      1.00000
     59      -9.9054      1.00000
     60      -9.7428      1.00000
     61      -9.6106      1.00000
     62      -9.5770      1.00000
     63      -9.3373      1.00000
     64      -9.2562      1.00000
     65      -9.1753      1.00000
     66      -9.1283      1.00000
     67      -9.0732      1.00000
     68      -8.9759      1.00000
     69      -8.8807      1.00000
     70      -8.5717      1.00000
     71      -8.4285      1.00000
     72      -8.3997      1.00000
     73      -8.3801      1.00000
     74      -8.2835      1.00000
     75      -8.1200      1.00000
     76      -7.9175      1.00000
     77      -7.6157      1.00000
     78      -7.5676      1.00000
     79      -7.4896      1.00000
     80      -7.4330      1.00000
     81      -7.2440      1.00000
     82      -6.7882      1.00000
     83      -6.7690      1.00000
     84      -6.6467      1.00000
     85      -6.6069      1.00000
     86      -6.3267      1.00000
     87      -5.9573      1.00000
     88      -5.9406      1.00000
     89      -0.6619      0.00000
     90      -0.3904      0.00000
     91      -0.3624      0.00000
     92      -0.3551      0.00000
     93      -0.3002      0.00000
     94      -0.0583      0.00000
     95      -0.0463      0.00000
     96      -0.0277      0.00000
     97      -0.0007      0.00000
     98       0.0710      0.00000
     99       0.0874      0.00000
    100       0.1571      0.00000
    101       0.1732      0.00000
    102       0.1997      0.00000
    103       0.3358      0.00000
    104       0.3358      0.00000
    105       0.4549      0.00000
    106       0.4912      0.00000
    107       0.7017      0.00000
    108       0.7038      0.00000
    109       0.8351      0.00000
    110       0.9014      0.00000
    111       0.9559      0.00000
    112       0.9626      0.00000
    113       0.9916      0.00000
    114       1.0450      0.00000
    115       1.1134      0.00000
    116       1.1231      0.00000
    117       1.1845      0.00000
    118       1.2098      0.00000
    119       1.2196      0.00000
    120       1.3585      0.00000
    121       1.3605      0.00000
    122       1.3759      0.00000
    123       1.4032      0.00000
    124       1.4257      0.00000
    125       1.5415      0.00000
    126       1.5487      0.00000
    127       1.5617      0.00000
    128       1.6246      0.00000
    129       1.6397      0.00000
    130       1.6466      0.00000
    131       1.6586      0.00000
    132       1.6849      0.00000
    133       1.7073      0.00000
    134       1.7437      0.00000
    135       1.7504      0.00000
    136       1.7857      0.00000
    137       1.8018      0.00000
    138       1.8148      0.00000
    139       1.8687      0.00000
    140       1.8692      0.00000

 k-point     6 :       0.3750    0.3750    0.0000
  band No.  band energies     occupation 
      1     -26.9133      1.00000
      2     -26.9133      1.00000
      3     -26.8853      1.00000
      4     -26.8853      1.00000
      5     -24.2370      1.00000
      6     -23.9413      1.00000
      7     -23.7719      1.00000
      8     -23.5069      1.00000
      9     -23.1166      1.00000
     10     -22.9097      1.00000
     11     -22.3533      1.00000
     12     -22.3513      1.00000
     13     -22.2825      1.00000
     14     -21.9549      1.00000
     15     -21.8113      1.00000
     16     -21.7609      1.00000
     17     -21.6000      1.00000
     18     -21.5230      1.00000
     19     -21.4512      1.00000
     20     -21.3678      1.00000
     21     -21.1929      1.00000
     22     -21.1478      1.00000
     23     -14.8302      1.00000
     24     -14.7988      1.00000
     25     -14.6515      1.00000
     26     -14.5209      1.00000
     27     -14.3187      1.00000
     28     -14.2526      1.00000
     29     -14.2517      1.00000
     30     -14.1915      1.00000
     31     -14.1315      1.00000
     32     -13.8145      1.00000
     33     -13.4128      1.00000
     34     -13.2752      1.00000
     35     -13.1953      1.00000
     36     -13.1866      1.00000
     37     -12.9979      1.00000
     38     -12.6637      1.00000
     39     -12.5957      1.00000
     40     -12.5213      1.00000
     41     -12.1592      1.00000
     42     -11.8539      1.00000
     43     -11.6978      1.00000
     44     -11.3261      1.00000
     45     -11.2177      1.00000
     46     -11.2160      1.00000
     47     -11.0974      1.00000
     48     -10.8810      1.00000
     49     -10.7571      1.00000
     50     -10.7433      1.00000
     51     -10.4781      1.00000
     52     -10.4235      1.00000
     53     -10.3323      1.00000
     54     -10.2979      1.00000
     55     -10.2521      1.00000
     56     -10.0555      1.00000
     57      -9.9302      1.00000
     58      -9.8740      1.00000
     59      -9.7863      1.00000
     60      -9.6739      1.00000
     61      -9.6402      1.00000
     62      -9.5098      1.00000
     63      -9.3640      1.00000
     64      -9.0745      1.00000
     65      -9.0488      1.00000
     66      -9.0089      1.00000
     67      -8.9300      1.00000
     68      -8.9140      1.00000
     69      -8.5118      1.00000
     70      -8.3964      1.00000
     71      -8.3543      1.00000
     72      -8.3418      1.00000
     73      -8.2577      1.00000
     74      -8.1002      1.00000
     75      -8.0870      1.00000
     76      -8.0262      1.00000
     77      -7.7339      1.00000
     78      -7.7127      1.00000
     79      -7.5414      1.00000
     80      -7.3384      1.00000
     81      -7.3179      1.00000
     82      -6.9909      1.00000
     83      -6.8427      1.00000
     84      -6.6569      1.00000
     85      -6.6106      1.00000
     86      -6.4747      1.00000
     87      -6.3269      1.00000
     88      -6.1519      1.00000
     89      -0.4018      0.00000
     90      -0.1156      0.00000
     91      -0.1031      0.00000
     92      -0.0262      0.00000
     93       0.0025      0.00000
     94       0.0825      0.00000
     95       0.1022      0.00000
     96       0.1850      0.00000
     97       0.2144      0.00000
     98       0.3167      0.00000
     99       0.3314      0.00000
    100       0.3913      0.00000
    101       0.4033      0.00000
    102       0.4063      0.00000
    103       0.4295      0.00000
    104       0.4475      0.00000
    105       0.5818      0.00000
    106       0.5820      0.00000
    107       0.6706      0.00000
    108       0.6953      0.00000
    109       0.6955      0.00000
    110       0.7359      0.00000
    111       0.7606      0.00000
    112       0.8097      0.00000
    113       0.8270      0.00000
    114       0.8776      0.00000
    115       0.9075      0.00000
    116       0.9433      0.00000
    117       0.9456      0.00000
    118       0.9511      0.00000
    119       1.0705      0.00000
    120       1.0747      0.00000
    121       1.1785      0.00000
    122       1.1894      0.00000
    123       1.2005      0.00000
    124       1.2017      0.00000
    125       1.2307      0.00000
    126       1.2340      0.00000
    127       1.3604      0.00000
    128       1.4279      0.00000
    129       1.4313      0.00000
    130       1.4392      0.00000
    131       1.4515      0.00000
    132       1.4641      0.00000
    133       1.5793      0.00000
    134       1.6004      0.00000
    135       1.6208      0.00000
    136       1.6400      0.00000
    137       1.6777      0.00000
    138       1.6803      0.00000
    139       1.7165      0.00000
    140       1.8434      0.00000

 k-point     7 :      -0.3750    0.3750    0.0000
  band No.  band energies     occupation 
      1     -26.9133      1.00000
      2     -26.9133      1.00000
      3     -26.8853      1.00000
      4     -26.8853      1.00000
      5     -24.2370      1.00000
      6     -23.9413      1.00000
      7     -23.7719      1.00000
      8     -23.5069      1.00000
      9     -23.1166      1.00000
     10     -22.9097      1.00000
     11     -22.3533      1.00000
     12     -22.3513      1.00000
     13     -22.2825      1.00000
     14     -21.9549      1.00000
     15     -21.8113      1.00000
     16     -21.7609      1.00000
     17     -21.6000      1.00000
     18     -21.5230      1.00000
     19     -21.4512      1.00000
     20     -21.3678      1.00000
     21     -21.1929      1.00000
     22     -21.1478      1.00000
     23     -14.8302      1.00000
     24     -14.7988      1.00000
     25     -14.6515      1.00000
     26     -14.5209      1.00000
     27     -14.3187      1.00000
     28     -14.2526      1.00000
     29     -14.2517      1.00000
     30     -14.1915      1.00000
     31     -14.1315      1.00000
     32     -13.8145      1.00000
     33     -13.4128      1.00000
     34     -13.2752      1.00000
     35     -13.1953      1.00000
     36     -13.1866      1.00000
     37     -12.9979      1.00000
     38     -12.6637      1.00000
     39     -12.5957      1.00000
     40     -12.5213      1.00000
     41     -12.1592      1.00000
     42     -11.8539      1.00000
     43     -11.6978      1.00000
     44     -11.3261      1.00000
     45     -11.2177      1.00000
     46     -11.2160      1.00000
     47     -11.0974      1.00000
     48     -10.8810      1.00000
     49     -10.7571      1.00000
     50     -10.7433      1.00000
     51     -10.4781      1.00000
     52     -10.4235      1.00000
     53     -10.3323      1.00000
     54     -10.2979      1.00000
     55     -10.2521      1.00000
     56     -10.0555      1.00000
     57      -9.9302      1.00000
     58      -9.8740      1.00000
     59      -9.7863      1.00000
     60      -9.6739      1.00000
     61      -9.6402      1.00000
     62      -9.5098      1.00000
     63      -9.3640      1.00000
     64      -9.0745      1.00000
     65      -9.0488      1.00000
     66      -9.0089      1.00000
     67      -8.9300      1.00000
     68      -8.9140      1.00000
     69      -8.5118      1.00000
     70      -8.3964      1.00000
     71      -8.3543      1.00000
     72      -8.3418      1.00000
     73      -8.2577      1.00000
     74      -8.1002      1.00000
     75      -8.0870      1.00000
     76      -8.0262      1.00000
     77      -7.7339      1.00000
     78      -7.7127      1.00000
     79      -7.5414      1.00000
     80      -7.3384      1.00000
     81      -7.3179      1.00000
     82      -6.9909      1.00000
     83      -6.8427      1.00000
     84      -6.6569      1.00000
     85      -6.6106      1.00000
     86      -6.4747      1.00000
     87      -6.3269      1.00000
     88      -6.1519      1.00000
     89      -0.4018      0.00000
     90      -0.1156      0.00000
     91      -0.1030      0.00000
     92      -0.0262      0.00000
     93       0.0025      0.00000
     94       0.0826      0.00000
     95       0.1021      0.00000
     96       0.1850      0.00000
     97       0.2143      0.00000
     98       0.3167      0.00000
     99       0.3317      0.00000
    100       0.3909      0.00000
    101       0.4033      0.00000
    102       0.4051      0.00000
    103       0.4307      0.00000
    104       0.4476      0.00000
    105       0.5817      0.00000
    106       0.5817      0.00000
    107       0.6703      0.00000
    108       0.6956      0.00000
    109       0.6956      0.00000
    110       0.7361      0.00000
    111       0.7604      0.00000
    112       0.8097      0.00000
    113       0.8270      0.00000
    114       0.8778      0.00000
    115       0.9076      0.00000
    116       0.9432      0.00000
    117       0.9456      0.00000
    118       0.9510      0.00000
[...]
 
    CHARGE:  cpu time    1.8827: real time    1.1669
    FORLOC:  cpu time    0.3017: real time    0.1513
    FORNL :  cpu time    2.4899: real time    2.4538
    STRESS:  cpu time  124.3656: real time  114.4846
    FORCOR:  cpu time    1.2083: real time    1.2114
    FORHAR:  cpu time    0.1692: real time    0.1695
    MIXING:  cpu time    0.1202: real time    0.1204
    OFIELD:  cpu time    0.0001: real time    0.0001

  FORCE on cell =-STRESS in cart. coord.  units (eV):
  Direction    XX          YY          ZZ          XY          YZ          ZX
  --------------------------------------------------------------------------------------
  Alpha Z    27.34839    27.34839    27.34839
  Ewald   17033.60563 58471.06083-22611.88491    -2.27680    -0.00000    -0.00000
  Hartree 23136.71172 58695.49605-22097.64467    -1.05041     0.00000    -0.00000
  E(xc)    -736.81708  -731.06402  -733.70072    -0.01092    -0.00000    -0.00000
  Local  -42399.25695************ 42906.79932     3.58034    -0.00000     0.00000
  n-local  -393.29290  -396.91944  -393.87137     0.01213    -0.00000     0.00000
  augment    56.00065    49.65515    45.00074    -0.01837     0.00000    -0.00000
  Kinetic  3268.86740  2929.84627  2862.70397    -0.20583    -0.00000    -0.00000
  Fock        0.00000     0.00000     0.00000     0.00000     0.00000     0.00000
  -------------------------------------------------------------------------------------
  Total      -6.83314     4.21786     4.75075     0.03014     0.00000     0.00000
  in kB      -1.86373     1.15042     1.29576     0.00822     0.00000     0.00000
  external pressure =        0.19 kB  Pullay stress =        0.00 kB


 VOLUME and BASIS-vectors are now :
 -----------------------------------------------------------------------------
  energy-cutoff  :      550.00
  volume of cell :     5874.19
      direct lattice vectors                 reciprocal lattice vectors
     0.000000000 -8.702500000  0.000000000     0.000000000 -0.114909509  0.000000000
    15.000000000  0.000000000  0.000000000     0.066666667  0.000000000  0.000000000
     0.000000000  0.000000000 45.000000000     0.000000000  0.000000000  0.022222222

  length of vectors
     8.702500000 15.000000000 45.000000000     0.114909509  0.066666667  0.022222222


 FORCES acting on ions
    electron-ion (+dipol)            ewald-force                    non-local-force                 convergence-correction
 -----------------------------------------------------------------------------------------------
   0.505E+01 -.463E+01 0.236E+03   -.497E+01 0.581E+01 -.234E+03   -.110E+00 -.125E+01 -.131E+01   -.380E-03 0.177E-03 0.187E-02
   0.235E+01 0.360E+00 0.112E+03   -.233E+01 -.331E+00 -.112E+03   -.228E-01 -.152E-01 0.469E-01   -.823E-04 0.287E-04 -.228E-02
   0.201E+00 -.505E+00 0.176E-06   -.194E+00 0.455E+00 0.108E-12   -.591E-02 0.355E-01 0.000E+00   -.406E-04 0.994E-03 -.327E-13
   0.235E+01 0.360E+00 -.112E+03   -.233E+01 -.331E+00 0.112E+03   -.228E-01 -.152E-01 -.469E-01   -.823E-04 0.287E-04 0.228E-02
   0.505E+01 -.463E+01 -.236E+03   -.497E+01 0.581E+01 0.234E+03   -.110E+00 -.125E+01 0.131E+01   -.380E-03 0.177E-03 -.187E-02
   -.516E+01 -.467E+01 0.236E+03   0.504E+01 0.586E+01 -.234E+03   0.131E+00 -.125E+01 -.131E+01   0.282E-03 0.353E-03 0.182E-02
   -.138E+01 0.304E+00 0.112E+03   0.136E+01 -.278E+00 -.112E+03   0.144E-01 -.138E-01 0.479E-01   0.199E-03 0.181E-03 -.218E-02
   0.608E+00 -.538E+00 0.206E-06   -.611E+00 0.486E+00 0.128E-12   0.155E-03 0.367E-01 0.000E+00   0.931E-04 0.110E-02 0.850E-12
   -.138E+01 0.304E+00 -.112E+03   0.136E+01 -.278E+00 0.112E+03   0.144E-01 -.138E-01 -.479E-01   0.199E-03 0.181E-03 0.218E-02
   -.516E+01 -.467E+01 -.236E+03   0.504E+01 0.586E+01 0.234E+03   0.131E+00 -.125E+01 0.131E+01   0.282E-03 0.353E-03 -.182E-02
   -.385E+01 -.515E+01 0.176E+03   0.389E+01 0.499E+01 -.176E+03   -.631E-04 0.151E+00 0.297E+00   -.136E-02 -.646E-03 -.220E-02
   -.551E+00 -.203E+01 0.539E+02   0.564E+00 0.191E+01 -.538E+02   -.862E-02 0.993E-01 0.479E-01   -.729E-03 -.526E-03 0.364E-03
   -.551E+00 -.203E+01 -.539E+02   0.564E+00 0.191E+01 0.538E+02   -.862E-02 0.993E-01 -.479E-01   -.729E-03 -.526E-03 -.364E-03
   -.385E+01 -.515E+01 -.176E+03   0.389E+01 0.499E+01 0.176E+03   -.631E-04 0.151E+00 -.297E+00   -.136E-02 -.646E-03 0.220E-02
   0.500E+01 -.520E+01 0.176E+03   -.502E+01 0.504E+01 -.176E+03   -.198E-01 0.151E+00 0.296E+00   0.161E-02 -.472E-03 -.210E-02
   0.137E+01 -.206E+01 0.539E+02   -.137E+01 0.194E+01 -.538E+02   0.149E-03 0.983E-01 0.481E-01   0.837E-03 -.381E-03 0.340E-03
   0.137E+01 -.206E+01 -.539E+02   -.137E+01 0.194E+01 0.538E+02   0.149E-03 0.983E-01 -.481E-01   0.837E-03 -.381E-03 -.340E-03
   0.500E+01 -.520E+01 -.176E+03   -.502E+01 0.504E+01 0.176E+03   -.198E-01 0.151E+00 -.296E+00   0.161E-02 -.472E-03 0.210E-02
   -.889E+00 -.185E+02 0.152E+03   0.114E+01 0.229E+02 -.158E+03   -.199E+00 -.414E+01 0.645E+01   -.573E-03 0.156E-03 0.682E-03
   -.889E+00 -.185E+02 -.152E+03   0.114E+01 0.229E+02 0.158E+03   -.199E+00 -.414E+01 -.645E+01   -.573E-03 0.156E-03 -.682E-03
   0.504E+00 -.184E+02 0.152E+03   -.677E+00 0.228E+02 -.158E+03   0.113E+00 -.414E+01 0.645E+01   0.641E-03 0.182E-03 0.649E-03
   0.504E+00 -.184E+02 -.152E+03   -.677E+00 0.228E+02 0.158E+03   0.113E+00 -.414E+01 -.645E+01   0.641E-03 0.182E-03 -.649E-03
   0.305E+01 -.476E+02 0.179E+03   -.307E+01 0.520E+02 -.185E+03   -.170E-01 -.534E+01 0.712E+01   -.245E-04 -.270E-03 0.202E-03
   -.559E+01 -.476E+02 0.179E+03   0.571E+01 0.520E+02 -.185E+03   -.113E+00 -.534E+01 0.712E+01   -.581E-04 -.207E-03 0.127E-03
   0.305E+01 -.476E+02 -.179E+03   -.307E+01 0.520E+02 0.185E+03   -.170E-01 -.534E+01 -.712E+01   -.245E-04 -.270E-03 -.202E-03
   -.559E+01 -.476E+02 -.179E+03   0.571E+01 0.520E+02 0.185E+03   -.113E+00 -.534E+01 -.712E+01   -.581E-04 -.207E-03 -.127E-03
   -.311E+01 -.222E+02 0.453E+03   0.348E+01 0.210E+02 -.448E+03   -.236E+00 0.153E+01 -.273E+01   -.556E-02 0.284E-03 0.101E-01
   -.334E+00 0.510E+00 0.186E+03   0.309E+00 -.726E+00 -.185E+03   0.472E-01 0.208E+00 0.114E+00   -.298E-02 -.179E-03 -.465E-02
   0.152E+00 0.116E+01 -.672E-07   -.184E+00 -.138E+01 0.163E-12   0.408E-01 0.195E+00 0.000E+00   -.234E-02 -.121E-02 0.692E-12
   -.334E+00 0.510E+00 -.186E+03   0.309E+00 -.726E+00 0.185E+03   0.472E-01 0.208E+00 -.114E+00   -.298E-02 -.179E-03 0.465E-02
   -.311E+01 -.222E+02 -.453E+03   0.348E+01 0.210E+02 0.448E+03   -.236E+00 0.153E+01 0.273E+01   -.556E-02 0.284E-03 -.101E-01
   0.677E+01 -.220E+02 0.453E+03   -.754E+01 0.208E+02 -.448E+03   0.583E+00 0.153E+01 -.272E+01   0.685E-02 0.372E-03 0.961E-02
   0.217E+01 0.444E+00 0.186E+03   -.219E+01 -.662E+00 -.185E+03   -.113E-01 0.208E+00 0.116E+00   0.430E-02 0.187E-03 -.438E-02
   0.101E+01 0.111E+01 -.422E-08   -.984E+00 -.132E+01 0.188E-12   -.379E-01 0.192E+00 0.000E+00   0.137E-02 -.794E-03 0.205E-11
   0.217E+01 0.444E+00 -.186E+03   -.219E+01 -.662E+00 0.185E+03   -.113E-01 0.208E+00 -.116E+00   0.430E-02 0.187E-03 0.438E-02
   0.677E+01 -.220E+02 -.453E+03   -.754E+01 0.208E+02 0.448E+03   0.583E+00 0.153E+01 0.272E+01   0.685E-02 0.372E-03 -.961E-02
   0.132E+02 0.579E+01 0.294E+03   -.138E+02 -.613E+01 -.294E+03   0.470E+00 0.246E+00 0.561E-01   0.120E-02 -.159E-03 -.374E-02
   0.168E+01 0.389E+00 0.916E+02   -.168E+01 -.427E+00 -.915E+02   -.818E-02 0.229E-01 0.117E+00   0.909E-03 -.117E-02 0.628E-04
   0.168E+01 0.389E+00 -.916E+02   -.168E+01 -.427E+00 0.915E+02   -.818E-02 0.229E-01 -.117E+00   0.909E-03 -.117E-02 -.628E-04
   0.132E+02 0.579E+01 -.294E+03   -.138E+02 -.613E+01 0.294E+03   0.470E+00 0.246E+00 -.561E-01   0.120E-02 -.159E-03 0.374E-02
   -.121E+02 0.583E+01 0.294E+03   0.126E+02 -.617E+01 -.293E+03   -.432E+00 0.248E+00 0.579E-01   -.251E-02 -.486E-03 -.424E-02
   -.167E+00 0.414E+00 0.915E+02   0.137E+00 -.457E+00 -.915E+02   0.314E-01 0.275E-01 0.114E+00   -.509E-03 -.106E-02 -.203E-05
   -.167E+00 0.414E+00 -.915E+02   0.137E+00 -.457E+00 0.915E+02   0.314E-01 0.275E-01 -.114E+00   -.509E-03 -.106E-02 0.203E-05
   -.121E+02 0.583E+01 -.294E+03   0.126E+02 -.617E+01 0.293E+03   -.432E+00 0.248E+00 -.579E-01   -.251E-02 -.486E-03 0.424E-02
   0.311E+02 0.599E+02 0.702E+03   -.337E+02 -.100E+03 -.699E+03   0.224E+01 0.386E+02 0.850E+00   0.415E-03 0.186E-02 -.352E-02
   -.402E+02 0.599E+02 0.701E+03   0.431E+02 -.101E+03 -.698E+03   -.256E+01 0.386E+02 0.775E+00   -.130E-02 0.220E-02 -.467E-02
   0.311E+02 0.599E+02 -.702E+03   -.337E+02 -.100E+03 0.699E+03   0.224E+01 0.386E+02 -.850E+00   0.415E-03 0.186E-02 0.352E-02
   -.402E+02 0.599E+02 -.701E+03   0.431E+02 -.101E+03 0.698E+03   -.256E+01 0.386E+02 -.775E+00   -.130E-02 0.220E-02 0.467E-02
 -----------------------------------------------------------------------------------------------
   0.228E+00 -.122E+03 -.547E-05   -.711E-14 -.142E-12 -.341E-12   -.202E+00 0.121E+03 -.111E-15   0.144E-02 0.925E-03 0.176E-10
 
 
 POSITION                                       TOTAL-FORCE (eV/Angst)
 -----------------------------------------------------------------------------------
      7.43930     -2.79278     17.50082        -0.001790     -0.011653      0.001618
      7.47821     -2.81725     19.99562        -0.000367      0.007943      0.005253
      7.49163     -2.81792     22.50000        -0.000518     -0.006772      0.000000
      7.47821     -2.81725     25.00438        -0.000367      0.007943     -0.005253
      7.43930     -2.79278     27.49918        -0.001790     -0.011653     -0.001618
      7.57692     -7.14385     17.50196         0.001771     -0.012063      0.001385
      7.51668     -7.16849     19.99599         0.000535      0.007805      0.004107
      7.49988     -7.16910     22.50000         0.000312     -0.007206      0.000000
      7.51668     -7.16849     25.00401         0.000535      0.007805     -0.004107
      7.57692     -7.14385     27.49804         0.001771     -0.012063     -0.001385
      7.52701     -0.63862     18.76227        -0.004531     -0.010456      0.006259
      7.50376     -0.64224     21.25373        -0.002611     -0.004033     -0.007541
      7.50376     -0.64224     23.74627        -0.002611     -0.004033      0.007541
      7.52701     -0.63862     26.23773        -0.004531     -0.010456     -0.006259
      7.47153     -4.99008     18.76197         0.005797     -0.009856      0.005936
      7.48849     -4.99349     21.25367         0.002177     -0.002755     -0.007976
      7.48849     -4.99349     23.74633         0.002177     -0.002755      0.007976
      7.47153     -4.99008     26.23803         0.005797     -0.009856     -0.005936
      7.53033     -0.84959     16.69923        -0.011924      0.000017      0.004917
      7.53033     -0.84959     28.30077        -0.011924      0.000017     -0.004917
      7.48383     -5.20141     16.69891         0.012329      0.000428      0.004761
      7.48383     -5.20141     28.30109         0.012329      0.000428     -0.004761
      7.36944     -2.82071     15.52268         0.000053      0.009578     -0.004433
      7.69138     -7.17194     15.52587        -0.004241      0.009880     -0.004035
      7.36944     -2.82071     29.47732         0.000053      0.009578      0.004433
      7.69138     -7.17194     29.47413        -0.004241      0.009880      0.004035
      7.50716     -1.38446     17.55732        -0.006356      0.005365     -0.009730
      7.50154     -1.36845     20.01112        -0.002603     -0.000910      0.003592
      7.49844     -1.36924     22.50000        -0.002579     -0.000674      0.000000
      7.50154     -1.36845     24.98888        -0.002603     -0.000910     -0.003592
      7.50716     -1.38446     27.44268        -0.006356      0.005365      0.009730
      7.49482     -5.73631     17.55724         0.009133      0.005288     -0.009386
      7.49228     -5.71966     20.01108         0.004610     -0.001506      0.003810
      7.49335     -5.72043     22.50000         0.001057     -0.000811      0.000000
      7.49228     -5.71966     24.98892         0.004610     -0.001506     -0.003810
      7.49482     -5.73631     27.44276         0.009133      0.005288      0.009386
      7.44689     -3.54325     18.74298         0.002445      0.006533     -0.004759
      7.48616     -3.54420     21.24969         0.001409     -0.002411     -0.008505
      7.48616     -3.54420     23.75031         0.001409     -0.002411      0.008505
      7.44689     -3.54325     26.25702         0.002445      0.006533      0.004759
      7.55482     -7.89448     18.74374        -0.002846      0.007012     -0.004206
      7.50581     -7.89547     21.24984        -0.000812     -0.002236     -0.008112
      7.50581     -7.89547     23.75016        -0.000812     -0.002236      0.008112
      7.55482     -7.89448     26.25626        -0.002846      0.007012      0.004206
      7.36531     -3.42352     16.27586         0.001708      0.001913      0.007439
      7.68183     -7.77442     16.27925        -0.003023      0.003847      0.004535
      7.36531     -3.42352     28.72414         0.001708      0.001913     -0.007439
      7.68183     -7.77442     28.72075        -0.003023      0.003847     -0.004535
 -----------------------------------------------------------------------------------
    total drift:                                0.026947     -0.803321     -0.000005


--------------------------------------------------------------------------------------------------------



  FREE ENERGIE OF THE ION-ELECTRON SYSTEM (eV)
  ---------------------------------------------------
  free  energy   TOTEN  =      -417.84652160 eV

  energy  without entropy=     -417.84652160  energy(sigma->0) =     -417.84652160
 
 d Force = 0.9524728E-05[-0.701E-06, 0.198E-04]  d Energy = 0.1780994E-04-0.829E-05
 d Force =-0.6953000E-01[-0.695E-01,-0.696E-01]  d Ewald  =-0.6953000E-01-0.239E-08


--------------------------------------------------------------------------------------------------------


    POTLOK:  cpu time   13.2596: real time   13.0933


--------------------------------------------------------------------------------------------------------




--------------------------------------------------------------------------------------------------------


  
 reached required accuracy - stopping structural energy minimisation
 writing wavefunctions
     LOOP+:  cpu time  406.4035: real time  308.9214
    4ORBIT:  cpu time    0.0000: real time    0.0000
 


 total charge     
 
# of ion       s       p       d       tot
------------------------------------------
    1        0.752   1.438   0.000   2.190
    2        0.745   1.400   0.000   2.145
    3        0.747   1.405   0.000   2.152
    4        0.745   1.400   0.000   2.145
    5        0.752   1.438   0.000   2.190
    6        0.752   1.438   0.000   2.190
    7        0.745   1.400   0.000   2.145
    8        0.747   1.405   0.000   2.153
    9        0.745   1.400   0.000   2.145
   10        0.752   1.438   0.000   2.190
   11        0.755   1.434   0.000   2.189
   12        0.750   1.414   0.000   2.164
   13        0.750   1.414   0.000   2.164
   14        0.755   1.434   0.000   2.189
   15        0.755   1.433   0.000   2.188
   16        0.750   1.414   0.000   2.164
   17        0.750   1.414   0.000   2.164
   18        0.755   1.433   0.000   2.188
   19        0.630   0.100   0.000   0.730
   20        0.630   0.100   0.000   0.730
   21        0.630   0.100   0.000   0.730
   22        0.630   0.100   0.000   0.730
   23        0.607   0.136   0.000   0.743
   24        0.607   0.136   0.000   0.743
   25        0.607   0.136   0.000   0.743
   26        0.607   0.136   0.000   0.743
   27        1.245   2.865   0.000   4.110
   28        1.240   2.833   0.000   4.073
   29        1.240   2.833   0.000   4.073
   30        1.240   2.833   0.000   4.073
   31        1.245   2.865   0.000   4.110
   32        1.245   2.865   0.000   4.110
   33        1.240   2.833   0.000   4.073
   34        1.240   2.833   0.000   4.073
   35        1.240   2.833   0.000   4.073
   36        1.245   2.865   0.000   4.110
   37        1.237   2.830   0.000   4.066
   38        1.239   2.827   0.000   4.066
   39        1.239   2.827   0.000   4.066
   40        1.237   2.830   0.000   4.066
   41        1.237   2.830   0.000   4.067
   42        1.239   2.827   0.000   4.066
   43        1.239   2.827   0.000   4.066
   44        1.237   2.830   0.000   4.067
   45        1.565   3.709   0.000   5.274
   46        1.565   3.709   0.000   5.274
   47        1.565   3.709   0.000   5.274
   48        1.565   3.709   0.000   5.274
--------------------------------------------------
tot         47.035  92.422   0.000 139.457
 


 magnetization (x)
 
# of ion       s       p       d       tot
------------------------------------------
    1        0.000  -0.000   0.000  -0.000
    2       -0.000  -0.000   0.000  -0.000
    3       -0.000   0.000   0.000   0.000
    4       -0.000  -0.000   0.000  -0.000
    5        0.000  -0.000   0.000  -0.000
    6        0.000  -0.000   0.000  -0.000
    7       -0.000  -0.000   0.000  -0.000
    8        0.000  -0.000   0.000  -0.000
    9       -0.000  -0.000   0.000  -0.000
   10        0.000  -0.000   0.000  -0.000
   11        0.000   0.000   0.000   0.000
   12       -0.000   0.000   0.000   0.000
   13       -0.000   0.000   0.000   0.000
   14        0.000   0.000   0.000   0.000
   15        0.000   0.000   0.000   0.000
   16        0.000  -0.000   0.000  -0.000
   17        0.000  -0.000   0.000  -0.000
   18        0.000   0.000   0.000   0.000
   19        0.000  -0.000   0.000   0.000
   20        0.000  -0.000   0.000   0.000
   21        0.000  -0.000   0.000  -0.000
   22        0.000  -0.000   0.000  -0.000
   23       -0.000  -0.000   0.000  -0.000
   24       -0.000   0.000   0.000   0.000
   25       -0.000  -0.000   0.000  -0.000
   26       -0.000   0.000   0.000   0.000
   27        0.000   0.000   0.000   0.000
   28        0.000   0.000   0.000   0.000
   29        0.000  -0.000   0.000  -0.000
   30        0.000   0.000   0.000   0.000
   31        0.000   0.000   0.000   0.000
   32        0.000  -0.000   0.000  -0.000
   33       -0.000   0.000   0.000   0.000
   34       -0.000   0.000   0.000   0.000
   35        0.000   0.000   0.000   0.000
   36        0.000  -0.000   0.000  -0.000
   37        0.000   0.000   0.000   0.000
   38        0.000   0.000   0.000   0.000
   39        0.000   0.000   0.000   0.000
   40        0.000   0.000   0.000   0.000
   41        0.000   0.000   0.000   0.000
   42       -0.000   0.000   0.000   0.000
   43       -0.000   0.000   0.000   0.000
   44        0.000   0.000   0.000   0.000
   45        0.000   0.000   0.000   0.000
   46        0.000   0.000   0.000   0.000
   47        0.000   0.000   0.000   0.000
   48        0.000   0.000   0.000   0.000
--------------------------------------------------
tot          0.000   0.000   0.000   0.000
 

 total amount of memory used by VASP MPI-rank0   282289. kBytes
=======================================================================

   base      :      30000. kBytes
   nonlr-proj:       6025. kBytes
   fftplans  :      24463. kBytes
   grid      :      92897. kBytes
   one-center:         24. kBytes
   wavefun   :     128880. kBytes
 
  
  
 General timing and accounting informations for this job:
 ========================================================
  
                  Total CPU time used (sec):     2586.549
                            User time (sec):     2405.901
                          System time (sec):      180.647
                         Elapsed time (sec):     1828.164
  
                   Maximum memory used (kb):     1366156.
                   Average memory used (kb):           0.
  
                          Minor page faults:       805639
                          Major page faults:            0
                 Voluntary context switches:        18881
