 vasp.5.4.4.18Apr17-6-g9f103f2a35 (build May 01 2020 14:57:12) complex          
  
 executed on             LinuxIFC date 2021.03.17  00:01:13
 running on   48 total cores
 distrk:  each k-point on   12 cores,    4 groups
 distr:  one band on NCORES_PER_BAND=   1 cores,   12 groups


--------------------------------------------------------------------------------------------------------


 INCAR:
 POTCAR:    PAW_PBE B 06Sep2000                   
 POTCAR:    PAW_PBE N 08Apr2002                   
 POTCAR:    PAW_PBE C 08Apr2002                   
 POTCAR:    PAW_PBE F 08Apr2002                   
 POTCAR:    PAW_PBE O 08Apr2002                   

 ----------------------------------------------------------------------------- 
|                                                                             |
|           W    W    AA    RRRRR   N    N  II  N    N   GGGG   !!!           |
|           W    W   A  A   R    R  NN   N  II  NN   N  G    G  !!!           |
|           W    W  A    A  R    R  N N  N  II  N N  N  G       !!!           |
|           W WW W  AAAAAA  RRRRR   N  N N  II  N  N N  G  GGG   !            |
|           WW  WW  A    A  R   R   N   NN  II  N   NN  G    G                |
|           W    W  A    A  R    R  N    N  II  N    N   GGGG   !!!           |
|                                                                             |
|      For optimal performance we recommend to set                            |
|        NCORE= 4 - approx SQRT( number of cores)                             |
|      NCORE specifies how many cores store one orbital (NPAR=cpu/NCORE).     |
|      This setting can  greatly improve the performance of VASP for DFT.     |
|      The default,   NCORE=1            might be grossly inefficient         |
|      on modern multi-core architectures or massively parallel machines.     |
|      Do your own testing !!!!                                               |
|      Unfortunately you need to use the default for GW and RPA calculations. |
|      (for HF NCORE is supported but not extensively tested yet)             |
|                                                                             |
 ----------------------------------------------------------------------------- 


 ----------------------------------------------------------------------------- 
|                                                                             |
|           W    W    AA    RRRRR   N    N  II  N    N   GGGG   !!!           |
|           W    W   A  A   R    R  NN   N  II  NN   N  G    G  !!!           |
|           W    W  A    A  R    R  N N  N  II  N N  N  G       !!!           |
|           W WW W  AAAAAA  RRRRR   N  N N  II  N  N N  G  GGG   !            |
|           WW  WW  A    A  R   R   N   NN  II  N   NN  G    G                |
|           W    W  A    A  R    R  N    N  II  N    N   GGGG   !!!           |
|                                                                             |
|      You have enabled k-point parallelism (KPAR>1).                         |
|      This developmental code was originally  written by Paul Kent at ORNL,  |
|      and carefully double checked in Vienna.                                |
|      GW as well as linear response parallelism added by Martijn Marsman     |
|      and Georg Kresse.                                                      |
|      Carefully verify results versus KPAR=1.                                |
|      Report problems to Paul Kent and Vienna.                               |
|                                                                             |
 ----------------------------------------------------------------------------- 

 POTCAR:    PAW_PBE B 06Sep2000                   
   VRHFIN =B: s2p1                                                              
   LEXCH  = PE                                                                  
   EATOM  =    71.1703 eV,    5.2309 Ry                                         
                                                                                
   TITEL  = PAW_PBE B 06Sep2000                                                 
   LULTRA =        F    use ultrasoft PP ?                                      
   IUNSCR =        1    unscreen: 0-lin 1-nonlin 2-no                           
   RPACOR =    1.200    partial core radius                                     
   POMASS =   10.811; ZVAL   =    3.000    mass and valenz                      
   RCORE  =    1.700    outmost cutoff radius                                   
   RWIGS  =    1.710; RWIGS  =    0.905    wigner-seitz radius (au A)           
   ENMAX  =  318.614; ENMIN  =  238.960 eV                                      
   ICORE  =        2    local potential                                         
   LCOR   =        T    correct aug charges                                     
   LPAW   =        T    paw PP                                                  
   EAUG   =  535.514                                                            
   DEXC   =    0.000                                                            
   RMAX   =    1.732    core radius for proj-oper                               
   RAUG   =    1.300    factor for augmentation sphere                          
   RDEP   =    1.757    radius for radial grids                                 
   RDEPT  =    1.436    core radius for aug-charge                              
                                                                                
   Atomic configuration                                                         
    4 entries                                                                   
     n  l   j            E        occ.                                          
     1  0  0.50      -180.5896   2.0000                                         
     2  0  0.50        -9.4431   2.0000                                         
     2  1  0.50        -3.6068   1.0000                                         
     3  2  1.50        -4.0817   0.0000                                         
   Description                                                                  
     l       E           TYP  RCUT    TYP  RCUT                                 
     0     -9.4430752     23  1.500                                             
     0      0.8675899     23  1.500                                             
     1     -3.6067955     23  1.700                                             
     1      6.1086146     23  1.700                                             
     2     -4.0817478      7  1.700                                             
  local pseudopotential read in
  partial core-charges read in
  partial kinetic energy density read in
  atomic valenz-charges read in
  non local Contribution for L=           0  read in
    real space projection operators read in
  non local Contribution for L=           0  read in
    real space projection operators read in
  non local Contribution for L=           1  read in
    real space projection operators read in
  non local Contribution for L=           1  read in
    real space projection operators read in
    PAW grid and wavefunctions read in
 
   number of l-projection  operators is LMAX  =           4
   number of lm-projection operators is LMMAX =           8
 
 POTCAR:    PAW_PBE N 08Apr2002                   
   VRHFIN =N: s2p3                                                              
   LEXCH  = PE                                                                  
   EATOM  =   264.5486 eV,   19.4438 Ry                                         
                                                                                
   TITEL  = PAW_PBE N 08Apr2002                                                 
   LULTRA =        F    use ultrasoft PP ?                                      
   IUNSCR =        1    unscreen: 0-lin 1-nonlin 2-no                           
   RPACOR =    1.200    partial core radius                                     
   POMASS =   14.001; ZVAL   =    5.000    mass and valenz                      
   RCORE  =    1.500    outmost cutoff radius                                   
   RWIGS  =    1.400; RWIGS  =    0.741    wigner-seitz radius (au A)           
   ENMAX  =  400.000; ENMIN  =  300.000 eV                                      
   ICORE  =        2    local potential                                         
   LCOR   =        T    correct aug charges                                     
   LPAW   =        T    paw PP                                                  
   EAUG   =  627.112                                                            
   DEXC   =    0.000                                                            
   RMAX   =    1.529    core radius for proj-oper                               
   RAUG   =    1.300    factor for augmentation sphere                          
   RDEP   =    1.514    radius for radial grids                                 
   RDEPT  =    1.338    core radius for aug-charge                              
                                                                                
   Atomic configuration                                                         
    4 entries                                                                   
     n  l   j            E        occ.                                          
     1  0  0.50      -384.7179   2.0000                                         
     2  0  0.50       -18.5828   2.0000                                         
     2  1  0.50        -7.0898   3.0000                                         
     3  2  1.50        -6.8029   0.0000                                         
   Description                                                                  
     l       E           TYP  RCUT    TYP  RCUT                                 
     0    -18.5828119     23  1.200                                             
     0    -13.5018863     23  1.200                                             
     1     -7.0897853     23  1.500                                             
     1      9.5240782     23  1.500                                             
     2     -6.8029130      7  1.500                                             
  local pseudopotential read in
  partial core-charges read in
  partial kinetic energy density read in
  atomic valenz-charges read in
  non local Contribution for L=           0  read in
    real space projection operators read in
  non local Contribution for L=           0  read in
    real space projection operators read in
  non local Contribution for L=           1  read in
    real space projection operators read in
  non local Contribution for L=           1  read in
    real space projection operators read in
    PAW grid and wavefunctions read in
 
   number of l-projection  operators is LMAX  =           4
   number of lm-projection operators is LMMAX =           8
 
 POTCAR:    PAW_PBE C 08Apr2002                   
   VRHFIN =C: s2p2                                                              
   LEXCH  = PE                                                                  
   EATOM  =   147.1560 eV,   10.8157 Ry                                         
                                                                                
   TITEL  = PAW_PBE C 08Apr2002                                                 
   LULTRA =        F    use ultrasoft PP ?                                      
   IUNSCR =        1    unscreen: 0-lin 1-nonlin 2-no                           
   RPACOR =    1.200    partial core radius                                     
   POMASS =   12.011; ZVAL   =    4.000    mass and valenz                      
   RCORE  =    1.500    outmost cutoff radius                                   
   RWIGS  =    1.630; RWIGS  =    0.863    wigner-seitz radius (au A)           
   ENMAX  =  400.000; ENMIN  =  300.000 eV                                      
   ICORE  =        2    local potential                                         
   LCOR   =        T    correct aug charges                                     
   LPAW   =        T    paw PP                                                  
   EAUG   =  644.873                                                            
   DEXC   =    0.000                                                            
   RMAX   =    1.529    core radius for proj-oper                               
   RAUG   =    1.300    factor for augmentation sphere                          
   RDEP   =    1.501    radius for radial grids                                 
   RDEPT  =    1.300    core radius for aug-charge                              
                                                                                
   Atomic configuration                                                         
    4 entries                                                                   
     n  l   j            E        occ.                                          
     1  0  0.50      -273.3789   2.0000                                         
     2  0  0.50       -13.7508   2.0000                                         
     2  1  0.50        -5.2854   2.0000                                         
     3  2  1.50        -5.4423   0.0000                                         
   Description                                                                  
     l       E           TYP  RCUT    TYP  RCUT                                 
     0    -13.7508458     23  1.200                                             
     0     -8.2022199     23  1.200                                             
     1     -5.2854383     23  1.500                                             
     1     34.0145650     23  1.500                                             
     2     -5.4423304      7  1.500                                             
  local pseudopotential read in
  partial core-charges read in
  partial kinetic energy density read in
  atomic valenz-charges read in
  non local Contribution for L=           0  read in
    real space projection operators read in
  non local Contribution for L=           0  read in
    real space projection operators read in
  non local Contribution for L=           1  read in
    real space projection operators read in
  non local Contribution for L=           1  read in
    real space projection operators read in
    PAW grid and wavefunctions read in
 
   number of l-projection  operators is LMAX  =           4
   number of lm-projection operators is LMMAX =           8
 
 POTCAR:    PAW_PBE F 08Apr2002                   
   VRHFIN =F: s2p5                                                              
   LEXCH  = PE                                                                  
   EATOM  =   659.6475 eV,   48.4827 Ry                                         
                                                                                
   TITEL  = PAW_PBE F 08Apr2002                                                 
   LULTRA =        F    use ultrasoft PP ?                                      
   IUNSCR =        1    unscreen: 0-lin 1-nonlin 2-no                           
   RPACOR =    1.200    partial core radius                                     
   POMASS =   18.998; ZVAL   =    7.000    mass and valenz                      
   RCORE  =    1.520    outmost cutoff radius                                   
   RWIGS  =    1.500; RWIGS  =    0.794    wigner-seitz radius (au A)           
   ENMAX  =  400.000; ENMIN  =  300.000 eV                                      
   ICORE  =        2    local potential                                         
   LCOR   =        T    correct aug charges                                     
   LPAW   =        T    paw PP                                                  
   EAUG   =  613.614                                                            
   RMAX   =    1.555    core radius for proj-oper                               
   RAUG   =    1.300    factor for augmentation sphere                          
   RDEP   =    1.539    radius for radial grids                                 
   RDEPT  =    1.299    core radius for aug-charge                              
                                                                                
   Atomic configuration                                                         
    4 entries                                                                   
     n  l   j            E        occ.                                          
     1  0  0.50      -663.3661   2.0000                                         
     2  0  0.50       -29.8995   2.0000                                         
     2  1  0.50       -11.1114   5.0000                                         
     3  2  1.50       -10.8847   0.0000                                         
   Description                                                                  
     l       E           TYP  RCUT    TYP  RCUT                                 
     0    -29.8995018     23  1.200                                             
     0     -9.5240782     23  1.200                                             
     1    -11.1113914     23  1.520                                             
     1      1.3605826     23  1.520                                             
     2    -10.8846608      7  1.500                                             
  local pseudopotential read in
  partial core-charges read in
  partial kinetic energy density read in
  atomic valenz-charges read in
  non local Contribution for L=           0  read in
    real space projection operators read in
  non local Contribution for L=           0  read in
    real space projection operators read in
  non local Contribution for L=           1  read in
    real space projection operators read in
  non local Contribution for L=           1  read in
    real space projection operators read in
    PAW grid and wavefunctions read in
 
   number of l-projection  operators is LMAX  =           4
   number of lm-projection operators is LMMAX =           8
 
 POTCAR:    PAW_PBE O 08Apr2002                   
   VRHFIN =O: s2p4                                                              
   LEXCH  = PE                                                                  
   EATOM  =   432.3788 eV,   31.7789 Ry                                         
                                                                                
   TITEL  = PAW_PBE O 08Apr2002                                                 
   LULTRA =        F    use ultrasoft PP ?                                      
   IUNSCR =        1    unscreen: 0-lin 1-nonlin 2-no                           
   RPACOR =    1.200    partial core radius                                     
   POMASS =   16.000; ZVAL   =    6.000    mass and valenz                      
   RCORE  =    1.520    outmost cutoff radius                                   
   RWIGS  =    1.550; RWIGS  =    0.820    wigner-seitz radius (au A)           
   ENMAX  =  400.000; ENMIN  =  300.000 eV                                      
   ICORE  =        2    local potential                                         
   LCOR   =        T    correct aug charges                                     
   LPAW   =        T    paw PP                                                  
   EAUG   =  605.392                                                            
   DEXC   =    0.000                                                            
   RMAX   =    1.553    core radius for proj-oper                               
   RAUG   =    1.300    factor for augmentation sphere                          
   RDEP   =    1.550    radius for radial grids                                 
   RDEPT  =    1.329    core radius for aug-charge                              
                                                                                
   Atomic configuration                                                         
    4 entries                                                                   
     n  l   j            E        occ.                                          
     1  0  0.50      -514.6923   2.0000                                         
     2  0  0.50       -23.9615   2.0000                                         
     2  1  0.50        -9.0305   4.0000                                         
     3  2  1.50        -9.5241   0.0000                                         
   Description                                                                  
     l       E           TYP  RCUT    TYP  RCUT                                 
     0    -23.9615318     23  1.200                                             
     0     -9.5240782     23  1.200                                             
     1     -9.0304911     23  1.520                                             
     1      8.1634956     23  1.520                                             
     2     -9.5240782      7  1.500                                             
  local pseudopotential read in
  partial core-charges read in
  partial kinetic energy density read in
  kinetic energy density of atom read in
  atomic valenz-charges read in
  non local Contribution for L=           0  read in
    real space projection operators read in
  non local Contribution for L=           0  read in
    real space projection operators read in
  non local Contribution for L=           1  read in
    real space projection operators read in
  non local Contribution for L=           1  read in
    real space projection operators read in
    PAW grid and wavefunctions read in
 
   number of l-projection  operators is LMAX  =           4
   number of lm-projection operators is LMMAX =           8
 
 Optimization of the real space projectors (new method)

 maximal supplied QI-value         = 22.11
 optimisation between [QCUT,QGAM] = [ 11.94, 23.88] = [ 39.92,159.67] Ry 
 Optimized for a Real-space Cutoff    1.18 Angstroem

   l    n(q)    QCUT    max X(q) W(low)/X(q) W(high)/X(q)  e(spline) 
   0      8    11.939    53.033    0.11E-03    0.34E-03    0.60E-07
   0      8    11.939    34.740    0.11E-03    0.34E-03    0.59E-07
   1      8    11.939    30.949    0.22E-03    0.20E-03    0.17E-06
   1      8    11.939    19.518    0.20E-03    0.18E-03    0.16E-06
 Optimization of the real space projectors (new method)

 maximal supplied QI-value         = 25.13
 optimisation between [QCUT,QGAM] = [ 11.81, 23.88] = [ 39.08,159.64] Ry 
 Optimized for a Real-space Cutoff    1.41 Angstroem

   l    n(q)    QCUT    max X(q) W(low)/X(q) W(high)/X(q)  e(spline) 
   0     10    11.813    79.467    0.48E-04    0.30E-04    0.67E-06
   0     10    11.813    66.151    0.47E-04    0.30E-04    0.67E-06
   1     10    11.813    20.169    0.11E-03    0.17E-03    0.11E-05
   1     10    11.813    14.454    0.11E-03    0.17E-03    0.11E-05
 Optimization of the real space projectors (new method)

 maximal supplied QI-value         = 25.13
 optimisation between [QCUT,QGAM] = [ 11.81, 23.88] = [ 39.08,159.64] Ry 
 Optimized for a Real-space Cutoff    1.18 Angstroem

   l    n(q)    QCUT    max X(q) W(low)/X(q) W(high)/X(q)  e(spline) 
   0      8    11.813   115.676    0.10E-03    0.16E-03    0.35E-06
   0      8    11.813    87.132    0.10E-03    0.16E-03    0.35E-06
   1      8    11.813     4.429    0.16E-03    0.13E-04    0.22E-06
   1      8    11.813     2.733    0.13E-03    0.10E-04    0.18E-06
 Optimization of the real space projectors (new method)

 maximal supplied QI-value         = 24.76
 optimisation between [QCUT,QGAM] = [ 11.88, 24.01] = [ 39.54,161.47] Ry 
 Optimized for a Real-space Cutoff    1.18 Angstroem

   l    n(q)    QCUT    max X(q) W(low)/X(q) W(high)/X(q)  e(spline) 
   0      8    11.883    14.049    0.56E-04    0.86E-04    0.22E-06
   0      8    11.883     8.945    0.81E-04    0.11E-03    0.30E-06
   1      8    11.883     7.086    0.16E-03    0.15E-04    0.31E-06
   1      8    11.883     6.747    0.15E-03    0.14E-04    0.28E-06
 Optimization of the real space projectors (new method)

 maximal supplied QI-value         = 24.76
 optimisation between [QCUT,QGAM] = [ 11.88, 24.01] = [ 39.54,161.47] Ry 
 Optimized for a Real-space Cutoff    1.18 Angstroem

   l    n(q)    QCUT    max X(q) W(low)/X(q) W(high)/X(q)  e(spline) 
   0      8    11.883    20.381    0.86E-04    0.11E-03    0.31E-06
   0      8    11.883    15.268    0.94E-04    0.12E-03    0.33E-06
   1      8    11.883     5.964    0.19E-03    0.18E-04    0.33E-06
   1      8    11.883     5.382    0.17E-03    0.20E-04    0.29E-06
  PAW_PBE B 06Sep2000                   :
 energy of atom  1       EATOM=  -71.1703
 kinetic energy error for atom=    0.0009 (will be added to EATOM!!)
  PAW_PBE N 08Apr2002                   :
 energy of atom  2       EATOM= -264.5486
 kinetic energy error for atom=    0.0116 (will be added to EATOM!!)
  PAW_PBE C 08Apr2002                   :
 energy of atom  3       EATOM= -147.1560
 kinetic energy error for atom=    0.0066 (will be added to EATOM!!)
  PAW_PBE F 08Apr2002                   :
 energy of atom  4       EATOM= -659.6475
 kinetic energy error for atom=    0.0296 (will be added to EATOM!!)
  PAW_PBE O 08Apr2002                   :
 energy of atom  5       EATOM= -432.3788
 kinetic energy error for atom=    0.0194 (will be added to EATOM!!)
 
 
 POSCAR: B N C F O                               
  positions in direct lattice
  velocities in cartesian coordinates

 METAGGA = SCAN     LMAXTAU =  6    LMIXTAU =  F

 exchange correlation table for  LEXCH =        8
   RHO(1)=    0.500       N(1)  =     2000
   RHO(2)=  100.500       N(2)  =     4000
 


--------------------------------------------------------------------------------------------------------


 ion  position               nearest neighbor table
   1  0.111  0.056  0.500-  37 1.45  42 1.45  43 1.45
   2  0.111  0.222  0.500-  38 1.45  44 1.45  37 1.45
   3  0.111  0.389  0.500-  45 1.45  38 1.45  39 1.45
   4  0.111  0.556  0.500-  46 1.45  39 1.45  40 1.45
   5  0.111  0.722  0.500-  40 1.45  47 1.45  41 1.45
   6  0.111  0.889  0.500-  42 1.45  41 1.45  48 1.45
   7  0.278  0.056  0.500-  48 1.45  49 1.45  43 1.45
   8  0.278  0.222  0.500-  44 1.45  50 1.45  43 1.45
   9  0.278  0.389  0.500-  51 1.45  45 1.45  44 1.45
  10  0.278  0.556  0.500-  45 1.45  52 1.45  46 1.45
  11  0.278  0.722  0.500-  46 1.45  53 1.45  47 1.45
  12  0.278  0.889  0.500-  47 1.45  54 1.45  48 1.45
  13  0.444  0.056  0.500-  54 1.45  55 1.45  49 1.45
  14  0.444  0.222  0.500-  56 1.45  49 1.45  50 1.45
  15  0.444  0.389  0.500-  51 1.45  57 1.45  50 1.45
  16  0.444  0.556  0.500-  51 1.45  52 1.45  58 1.45
  17  0.444  0.722  0.500-  52 1.45  59 1.45  53 1.45
  18  0.444  0.889  0.500-  53 1.45  60 1.45  54 1.45
  19  0.611  0.056  0.500-  60 1.45  61 1.45  55 1.45
  20  0.611  0.222  0.500-  62 1.45  55 1.45  56 1.45
  21  0.611  0.389  0.500-  57 1.45  63 1.45  56 1.45
  22  0.611  0.556  0.500-  58 1.45  57 1.45  64 1.45
  23  0.611  0.722  0.500-  58 1.45  59 1.45  65 1.45
  24  0.611  0.889  0.500-  59 1.45  66 1.45  60 1.45
  25  0.778  0.056  0.500-  67 1.45  66 1.45  61 1.45
  26  0.778  0.222  0.500-  68 1.45  62 1.45  61 1.45
  27  0.778  0.389  0.500-  63 1.45  69 1.45  62 1.45
  28  0.778  0.556  0.500-  64 1.45  63 1.45  70 1.45
  29  0.778  0.722  0.500-  64 1.45  65 1.45  71 1.45
  30  0.778  0.889  0.500-  65 1.45  66 1.45  72 1.45
  31  0.944  0.056  0.500-  67 1.45  37 1.45  72 1.45
  32  0.944  0.222  0.500-  38 1.45  67 1.45  68 1.45
  33  0.944  0.389  0.500-  39 1.45  68 1.45  69 1.45
  34  0.944  0.556  0.500-  69 1.45  40 1.45  70 1.45
  35  0.944  0.722  0.500-  70 1.45  71 1.45  41 1.45
  36  0.944  0.889  0.500-  72 1.45  71 1.45  42 1.45
  37  0.056  0.111  0.500-   1 1.45  31 1.45   2 1.45
  38  0.056  0.278  0.500-  32 1.45   2 1.45   3 1.45
  39  0.056  0.444  0.500-  33 1.45   4 1.45   3 1.45
  40  0.056  0.611  0.500-   5 1.45  34 1.45   4 1.45
  41  0.056  0.778  0.500-   6 1.45  35 1.45   5 1.45
  42  0.056  0.944  0.500-   6 1.45   1 1.45  36 1.45
  43  0.222  0.111  0.500-   7 1.45   8 1.45   1 1.45
  44  0.222  0.278  0.500-   8 1.45   2 1.45   9 1.45
  45  0.222  0.444  0.500-   3 1.45  10 1.45   9 1.45
  46  0.222  0.611  0.500-  11 1.45   4 1.45  10 1.45
  47  0.222  0.778  0.500-  12 1.45   5 1.45  11 1.45
  48  0.222  0.944  0.500-   7 1.45   6 1.45  12 1.45
  49  0.389  0.111  0.500-   7 1.45  14 1.45  13 1.45
  50  0.389  0.278  0.500-   8 1.45  14 1.45  15 1.45
  51  0.389  0.444  0.500-  15 1.45   9 1.45  16 1.45
  52  0.389  0.611  0.500-  17 1.45  10 1.45  16 1.45
  53  0.389  0.778  0.500-  18 1.45  11 1.45  17 1.45
  54  0.389  0.944  0.500-  13 1.45  12 1.45  18 1.45
  55  0.556  0.111  0.500-  13 1.45  20 1.45  19 1.45
  56  0.556  0.278  0.500-  14 1.45  20 1.45  21 1.45
  57  0.556  0.444  0.500-  21 1.45  15 1.45  22 1.45
  58  0.556  0.611  0.500-  22 1.45  23 1.45  16 1.45
  59  0.556  0.778  0.500-  24 1.45  23 1.45  17 1.45
  60  0.556  0.944  0.500-  19 1.45  18 1.45  24 1.45
  61  0.722  0.111  0.500-  19 1.45  26 1.45  25 1.45
  62  0.722  0.278  0.500-  20 1.45  26 1.45  27 1.45
  63  0.722  0.444  0.500-  27 1.45  28 1.45  21 1.45
  64  0.722  0.611  0.500-  29 1.45  28 1.45  22 1.45
  65  0.722  0.778  0.500-  30 1.45  29 1.45  23 1.45
  66  0.722  0.944  0.500-  25 1.45  30 1.45  24 1.45
  67  0.889  0.111  0.500-  25 1.45  31 1.45  32 1.45
  68  0.889  0.278  0.500-  26 1.45  33 1.45  32 1.45
  69  0.889  0.444  0.500-  34 1.45  27 1.45  33 1.45
  70  0.889  0.611  0.500-  35 1.45  34 1.45  28 1.45
  71  0.889  0.778  0.500-  36 1.45  35 1.45  29 1.45
  72  0.889  0.944  0.500-  36 1.45  31 1.45  30 1.45
  73  0.372  0.314  0.673-  76 1.34  78 1.34  77 1.35  74 1.54
  74  0.354  0.317  0.630-  80 1.37  79 1.37  73 1.54  75 1.55
  75  0.342  0.410  0.618-  82 1.25  81 1.25  74 1.55
  76  0.461  0.396  0.684-  73 1.34
  77  0.377  0.229  0.682-  73 1.35
  78  0.296  0.312  0.693-  73 1.34
  79  0.434  0.317  0.612-  74 1.37
  80  0.268  0.226  0.622-  74 1.37
  81  0.425  0.491  0.613-  75 1.25
  82  0.253  0.394  0.615-  75 1.25
 

IMPORTANT INFORMATION: All symmetrisations will be switched off!
NOSYMM: (Re-)initialisation of all symmetry stuff for point group C_1.

 
 
 KPOINTS: K-Point Grid                            

Automatic generation of k-mesh.
Space group operators:
 irot       det(A)        alpha          n_x          n_y          n_z        tau_x        tau_y        tau_z
    1     1.000000     0.000000     1.000000     0.000000     0.000000     0.000000     0.000000     0.000000
 
 Subroutine IBZKPT returns following result:
 ===========================================
 
 Found      5 irreducible k-points:
 
 Following reciprocal coordinates:
            Coordinates               Weight
  0.000000  0.000000  0.000000      1.000000
  0.333333  0.000000  0.000000      2.000000
  0.000000  0.333333  0.000000      2.000000
  0.333333  0.333333  0.000000      2.000000
 -0.333333  0.333333  0.000000      2.000000
 
 Following cartesian coordinates:
            Coordinates               Weight
  0.000000  0.000000  0.000000      1.000000
  0.022114 -0.012768  0.000000      2.000000
  0.022114  0.012768  0.000000      2.000000
  0.044229  0.000000  0.000000      2.000000
  0.000000  0.025535  0.000000      2.000000
 


--------------------------------------------------------------------------------------------------------




 Dimension of arrays:
   k-points           NKPTS =      5   k-points in BZ     NKDIM =      5   number of bands    NBANDS=    264
   number of dos      NEDOS =   1200   number of ions     NIONS =     82
   non local maximal  LDIM  =      4   non local SUM 2l+1 LMDIM =      8
   total plane-waves  NPLWV = ******
   max r-space proj   IRMAX =   6598   max aug-charges    IRDMAX=   8974
   dimension x,y,z NGX =   120 NGY =  120 NGZ =  270
   dimension x,y,z NGXF=   240 NGYF=  240 NGZF=  540
   support grid    NGXF=   240 NGYF=  240 NGZF=  540
   ions per type =              36  36   3   5   2
   NGX,Y,Z   is equivalent  to a cutoff of  13.24, 13.24, 12.78 a.u.
   NGXF,Y,Z  is equivalent  to a cutoff of  26.47, 26.47, 25.57 a.u.

 SYSTEM =  SiC                                     
 POSCAR =  B N C F O                               

 Startparameter for this run:
   NWRITE =      2    write-flag & timer
   PREC   = accura    normal or accurate (medium, high low for compatibility)
   ISTART =      0    job   : 0-new  1-cont  2-samecut
   ICHARG =      2    charge: 1-file 2-atom 10-const
   ISPIN  =      2    spin polarized calculation?
   LNONCOLLINEAR =      F non collinear calculations
   LSORBIT =      F    spin-orbit coupling
   INIWAV =      1    electr: 0-lowe 1-rand  2-diag
   LASPH  =      T    aspherical Exc in radial PAW
   METAGGA=      F    non-selfconsistent MetaGGA calc.

 Electronic Relaxation 1
   ENCUT  =  550.0 eV  40.42 Ry    6.36 a.u.  28.82 28.82 67.15*2*pi/ulx,y,z
   ENINI  =  550.0     initial cutoff
   ENAUG  =  644.9 eV  augmentation charge cutoff
   NELM   =    100;   NELMIN=  2; NELMDL= -5     # of ELM steps 
   EDIFF  = 0.1E-04   stopping-criterion for ELM
   LREAL  =      T    real-space projection
   NLSPLINE    = F    spline interpolate recip. space projectors
   LCOMPAT=      F    compatible to vasp.4.4
   GGA_COMPAT  = T    GGA compatible to vasp.4.4-vasp.4.6
   LMAXPAW     = -100 max onsite density
   LMAXMIX     =    2 max onsite mixed and CHGCAR
   VOSKOWN=      0    Vosko Wilk Nusair interpolation
   ROPT   =   -0.00025  -0.00025  -0.00025  -0.00025
   ROPT   =   -0.00025
 Ionic relaxation
   EDIFFG = -.2E-01   stopping-criterion for IOM
   NSW    =    500    number of steps for IOM
   NBLOCK =      1;   KBLOCK =    500    inner block; outer block 
   IBRION =      2    ionic relax: 0-MD 1-quasi-New 2-CG
   NFREE  =      1    steps in history (QN), initial steepest desc. (CG)
   ISIF   =      2    stress and relaxation
   IWAVPR =     11    prediction:  0-non 1-charg 2-wave 3-comb
   ISYM   =      0    0-nonsym 1-usesym 2-fastsym
   LCORR  =      T    Harris-Foulkes like correction to forces

   POTIM  = 0.5000    time-step for ionic-motion
   TEIN   =    0.0    initial temperature
   TEBEG  =    0.0;   TEEND  =   0.0 temperature during run
   SMASS  =  -3.00    Nose mass-parameter (am)
   estimated Nose-frequenzy (Omega)   =  0.10E-29 period in steps =****** mass=  -0.519E-26a.u.
   SCALEE = 1.0000    scale energy and forces
   NPACO  =    256;   APACO  = 16.0  distance and # of slots for P.C.
   PSTRESS=    0.0 pullay stress

  Mass of Ions in am
   POMASS =  10.81 14.00 12.01 19.00 16.00
  Ionic Valenz
   ZVAL   =   3.00  5.00  4.00  7.00  6.00
  Atomic Wigner-Seitz radii
   RWIGS  =  -1.00 -1.00 -1.00 -1.00 -1.00
  virtual crystal weights 
   VCA    =   1.00  1.00  1.00  1.00  1.00
   NELECT =     347.0000    total number of electrons
   NUPDOWN=      -1.0000    fix difference up-down

 DOS related values:
   EMIN   =  10.00;   EMAX   =-10.00  energy-range for DOS
   EFERMI =   0.00
   ISMEAR =     0;   SIGMA  =   0.05  broadening in eV -4-tet -1-fermi 0-gaus

 Electronic relaxation 2 (details)
   IALGO  =     68    algorithm
   LDIAG  =      T    sub-space diagonalisation (order eigenvalues)
   LSUBROT=      F    optimize rotation matrix (better conditioning)
   TURBO    =      0    0=normal 1=particle mesh
   IRESTART =      0    0=no restart 2=restart with 2 vectors
   NREBOOT  =      0    no. of reboots
   NMIN     =      0    reboot dimension
   EREF     =   0.00    reference energy to select bands
   IMIX   =      4    mixing-type and parameters
     AMIX     =   0.40;   BMIX     =  1.00
     AMIX_MAG =   1.60;   BMIX_MAG =  1.00
     AMIN     =   0.10
     WC   =   100.;   INIMIX=   1;  MIXPRE=   1;  MAXMIX= -45

 Intra band minimization:
   WEIMIN = 0.0010     energy-eigenvalue tresh-hold
   EBREAK =  0.95E-08  absolut break condition
   DEPER  =   0.30     relativ break condition  

   TIME   =   0.40     timestep for ELM

  volume/ion in A,a.u.               =      84.26       568.60
  Fermi-wavevector in a.u.,A,eV,Ry     =   0.604008  1.141409  4.963752  0.364825
  Thomas-Fermi vector in A             =   1.657201
 
 Write flags
   LWAVE        =      T    write WAVECAR
   LDOWNSAMPLE  =      F    k-point downsampling of WAVECAR
   LCHARG       =      F    write CHGCAR
   LVTOT        =      F    write LOCPOT, total local potential
   LVHAR        =      T    write LOCPOT, Hartree potential only
   LELF         =      F    write electronic localiz. function (ELF)
   LORBIT       =     11    0 simple, 1 ext, 2 COOP (PROOUT), +10 PAW based schemes


 Dipole corrections
   LMONO  =      F    monopole corrections only (constant potential shift)
   LDIPOL =      F    correct potential (dipole corrections)
   IDIPOL =      0    1-x, 2-y, 3-z, 4-all directions 
   EPSILON=  1.0000000 bulk dielectric constant

 Exchange correlation treatment:
   GGA     =    --    GGA type
   LEXCH   =     8    internal setting for exchange type
   VOSKOWN=      0    Vosko Wilk Nusair interpolation
   LHFCALC =     F    Hartree Fock is set to
   LHFONE  =     F    Hartree Fock one center treatment
   AEXX    =    0.0000 exact exchange contribution

 Linear response parameters
   LEPSILON=     F    determine dielectric tensor
   LRPA    =     F    only Hartree local field effects (RPA)
   LNABLA  =     F    use nabla operator in PAW spheres
   LVEL    =     F    velocity operator in full k-point grid
   LINTERFAST=   F  fast interpolation
   KINTER  =     0    interpolate to denser k-point grid
   CSHIFT  =0.1000    complex shift for real part using Kramers Kronig
   OMEGAMAX=  -1.0    maximum frequency
   DEG_THRESHOLD= 0.2000000E-02 threshold for treating states as degnerate
   RTIME   =   -0.100 relaxation time in fs
  (WPLASMAI=    0.000 imaginary part of plasma frequency in eV, 0.658/RTIME)
   DFIELD  = 0.0000000 0.0000000 0.0000000 field for delta impulse in time
 
 Orbital magnetization related:
   ORBITALMAG=     F  switch on orbital magnetization
   LCHIMAG   =     F  perturbation theory with respect to B field
   DQ        =  0.001000  dq finite difference perturbation B field
   LLRAUG    =     F  two centre corrections for induced B field

 Solvation model:
   LSOL    =     T         switch on solvation model
   EB_K    = 78.400000     relative permittivity of the bulk solvent
   SIGMA_K =  0.600000     width of the dielectric cavity
   NC_K    =  0.002500     cutoff charge density
   TAU     =  0.000000     cavity surface tension
   LAMBDA_D_K    =  3.040000     Debye length in Angstroms
   LRHOB     =     F     write boundcharge  density
   LRHOION     =     F     write ioniccharge density



--------------------------------------------------------------------------------------------------------


 conjugate gradient relaxation of ions
   using selective dynamics as specified on POSCAR
 charge density and potential will be updated during run
 spin polarized calculation
 RMM-DIIS sequential band-by-band and
  variant of blocked Davidson during initial phase
 perform sub-space diagonalisation
    before iterative eigenvector-optimisation
 modified Broyden-mixing scheme, WC =      100.0
 initial mixing is a Kerker type mixing with AMIX =  0.4000 and BMIX =      1.0000
 Hartree-type preconditioning will be used
 using additional bands           90
 real space projection scheme for non local part
 use partial core corrections
 calculate Harris-corrections to forces 
   (improved forces if not selfconsistent)
 use gradient corrections 
 use of overlap-Matrix (Vanderbilt PP)
 Gauss-broadening in eV      SIGMA  =   0.05


--------------------------------------------------------------------------------------------------------


  energy-cutoff  :      550.00
  volume of cell :     6909.18
      direct lattice vectors                 reciprocal lattice vectors
     7.536550057-13.053746059  0.000000000     0.066343353 -0.038303181  0.000000000
     7.536550057 13.053746059  0.000000000     0.066343353  0.038303181  0.000000000
     0.000000000  0.000000000 35.114664386     0.000000000  0.000000000  0.028478131

  length of vectors
    15.073150730 15.073150730 35.114664386     0.076606620  0.076606620  0.028478131


 
 k-points in units of 2pi/SCALE and weight: K-Point Grid                            
   0.00000000  0.00000000  0.00000000       0.111
   0.02211445 -0.01276773  0.00000000       0.222
   0.02211445  0.01276773  0.00000000       0.222
   0.04422890  0.00000000  0.00000000       0.222
   0.00000000  0.02553545  0.00000000       0.222
 
 k-points in reciprocal lattice and weights: K-Point Grid                            
   0.00000000  0.00000000  0.00000000       0.111
   0.33333333  0.00000000  0.00000000       0.222
   0.00000000  0.33333333  0.00000000       0.222
   0.33333333  0.33333333  0.00000000       0.222
  -0.33333333  0.33333333  0.00000000       0.222
 
 position of ions in fractional coordinates (direct lattice) 
   0.11110862  0.05555614  0.50000918
   0.11111165  0.22222615  0.49997296
   0.11112051  0.38889320  0.49993497
   0.11111544  0.55555420  0.49998197
   0.11111236  0.72222128  0.50001476
   0.11111113  0.88888947  0.50001857
   0.27777822  0.05555519  0.50001494
   0.27777423  0.22222267  0.49995944
   0.27778059  0.38890448  0.49987701
   0.27778053  0.55554854  0.49991182
   0.27777797  0.72221677  0.49999273
   0.27777793  0.88888714  0.50002195
   0.44444477  0.05555505  0.50002173
   0.44444444  0.22222380  0.50000031
   0.44444339  0.38890279  0.49991496
   0.44443511  0.55554383  0.49990858
   0.44444102  0.72221111  0.49996493
   0.44444364  0.88888446  0.50001304
   0.61111107  0.05555401  0.50001586
   0.61111138  0.22222314  0.50001652
   0.61110769  0.38889325  0.49998836
   0.61110235  0.55555523  0.49995939
   0.61110336  0.72221262  0.49997531
   0.61110883  0.88888324  0.50000690
   0.77777929  0.05555489  0.50001553
   0.77777978  0.22222370  0.50001491
   0.77777725  0.38889076  0.50001888
   0.77777401  0.55555571  0.50000657
   0.77777324  0.72221916  0.50000475
   0.77777531  0.88888499  0.50001613
   0.94444519  0.05555666  0.50001496
   0.94444948  0.22222465  0.49999764
   0.94444935  0.38889134  0.50000414
   0.94444498  0.55555583  0.50001780
   0.94444317  0.72222143  0.50001629
   0.94444356  0.88888848  0.50001989
   0.05555599  0.11111184  0.49999709
   0.05555634  0.27777786  0.49995692
   0.05555545  0.44444453  0.49996787
   0.05555623  0.61111112  0.50000629
   0.05555585  0.77777790  0.50001385
   0.05555546  0.94444456  0.50001499
   0.22222191  0.11111039  0.49999499
   0.22222454  0.27777926  0.49992584
   0.22221870  0.44444581  0.49984081
   0.22222321  0.61111067  0.49995412
   0.22222296  0.77777735  0.50001225
   0.22222273  0.94444433  0.50001772
   0.38888917  0.11111194  0.50001354
   0.38888586  0.27777904  0.49995525
   0.38887936  0.44443377  0.49982775
   0.38888909  0.61110842  0.49989827
   0.38888928  0.77777641  0.49998865
   0.38888949  0.94444430  0.50002010
   0.55555577  0.11111123  0.50001512
   0.55555386  0.27777775  0.50000116
   0.55555318  0.44444354  0.49993406
   0.55554991  0.61110735  0.49992348
   0.55555504  0.77777665  0.49997785
   0.55555569  0.94444372  0.50001050
   0.72222267  0.11111115  0.50001053
   0.72222205  0.27777800  0.50001569
   0.72222114  0.44444440  0.50000308
   0.72221971  0.61111013  0.49998583
   0.72222028  0.77777595  0.49999828
   0.72222213  0.94444370  0.50001242
   0.88888923  0.11111111  0.50000876
   0.88888963  0.27777816  0.50000328
   0.88888874  0.44444470  0.50001708
   0.88888825  0.61111101  0.50001398
   0.88888812  0.77777734  0.50001274
   0.88888855  0.94444403  0.50001872
   0.37248701  0.31365474  0.67309529
   0.35368985  0.31700686  0.63026809
   0.34245596  0.40992867  0.61788984
   0.46094607  0.39578404  0.68386232
   0.37729946  0.22922180  0.68190563
   0.29599260  0.31185478  0.69341875
   0.43384090  0.31723969  0.61186009
   0.26785694  0.22620475  0.62166561
   0.42471818  0.49117121  0.61258941
   0.25313763  0.39368361  0.61531773
 
 position of ions in cartesian coordinates  (Angst):
   1.25607735 -0.72516801 17.55765457
   2.51221702  1.45046056 17.55638265
   3.76837835  3.62597420 17.55504863
   5.02438915  5.80159078 17.55669900
   6.28046076  7.97726068 17.55785058
   7.53655459 10.15292101 17.55798411
   2.51218391 -2.90084305 17.55785670
   3.76825170 -0.72515599 17.55590781
   5.02450538  1.45058296 17.55301352
   6.28042632  3.62591307 17.55423567
   7.53651047  5.80159121 17.55707707
   8.79262965  7.97726445 17.55810282
   3.76827367 -5.07646775 17.55809511
   5.02437856 -2.90081176 17.55734296
   6.28055513 -0.72501288 17.55434587
   7.53639133  1.45038496 17.55412213
   8.79253219  3.62594012 17.55610063
  10.04869395  5.80161759 17.55779012
   5.02435475 -7.25210071 17.55788908
   6.28046732 -5.07644843 17.55791215
   7.53655710 -2.90073092 17.55692363
   8.79257326 -0.72509802 17.55590625
  10.04860258  1.45039202 17.55646538
  11.30476533  3.62599664 17.55757458
   6.28046479 -9.42773397 17.55787769
   7.53657628 -7.25208788 17.55785585
   8.79265184 -5.07642543 17.55799526
  10.04870622 -2.90078121 17.55756301
  11.30476784 -0.72518886 17.55749883
  12.56086881  1.45039757 17.55789852
   7.53656404-11.60332516 17.55785742
   8.79269799 -9.42773946 17.55724921
  10.04878884 -7.25211321 17.55747771
  11.30483120 -5.07646031 17.55795716
  12.56090121 -2.90082624 17.55790413
  13.81699869 -0.72520187 17.55803052
   1.25610045  0.72521188 17.55722999
   2.51218988  2.90082339 17.55581958
   3.76827489  5.07645920 17.55620395
   5.02437179  7.25207246 17.55755293
   6.28046154  9.42770333 17.55781845
   7.53655021 11.60333247 17.55785856
   2.51217562 -1.45042159 17.55715632
   3.76830367  0.72519713 17.55472792
   5.02435044  2.90089636 17.55174239
   6.28046246  5.07643820 17.55572100
   7.53655236  7.25206601 17.55776240
   8.79264473  9.42769734 17.55795452
   3.76828343 -3.62603337 17.55780782
   5.02435344 -1.45036017 17.55576070
   6.28030617  0.72519313 17.55128359
   7.53653131  2.90079472 17.55375985
   8.79263437  5.07643381 17.55693360
  10.04873683  7.25207139 17.55803786
   5.02436922 -5.80166622 17.55786326
   6.28044543 -3.62601884 17.55737286
   7.53652529 -1.45039700 17.55501662
   8.79257085  0.72523279 17.55464526
  10.04872099  2.90082442 17.55655427
  11.30482065  5.07644556 17.55770079
   6.28046208 -7.97729457 17.55770188
   7.53655042 -5.80165979 17.55788306
   8.79263319 -3.62602704 17.55744040
  10.04870709 -1.45039612 17.55683454
  11.30479668  0.72520957 17.55727189
  12.56091046  2.90082391 17.55776827
   7.53655266-10.15291807 17.55763979
   8.79265018 -7.97729389 17.55744723
  10.04873424 -5.80165971 17.55793196
  11.30481950 -3.62603356 17.55782301
  12.56090763 -1.45041191 17.55777951
  13.81700278  0.72520706 17.55798958
   5.17114166 -0.76798144 23.63551511
   5.05473932 -0.47885048 22.13165246
   5.67038443  0.88077150 21.69699436
   6.45678933 -0.85060866 24.01359593
   4.57107779 -1.93296817 23.94488748
   4.58107225  0.20706082 24.34916658
   5.66055650 -1.52208256 21.48526170
   3.72352071 -0.54371714 21.82957929
   6.90264623  0.86746091 21.51087144
   4.87480070  1.83465155 21.60667559
 


--------------------------------------------------------------------------------------------------------


 k-point  1 :   0.0000 0.0000 0.0000  plane waves:  202395
 k-point  2 :   0.3333 0.0000 0.0000  plane waves:  202358
 k-point  3 :   0.0000 0.3333 0.0000  plane waves:  202358
 k-point  4 :   0.3333 0.3333 0.0000  plane waves:  202335
 k-point  5 :  -0.3333 0.3333 0.0000  plane waves:  202358

 maximum and minimum number of plane-waves per node :    202395   202335

 maximum number of plane-waves:    202395
 maximum index in each direction: 
   IXMAX=   29   IYMAX=   28   IZMAX=   67
   IXMIN=  -29   IYMIN=  -29   IZMIN=  -67


 serial   3D FFT for wavefunctions
 parallel 3D FFT for charge:
    minimum data exchange during FFTs selected (reduces bandwidth)


 total amount of memory used by VASP MPI-rank0  1757882. kBytes
=======================================================================

   base      :      30000. kBytes
   nonlr-proj:      37394. kBytes
   fftplans  :     102830. kBytes
   grid      :     872370. kBytes
   one-center:        503. kBytes
   wavefun   :     714785. kBytes
 
     INWAV:  cpu time    0.0001: real time    0.0004
 Broyden mixing: mesh for mixing (old mesh)
   NGX = 57   NGY = 57   NGZ =135
  (NGX  =240   NGY  =240   NGZ  =540)
  gives a total of 438615 points

 initial charge density was supplied:
 charge density of overlapping atoms calculated
 number of electron     347.0000000 magnetization      82.0000000
 keeping initial charge density in first step


--------------------------------------------------------------------------------------------------------


 Maximum index for non-local projection operator         6375
 Maximum index for augmentation-charges          736 (set IRDMAX)


--------------------------------------------------------------------------------------------------------


 First call to EWALD:  gamma=   0.093
 Maximum number of real-space cells 4x 4x 2
 Maximum number of reciprocal cells 2x 2x 5

    FEWALD:  cpu time    0.1355: real time    0.1355


--------------------------------------- Iteration      1(   1)  ---------------------------------------


    POTLOK:  cpu time  129.1028: real time  129.6942
    SETDIJ:  cpu time    0.9158: real time    0.5794
     EDDAV:  cpu time  356.9000: real time  233.8536
       DOS:  cpu time    0.0627: real time    0.0606
    --------------------------------------------
      LOOP:  cpu time  486.9814: real time  364.1878

 eigenvalue-minimisations  :  6300
 total energy-change (2. order) : 0.3446886E+04  (-0.1185050E+05)
 number of electron     347.0000000 magnetization      82.0000000
 augmentation part      347.0000000 magnetization      82.0000000

 Free energy of the ion-electron system (eV)
  ---------------------------------------------------
  alpha Z        PSCENC =        92.14382556
  Ewald energy   TEWEN  =    110875.68533933
  -Hartree energ DENC   =   -123570.76237814
  -exchange      EXHF   =         0.00000000
  -V(xc)+E(xc)   XCENC  =      1477.56519311
  PAW double counting   =     12389.81687870   -12541.43845553
  entropy T*S    EENTRO =        -0.05028197
  eigenvalues    EBANDS =     -2356.50124250
  atomic energy  EATOM  =     16689.68470767
  Solvation  Ediel_sol  =       390.74271133
  ---------------------------------------------------
  free energy    TOTEN  =      3446.88629756 eV

  energy without entropy =     3446.93657953  energy(sigma->0) =     3446.91143855


--------------------------------------------------------------------------------------------------------




--------------------------------------- Iteration      1(   2)  ---------------------------------------


     EDDAV:  cpu time  431.0694: real time  280.1388
       DOS:  cpu time    0.0023: real time    0.0012
    --------------------------------------------
      LOOP:  cpu time  431.0718: real time  280.1400

 eigenvalue-minimisations  :  8460
 total energy-change (2. order) :-0.3394323E+04  (-0.3087502E+04)
 number of electron     347.0000000 magnetization      82.0000000
 augmentation part      347.0000000 magnetization      82.0000000

 Free energy of the ion-electron system (eV)
  ---------------------------------------------------
  alpha Z        PSCENC =        92.14382556
  Ewald energy   TEWEN  =    110875.68533933
  -Hartree energ DENC   =   -123570.76237814
  -exchange      EXHF   =         0.00000000
  -V(xc)+E(xc)   XCENC  =      1477.56519311
  PAW double counting   =     12389.81687870   -12541.43845553
  entropy T*S    EENTRO =        -0.00024938
  eigenvalues    EBANDS =     -5750.87425761
  atomic energy  EATOM  =     16689.68470767
  Solvation  Ediel_sol  =       390.74271133
  ---------------------------------------------------
  free energy    TOTEN  =        52.56331504 eV

  energy without entropy =       52.56356442  energy(sigma->0) =       52.56343973


--------------------------------------------------------------------------------------------------------




--------------------------------------- Iteration      1(   3)  ---------------------------------------


     EDDAV:  cpu time  375.8972: real time  244.9852
       DOS:  cpu time    0.0019: real time    0.0009
    --------------------------------------------
      LOOP:  cpu time  375.8991: real time  244.9862

 eigenvalue-minimisations  :  6828
 total energy-change (2. order) :-0.9189040E+03  (-0.9113503E+03)
 number of electron     347.0000000 magnetization      82.0000000
 augmentation part      347.0000000 magnetization      82.0000000

 Free energy of the ion-electron system (eV)
  ---------------------------------------------------
  alpha Z        PSCENC =        92.14382556
  Ewald energy   TEWEN  =    110875.68533933
  -Hartree energ DENC   =   -123570.76237814
  -exchange      EXHF   =         0.00000000
  -V(xc)+E(xc)   XCENC  =      1477.56519311
  PAW double counting   =     12389.81687870   -12541.43845553
  entropy T*S    EENTRO =        -0.00000000
  eigenvalues    EBANDS =     -6669.77847777
  atomic energy  EATOM  =     16689.68470767
  Solvation  Ediel_sol  =       390.74271133
  ---------------------------------------------------
  free energy    TOTEN  =      -866.34065573 eV

  energy without entropy =     -866.34065573  energy(sigma->0) =     -866.34065573


--------------------------------------------------------------------------------------------------------




--------------------------------------- Iteration      1(   4)  ---------------------------------------


     EDDAV:  cpu time  365.7829: real time  239.2150
       DOS:  cpu time    0.0018: real time    0.0009
    --------------------------------------------
      LOOP:  cpu time  365.7847: real time  239.2159

 eigenvalue-minimisations  :  6576
 total energy-change (2. order) :-0.4428887E+02  (-0.4390400E+02)
 number of electron     347.0000000 magnetization      82.0000000
 augmentation part      347.0000000 magnetization      82.0000000

 Free energy of the ion-electron system (eV)
  ---------------------------------------------------
  alpha Z        PSCENC =        92.14382556
  Ewald energy   TEWEN  =    110875.68533933
  -Hartree energ DENC   =   -123570.76237814
  -exchange      EXHF   =         0.00000000
  -V(xc)+E(xc)   XCENC  =      1477.56519311
  PAW double counting   =     12389.81687870   -12541.43845553
  entropy T*S    EENTRO =        -0.00000000
  eigenvalues    EBANDS =     -6714.06735215
  atomic energy  EATOM  =     16689.68470767
  Solvation  Ediel_sol  =       390.74271133
  ---------------------------------------------------
  free energy    TOTEN  =      -910.62953012 eV

  energy without entropy =     -910.62953012  energy(sigma->0) =     -910.62953012


--------------------------------------------------------------------------------------------------------




--------------------------------------- Iteration      1(   5)  ---------------------------------------


     EDDAV:  cpu time  364.9617: real time  238.9674
       DOS:  cpu time    0.0019: real time    0.0010
    CHARGE:  cpu time   39.8654: real time   38.6992
    MIXING:  cpu time    0.1560: real time    0.1819
    --------------------------------------------
      LOOP:  cpu time  404.9850: real time  277.8496

 eigenvalue-minimisations  :  6684
 total energy-change (2. order) :-0.9090984E+00  (-0.9069215E+00)
 number of electron     346.9999962 magnetization      77.9793082
 augmentation part       18.4419546 magnetization      77.6311010

 Broyden mixing:
  rms(total) = 0.65542E+01    rms(broyden)= 0.65532E+01
  rms(prec ) = 0.66501E+01
  weight for this iteration     100.00

 Free energy of the ion-electron system (eV)
  ---------------------------------------------------
  alpha Z        PSCENC =        92.14382556
  Ewald energy   TEWEN  =    110875.68533933
  -Hartree energ DENC   =   -123570.76237814
  -exchange      EXHF   =         0.00000000
  -V(xc)+E(xc)   XCENC  =      1477.56519311
  PAW double counting   =     12389.81687870   -12541.43845553
  entropy T*S    EENTRO =        -0.00000000
  eigenvalues    EBANDS =     -6714.97645058
  atomic energy  EATOM  =     16689.68470767
  Solvation  Ediel_sol  =       390.74271133
  ---------------------------------------------------
  free energy    TOTEN  =      -911.53862855 eV

  energy without entropy =     -911.53862855  energy(sigma->0) =     -911.53862855


--------------------------------------------------------------------------------------------------------




--------------------------------------- Iteration      1(   6)  ---------------------------------------


    POTLOK:  cpu time  121.6889: real time  121.9228
    SETDIJ:  cpu time    0.6067: real time    0.4100
    EDDIAG:  cpu time   59.0053: real time   48.5145
  RMM-DIIS:  cpu time  376.7505: real time  272.7856
    ORTHCH:  cpu time    2.7838: real time    1.3997
       DOS:  cpu time    0.0027: real time    0.0013
    CHARGE:  cpu time   39.8891: real time   38.6191
    MIXING:  cpu time    0.1575: real time    0.1590
    --------------------------------------------
      LOOP:  cpu time  600.8845: real time  483.8122

 eigenvalue-minimisations  :  5280
 total energy-change (2. order) : 0.2405825E+03  (-0.2776454E+02)
 number of electron     346.9999968 magnetization      73.2135726
 augmentation part       17.4042146 magnetization      71.2188920

 Broyden mixing:
  rms(total) = 0.33643E+01    rms(broyden)= 0.33640E+01
  rms(prec ) = 0.34081E+01
  weight for this iteration     100.00

 eigenvalues of (default mixing * dielectric matrix)
  average eigenvalue GAMMA=   1.0658
  1.0658

 Free energy of the ion-electron system (eV)
  ---------------------------------------------------
  alpha Z        PSCENC =        92.14382556
  Ewald energy   TEWEN  =    110875.68533933
  -Hartree energ DENC   =   -124224.39699030
  -exchange      EXHF   =         0.00000000
  -V(xc)+E(xc)   XCENC  =      1623.10888218
  PAW double counting   =     20269.08684181   -20427.79232588
  entropy T*S    EENTRO =        -0.02931868
  eigenvalues    EBANDS =     -5865.74898611
  atomic energy  EATOM  =     16689.68470767
  Solvation  Ediel_sol  =       297.30185682
  ---------------------------------------------------
  free energy    TOTEN  =      -670.95616759 eV

  energy without entropy =     -670.92684892  energy(sigma->0) =     -670.94150826


--------------------------------------------------------------------------------------------------------




--------------------------------------- Iteration      1(   7)  ---------------------------------------


    POTLOK:  cpu time  119.1140: real time  119.3446
    SETDIJ:  cpu time    0.6057: real time    0.4090
    EDDIAG:  cpu time   58.6298: real time   48.1273
  RMM-DIIS:  cpu time  377.0997: real time  273.1234
    ORTHCH:  cpu time    2.7760: real time    1.3932
       DOS:  cpu time    0.0034: real time    0.0017
    CHARGE:  cpu time   39.8568: real time   38.6437
    MIXING:  cpu time    0.1561: real time    0.1564
    --------------------------------------------
      LOOP:  cpu time  598.2414: real time  481.1992

 eigenvalue-minimisations  :  5280
 total energy-change (2. order) :-0.3755854E+02  (-0.7938285E+01)
 number of electron     346.9999973 magnetization      69.2492144
 augmentation part       16.2998208 magnetization      67.0362318

 Broyden mixing:
  rms(total) = 0.22993E+01    rms(broyden)= 0.22990E+01
  rms(prec ) = 0.23131E+01
  weight for this iteration     100.00

 eigenvalues of (default mixing * dielectric matrix)
  average eigenvalue GAMMA=   1.0416
  1.2786  0.8046

 Free energy of the ion-electron system (eV)
  ---------------------------------------------------
  alpha Z        PSCENC =        92.14382556
  Ewald energy   TEWEN  =    110875.68533933
  -Hartree energ DENC   =   -124681.78344080
  -exchange      EXHF   =         0.00000000
  -V(xc)+E(xc)   XCENC  =      1622.49296191
  PAW double counting   =     28954.53888033   -29118.70758025
  entropy T*S    EENTRO =        -0.03029424
  eigenvalues    EBANDS =     -5340.96200488
  atomic energy  EATOM  =     16689.68470767
  Solvation  Ediel_sol  =       198.42289848
  ---------------------------------------------------
  free energy    TOTEN  =      -708.51470688 eV

  energy without entropy =     -708.48441264  energy(sigma->0) =     -708.49955976


--------------------------------------------------------------------------------------------------------




--------------------------------------- Iteration      1(   8)  ---------------------------------------


    POTLOK:  cpu time  117.1986: real time  117.4303
    SETDIJ:  cpu time    0.6041: real time    0.4074
    EDDIAG:  cpu time   58.5949: real time   48.1257
  RMM-DIIS:  cpu time  376.8739: real time  272.7834
    ORTHCH:  cpu time    2.7886: real time    1.3994
       DOS:  cpu time    0.0044: real time    0.0022
    CHARGE:  cpu time   39.7841: real time   38.5836
    MIXING:  cpu time    0.1612: real time    0.1615
    --------------------------------------------
      LOOP:  cpu time  596.0098: real time  478.8935

 eigenvalue-minimisations  :  5280
 total energy-change (2. order) :-0.4892750E+01  (-0.1196866E+01)
 number of electron     346.9999974 magnetization      62.6743063
 augmentation part       16.2372003 magnetization      60.5758907

 Broyden mixing:
  rms(total) = 0.17419E+01    rms(broyden)= 0.17418E+01
  rms(prec ) = 0.17511E+01
  weight for this iteration     100.00

 eigenvalues of (default mixing * dielectric matrix)
  average eigenvalue GAMMA=   1.1824
  1.6387  1.2267  0.6818

 Free energy of the ion-electron system (eV)
  ---------------------------------------------------
  alpha Z        PSCENC =        92.14382556
  Ewald energy   TEWEN  =    110875.68533933
  -Hartree energ DENC   =   -124818.07689368
  -exchange      EXHF   =         0.00000000
  -V(xc)+E(xc)   XCENC  =      1623.48431458
  PAW double counting   =     34019.37381968   -34185.33500512
  entropy T*S    EENTRO =        -0.01846335
  eigenvalues    EBANDS =     -5154.69506563
  atomic energy  EATOM  =     16689.68470767
  Solvation  Ediel_sol  =       144.34596438
  ---------------------------------------------------
  free energy    TOTEN  =      -713.40745657 eV

  energy without entropy =     -713.38899322  energy(sigma->0) =     -713.39822489


--------------------------------------------------------------------------------------------------------




--------------------------------------- Iteration      1(   9)  ---------------------------------------


    POTLOK:  cpu time  120.7663: real time  120.9992
    SETDIJ:  cpu time    0.6040: real time    0.4072
    EDDIAG:  cpu time   58.5773: real time   48.1182
  RMM-DIIS:  cpu time  376.7255: real time  272.6303
    ORTHCH:  cpu time    2.7931: real time    1.4017
       DOS:  cpu time    0.0043: real time    0.0022
    CHARGE:  cpu time   39.8316: real time   38.6314
    MIXING:  cpu time    0.1578: real time    0.1582
    --------------------------------------------
      LOOP:  cpu time  599.4600: real time  482.3485

 eigenvalue-minimisations  :  5280
 total energy-change (2. order) :-0.3511472E+02  (-0.2025587E+01)
 number of electron     346.9999974 magnetization      57.9444691
 augmentation part       16.2212261 magnetization      56.9069278

 Broyden mixing:
  rms(total) = 0.12086E+01    rms(broyden)= 0.12083E+01
  rms(prec ) = 0.12123E+01
  weight for this iteration     100.00

 eigenvalues of (default mixing * dielectric matrix)
  average eigenvalue GAMMA=   1.3179
  2.4645  1.3095  0.8308  0.6668

 Free energy of the ion-electron system (eV)
  ---------------------------------------------------
  alpha Z        PSCENC =        92.14382556
  Ewald energy   TEWEN  =    110875.68533933
  -Hartree energ DENC   =   -124957.40047000
  -exchange      EXHF   =         0.00000000
  -V(xc)+E(xc)   XCENC  =      1606.22085320
  PAW double counting   =     39923.81482730   -40091.20297514
  entropy T*S    EENTRO =        -0.02802797
  eigenvalues    EBANDS =     -4966.64810096
  atomic energy  EATOM  =     16689.68470767
  Solvation  Ediel_sol  =        79.20784501
  ---------------------------------------------------
  free energy    TOTEN  =      -748.52217600 eV

  energy without entropy =     -748.49414804  energy(sigma->0) =     -748.50816202


--------------------------------------------------------------------------------------------------------




--------------------------------------- Iteration      1(  10)  ---------------------------------------


    POTLOK:  cpu time  118.1102: real time  118.3388
    SETDIJ:  cpu time    0.6195: real time    0.4228
    EDDIAG:  cpu time   58.5867: real time   48.1285
  RMM-DIIS:  cpu time  377.2287: real time  273.0343
    ORTHCH:  cpu time    2.7792: real time    1.3953
       DOS:  cpu time    0.0024: real time    0.0012
    CHARGE:  cpu time   39.8524: real time   38.6709
    MIXING:  cpu time    0.1631: real time    0.1635
    --------------------------------------------
      LOOP:  cpu time  597.3425: real time  480.1553

 eigenvalue-minimisations  :  5280
 total energy-change (2. order) :-0.1941978E+02  (-0.8911838E+00)
 number of electron     346.9999975 magnetization      55.5672235
 augmentation part       16.2339254 magnetization      54.2478452

 Broyden mixing:
  rms(total) = 0.10650E+01    rms(broyden)= 0.10649E+01
  rms(prec ) = 0.10685E+01
  weight for this iteration     100.00

 eigenvalues of (default mixing * dielectric matrix)
  average eigenvalue GAMMA=   1.1838
  2.6328  1.3898  0.7522  0.5721  0.5721

 Free energy of the ion-electron system (eV)
  ---------------------------------------------------
  alpha Z        PSCENC =        92.14382556
  Ewald energy   TEWEN  =    110875.68533933
  -Hartree energ DENC   =   -125034.52587749
  -exchange      EXHF   =         0.00000000
  -V(xc)+E(xc)   XCENC  =      1594.86811858
  PAW double counting   =     42084.12654584   -42251.80144289
  entropy T*S    EENTRO =        -0.01991695
  eigenvalues    EBANDS =     -4882.78737421
  atomic energy  EATOM  =     16689.68470767
  Solvation  Ediel_sol  =        64.68412280
  ---------------------------------------------------
  free energy    TOTEN  =      -767.94195176 eV

  energy without entropy =     -767.92203482  energy(sigma->0) =     -767.93199329


--------------------------------------------------------------------------------------------------------




--------------------------------------- Iteration      1(  11)  ---------------------------------------


    POTLOK:  cpu time  113.7637: real time  113.9899
    SETDIJ:  cpu time    0.6053: real time    0.4091
    EDDIAG:  cpu time   58.6246: real time   48.1673
  RMM-DIIS:  cpu time  376.9536: real time  272.6980
    ORTHCH:  cpu time    2.7837: real time    1.3974
       DOS:  cpu time    0.0050: real time    0.0025
    CHARGE:  cpu time   39.7936: real time   38.6162
    MIXING:  cpu time    0.1638: real time    0.1642
    --------------------------------------------
      LOOP:  cpu time  592.6935: real time  475.4446

 eigenvalue-minimisations  :  5280
 total energy-change (2. order) :-0.8435924E+01  (-0.2916123E+00)
 number of electron     346.9999976 magnetization      43.6645849
 augmentation part       16.1839379 magnetization      42.4547133

 Broyden mixing:
  rms(total) = 0.93334E+00    rms(broyden)= 0.93331E+00
  rms(prec ) = 0.93639E+00
  weight for this iteration     100.00

 eigenvalues of (default mixing * dielectric matrix)
  average eigenvalue GAMMA=   1.2864
  2.4027  2.1236  0.9179  0.9179  0.7054  0.6512

 Free energy of the ion-electron system (eV)
  ---------------------------------------------------
  alpha Z        PSCENC =        92.14382556
  Ewald energy   TEWEN  =    110875.68533933
  -Hartree energ DENC   =   -125049.60832776
  -exchange      EXHF   =         0.00000000
  -V(xc)+E(xc)   XCENC  =      1589.24720813
  PAW double counting   =     42086.58544182   -42254.27977971
  entropy T*S    EENTRO =        -0.01947790
  eigenvalues    EBANDS =     -4878.02038634
  atomic energy  EATOM  =     16689.68470767
  Solvation  Ediel_sol  =        72.20357344
  ---------------------------------------------------
  free energy    TOTEN  =      -776.37787576 eV

  energy without entropy =     -776.35839786  energy(sigma->0) =     -776.36813681


--------------------------------------------------------------------------------------------------------




--------------------------------------- Iteration      1(  12)  ---------------------------------------


    POTLOK:  cpu time  119.1657: real time  119.3914
    SETDIJ:  cpu time    0.6167: real time    0.4201
    EDDIAG:  cpu time   58.9069: real time   48.3854
  RMM-DIIS:  cpu time  377.2073: real time  273.0345
    ORTHCH:  cpu time    2.7924: real time    1.4014
       DOS:  cpu time    0.0017: real time    0.0009
    CHARGE:  cpu time   39.9322: real time   38.7477
    MIXING:  cpu time    0.1699: real time    0.1704
    --------------------------------------------
      LOOP:  cpu time  598.7929: real time  481.5518

 eigenvalue-minimisations  :  5280
 total energy-change (2. order) :-0.2316899E+02  (-0.2121784E+01)
 number of electron     346.9999974 magnetization      37.2934161
 augmentation part       15.9656701 magnetization      36.1212563

 Broyden mixing:
  rms(total) = 0.10069E+01    rms(broyden)= 0.10058E+01
  rms(prec ) = 0.10301E+01
  weight for this iteration     100.00

 eigenvalues of (default mixing * dielectric matrix)
  average eigenvalue GAMMA=   1.3660
  3.1194  2.6722  1.1076  0.9483  0.7367  0.5857  0.3921

 Free energy of the ion-electron system (eV)
  ---------------------------------------------------
  alpha Z        PSCENC =        92.14382556
  Ewald energy   TEWEN  =    110875.68533933
  -Hartree energ DENC   =   -125077.34756477
  -exchange      EXHF   =         0.00000000
  -V(xc)+E(xc)   XCENC  =      1571.46282450
  PAW double counting   =     40760.23198911   -40927.16982501
  entropy T*S    EENTRO =        -0.00000000
  eigenvalues    EBANDS =     -4920.94791133
  atomic energy  EATOM  =     16689.68470767
  Solvation  Ediel_sol  =       136.70974700
  ---------------------------------------------------
  free energy    TOTEN  =      -799.54686793 eV

  energy without entropy =     -799.54686793  energy(sigma->0) =     -799.54686793


--------------------------------------------------------------------------------------------------------




--------------------------------------- Iteration      1(  13)  ---------------------------------------


    POTLOK:  cpu time  117.1784: real time  117.4143
    SETDIJ:  cpu time    0.7372: real time    0.4741
    EDDIAG:  cpu time   58.8257: real time   48.3374
  RMM-DIIS:  cpu time  377.0385: real time  272.7415
    ORTHCH:  cpu time    2.7811: real time    1.3957
       DOS:  cpu time    0.0074: real time    0.0037
    CHARGE:  cpu time   39.8071: real time   38.6399
    MIXING:  cpu time    0.1699: real time    0.1702
    --------------------------------------------
      LOOP:  cpu time  596.5454: real time  479.1769

 eigenvalue-minimisations  :  5284
 total energy-change (2. order) :-0.5657344E+01  (-0.5702664E+00)
 number of electron     346.9999974 magnetization      30.9679530
 augmentation part       15.9564326 magnetization      29.9896356

 Broyden mixing:
  rms(total) = 0.78237E+00    rms(broyden)= 0.78226E+00
  rms(prec ) = 0.80689E+00
  weight for this iteration     100.00

 eigenvalues of (default mixing * dielectric matrix)
  average eigenvalue GAMMA=   1.6003
  5.3972  2.4112  1.2666  0.9141  0.9141  0.6865  0.6865  0.5264

 Free energy of the ion-electron system (eV)
  ---------------------------------------------------
  alpha Z        PSCENC =        92.14382556
  Ewald energy   TEWEN  =    110875.68533933
  -Hartree energ DENC   =   -125091.67594205
  -exchange      EXHF   =         0.00000000
  -V(xc)+E(xc)   XCENC  =      1565.31633035
  PAW double counting   =     40385.44919548   -40551.95529779
  entropy T*S    EENTRO =        -0.00000000
  eigenvalues    EBANDS =     -4942.56544775
  atomic energy  EATOM  =     16689.68470767
  Solvation  Ediel_sol  =       172.71307706
  ---------------------------------------------------
  free energy    TOTEN  =      -805.20421213 eV

  energy without entropy =     -805.20421213  energy(sigma->0) =     -805.20421213


--------------------------------------------------------------------------------------------------------




--------------------------------------- Iteration      1(  14)  ---------------------------------------


    POTLOK:  cpu time  117.1784: real time  117.4029
    SETDIJ:  cpu time    0.6049: real time    0.4082
    EDDIAG:  cpu time   58.8880: real time   48.3714
  RMM-DIIS:  cpu time  377.0426: real time  272.6891
    ORTHCH:  cpu time    2.7803: real time    1.3952
       DOS:  cpu time    0.0043: real time    0.0022
    CHARGE:  cpu time   39.9244: real time   38.7429
    MIXING:  cpu time    0.1808: real time    0.1811
    --------------------------------------------
      LOOP:  cpu time  596.6037: real time  479.1930

 eigenvalue-minimisations  :  5280
 total energy-change (2. order) : 0.2927843E+00  (-0.3983463E+00)
 number of electron     346.9999977 magnetization      27.6380308
 augmentation part       16.0905434 magnetization      27.1732174

 Broyden mixing:
  rms(total) = 0.70180E+00    rms(broyden)= 0.70094E+00
  rms(prec ) = 0.70386E+00
  weight for this iteration     100.00

 eigenvalues of (default mixing * dielectric matrix)
  average eigenvalue GAMMA=   1.5716
  6.0156  2.4288  1.3834  0.8992  0.8992  0.7819  0.6188  0.5589  0.5589

 Free energy of the ion-electron system (eV)
  ---------------------------------------------------
  alpha Z        PSCENC =        92.14382556
  Ewald energy   TEWEN  =    110875.68533933
  -Hartree energ DENC   =   -125113.10696730
  -exchange      EXHF   =         0.00000000
  -V(xc)+E(xc)   XCENC  =      1564.47504669
  PAW double counting   =     40534.27285618   -40700.81509680
  entropy T*S    EENTRO =        -0.02780640
  eigenvalues    EBANDS =     -4954.78721923
  atomic energy  EATOM  =     16689.68470767
  Solvation  Ediel_sol  =       207.56388651
  ---------------------------------------------------
  free energy    TOTEN  =      -804.91142778 eV

  energy without entropy =     -804.88362139  energy(sigma->0) =     -804.89752458


--------------------------------------------------------------------------------------------------------




--------------------------------------- Iteration      1(  15)  ---------------------------------------


    POTLOK:  cpu time  113.4675: real time  113.7052
    SETDIJ:  cpu time    1.3517: real time    0.9592
    EDDIAG:  cpu time   58.7060: real time   48.2272
  RMM-DIIS:  cpu time  377.5168: real time  273.2088
    ORTHCH:  cpu time    2.7713: real time    1.3907
       DOS:  cpu time    0.0025: real time    0.0013
    CHARGE:  cpu time   39.8559: real time   38.6550
    MIXING:  cpu time    0.1820: real time    0.1824
    --------------------------------------------
      LOOP:  cpu time  593.8537: real time  476.3297

 eigenvalue-minimisations  :  5280
 total energy-change (2. order) : 0.1534171E+01  (-0.1046165E+00)
 number of electron     346.9999977 magnetization      21.5993075
 augmentation part       16.0864483 magnetization      21.6095913

 Broyden mixing:
  rms(total) = 0.52694E+00    rms(broyden)= 0.52676E+00
  rms(prec ) = 0.53199E+00
  weight for this iteration     100.00

 eigenvalues of (default mixing * dielectric matrix)
  average eigenvalue GAMMA=   1.7383
  7.7770  2.3675  1.4905  1.1231  1.1231  0.7848  0.7848  0.6618  0.6618  0.6085

 Free energy of the ion-electron system (eV)
  ---------------------------------------------------
  alpha Z        PSCENC =        92.14382556
  Ewald energy   TEWEN  =    110875.68533933
  -Hartree energ DENC   =   -125122.36946035
  -exchange      EXHF   =         0.00000000
  -V(xc)+E(xc)   XCENC  =      1566.82231702
  PAW double counting   =     40428.73267756   -40595.32846375
  entropy T*S    EENTRO =        -0.02685186
  eigenvalues    EBANDS =     -4961.13374782
  atomic energy  EATOM  =     16689.68470767
  Solvation  Ediel_sol  =       222.41239937
  ---------------------------------------------------
  free energy    TOTEN  =      -803.37725726 eV

  energy without entropy =     -803.35040540  energy(sigma->0) =     -803.36383133


--------------------------------------------------------------------------------------------------------




--------------------------------------- Iteration      1(  16)  ---------------------------------------


    POTLOK:  cpu time  115.2304: real time  115.4686
    SETDIJ:  cpu time    0.9138: real time    0.5630
    EDDIAG:  cpu time   58.6102: real time   48.1649
  RMM-DIIS:  cpu time  376.8397: real time  272.8816
    ORTHCH:  cpu time    2.7985: real time    1.4044
       DOS:  cpu time    0.0046: real time    0.0023
    CHARGE:  cpu time   39.8423: real time   38.6698
    MIXING:  cpu time    0.1869: real time    0.1873
    --------------------------------------------
      LOOP:  cpu time  594.4264: real time  477.3419

 eigenvalue-minimisations  :  5280
 total energy-change (2. order) : 0.3225650E+01  (-0.1502679E+00)
 number of electron     346.9999977 magnetization      16.9299913
 augmentation part       16.0990430 magnetization      17.3620112

 Broyden mixing:
  rms(total) = 0.32669E+00    rms(broyden)= 0.32662E+00
  rms(prec ) = 0.32947E+00
  weight for this iteration     100.00

 eigenvalues of (default mixing * dielectric matrix)
  average eigenvalue GAMMA=   1.8327
  9.1914  2.0954  2.0954  1.0985  1.0985  1.1877  0.8069  0.6469  0.6469  0.6789
  0.6135

 Free energy of the ion-electron system (eV)
  ---------------------------------------------------
  alpha Z        PSCENC =        92.14382556
  Ewald energy   TEWEN  =    110875.68533933
  -Hartree energ DENC   =   -125124.82119580
  -exchange      EXHF   =         0.00000000
  -V(xc)+E(xc)   XCENC  =      1569.14869928
  PAW double counting   =     40456.26216846   -40623.01868679
  entropy T*S    EENTRO =        -0.02025106
  eigenvalues    EBANDS =     -4979.24273897
  atomic energy  EATOM  =     16689.68470767
  Solvation  Ediel_sol  =       244.02652464
  ---------------------------------------------------
  free energy    TOTEN  =      -800.15160769 eV

  energy without entropy =     -800.13135663  energy(sigma->0) =     -800.14148216


--------------------------------------------------------------------------------------------------------




--------------------------------------- Iteration      1(  17)  ---------------------------------------


    POTLOK:  cpu time  115.3100: real time  115.5284
    SETDIJ:  cpu time    0.7257: real time    0.4753
    EDDIAG:  cpu time   58.6488: real time   48.1624
  RMM-DIIS:  cpu time  377.0441: real time  272.8638
    ORTHCH:  cpu time    2.8020: real time    1.4063
       DOS:  cpu time    0.0045: real time    0.0023
    CHARGE:  cpu time   39.7783: real time   38.5936
    MIXING:  cpu time    0.1967: real time    0.1971
    --------------------------------------------
      LOOP:  cpu time  594.5104: real time  477.2292

 eigenvalue-minimisations  :  5282
 total energy-change (2. order) : 0.3294108E+01  (-0.5537531E-01)
 number of electron     346.9999975 magnetization      15.5619203
 augmentation part       16.0292839 magnetization      16.2982369

 Broyden mixing:
[...]
   -.537E+01 0.279E+01 0.721E+02   0.515E+01 -.294E+01 -.711E+02   0.141E-02 0.218E-02 -.214E-02   0.501E-03 0.488E-03 -.219E-02
   0.266E+01 0.480E+01 0.711E+02   -.259E+01 -.485E+01 -.702E+02   -.751E-03 0.767E-03 0.243E-02   0.307E-03 0.113E-04 -.181E-02
   -.660E+01 0.185E+02 0.802E+02   0.663E+01 -.184E+02 -.792E+02   -.139E-02 0.167E-03 -.234E-02   0.840E-04 -.478E-03 -.187E-02
   -.245E+02 0.227E+02 0.920E+02   0.243E+02 -.223E+02 -.908E+02   0.124E-02 -.189E-02 -.405E-02   0.400E-03 -.127E-02 -.257E-02
   -.323E+02 0.100E+02 0.918E+02   0.318E+02 -.969E+01 -.905E+02   0.662E-02 -.381E-02 -.326E-02   0.143E-02 -.113E-02 -.343E-02
   -.202E+02 -.319E+01 0.798E+02   0.197E+02 0.323E+01 -.786E+02   0.587E-02 -.243E-02 -.617E-02   0.159E-02 -.439E-04 -.300E-02
   -.308E+01 -.438E+01 0.708E+02   0.291E+01 0.427E+01 -.697E+02   0.152E-02 -.430E-04 -.329E-02   0.826E-03 0.232E-03 -.217E-02
   0.191E+02 -.104E+02 0.785E+02   -.187E+02 0.103E+02 -.774E+02   -.282E-02 -.711E-03 -.441E-02   -.152E-04 0.983E-04 -.177E-02
   0.995E+01 -.940E+01 0.768E+02   -.962E+01 0.914E+01 -.757E+02   -.261E-02 0.195E-02 -.285E-02   -.236E-03 0.101E-03 -.176E-02
   -.469E+01 0.291E-01 0.738E+02   0.474E+01 -.170E+00 -.727E+02   0.265E-03 0.240E-02 -.766E-02   -.399E-04 -.250E-03 -.184E-02
   -.112E+02 0.608E+01 0.729E+02   0.110E+02 -.601E+01 -.719E+02   0.263E-02 -.600E-04 -.401E-02   0.392E-03 -.504E-03 -.210E-02
   -.307E+01 0.391E+01 0.734E+02   0.291E+01 -.379E+01 -.724E+02   0.270E-02 -.168E-02 -.261E-02   0.750E-03 -.250E-03 -.215E-02
   0.125E+02 -.324E+01 0.760E+02   -.124E+02 0.327E+01 -.750E+02   0.102E-03 -.179E-02 -.563E-02   0.526E-03 0.168E-05 -.191E-02
   0.209E+00 0.211E+02 -.419E+03   -.796E+00 -.185E+02 0.408E+03   0.860E+00 -.176E+01 0.104E+02   -.534E-02 -.465E-02 -.130E-01
   -.811E+01 -.390E+02 -.316E+03   0.143E+02 0.502E+02 0.321E+03   -.564E+01 -.997E+01 -.365E+01   -.138E-01 -.873E-02 -.157E-01
   -.341E+02 -.981E+02 -.305E+03   0.341E+02 0.981E+02 0.306E+03   0.779E+00 0.154E+01 -.548E-01   -.434E-01 0.218E-02 -.139E-01
   -.536E+03 0.859E+02 -.917E+03   0.592E+03 -.881E+02 0.932E+03   -.552E+02 0.363E+01 -.165E+02   -.219E-02 -.100E-01 -.185E-01
   0.246E+03 0.526E+03 -.876E+03   -.271E+03 -.575E+03 0.889E+03   0.253E+02 0.493E+02 -.135E+02   -.460E-02 -.578E-02 -.296E-01
   0.247E+03 -.358E+03 -.104E+04   -.272E+03 0.401E+03 0.107E+04   0.252E+02 -.414E+02 -.309E+02   -.758E-02 -.133E-02 -.250E-01
   -.212E+03 0.432E+03 -.313E+03   0.237E+03 -.471E+03 0.288E+03   -.238E+02 0.398E+02 0.263E+02   -.120E-01 -.225E-01 -.367E-01
   0.562E+03 0.425E+02 -.441E+03   -.614E+03 -.418E+02 0.429E+03   0.519E+02 0.164E+01 0.130E+02   -.127E-01 -.498E-02 -.341E-01
   -.450E+03 -.153E+03 -.430E+03   0.502E+03 0.154E+03 0.424E+03   -.502E+02 0.305E+00 0.790E+01   0.230E-03 0.199E-02 -.304E-01
   0.189E+03 -.449E+03 -.465E+03   -.222E+03 0.491E+03 0.463E+03   0.324E+02 -.391E+02 0.395E+01   -.270E-01 0.122E-01 -.288E-01
 -----------------------------------------------------------------------------------------------
   -.135E+01 -.396E+01 0.346E+01   -.568E-13 0.000E+00 -.460E-11   0.148E+01 0.400E+01 -.303E+01   -.128E+00 -.418E-01 -.416E+00
 
 
 POSITION                                       TOTAL-FORCE (eV/Angst)
 -----------------------------------------------------------------------------------
      1.25608     -0.72517     17.55765        -0.000030      0.000037      0.000363
      2.51222      1.45046     17.55638        -0.000212     -0.000108      0.001399
      3.76838      3.62597     17.55505        -0.000212      0.000160      0.000901
      5.02439      5.80159     17.55670        -0.000135      0.000165     -0.000202
      6.28046      7.97726     17.55785        -0.000034      0.000062     -0.000031
      7.53655     10.15292     17.55798        -0.000072     -0.000048      0.000297
      2.51218     -2.90084     17.55786        -0.000009      0.000029      0.000556
      3.76825     -0.72516     17.55591        -0.000248      0.000065      0.003234
      5.02451      1.45058     17.55301        -0.000522      0.000022      0.004468
      6.28043      3.62591     17.55424        -0.000038      0.000135      0.001599
      7.53651      5.80159     17.55708         0.000174      0.000179     -0.000457
      8.79263      7.97726     17.55810        -0.000005      0.000050     -0.000096
      3.76827     -5.07647     17.55810         0.000026      0.000017      0.000208
      5.02438     -2.90081     17.55734        -0.000075     -0.000052      0.001673
      6.28056     -0.72501     17.55435        -0.000238     -0.000470      0.003933
      7.53639      1.45038     17.55412         0.000085     -0.000080      0.002994
      8.79253      3.62594     17.55610         0.000231      0.000169      0.000342
     10.04869      5.80162     17.55779         0.000068     -0.000005     -0.000365
      5.02435     -7.25210     17.55789        -0.000005      0.000013      0.000334
      6.28047     -5.07645     17.55791        -0.000082     -0.000055      0.000267
      7.53656     -2.90073     17.55692        -0.000093     -0.000141      0.001062
      8.79257     -0.72510     17.55591        -0.000024     -0.000107      0.001428
     10.04860      1.45039     17.55647         0.000133      0.000066      0.000110
     11.30477      3.62600     17.55757         0.000101      0.000142     -0.000272
      6.28046     -9.42773     17.55788        -0.000033      0.000086      0.000113
      7.53658     -7.25209     17.55786        -0.000086     -0.000009      0.000032
      8.79265     -5.07643     17.55800        -0.000009     -0.000012     -0.000253
     10.04871     -2.90078     17.55756         0.000037     -0.000061     -0.000126
     11.30477     -0.72519     17.55750         0.000049      0.000024     -0.000238
     12.56087      1.45040     17.55790         0.000002      0.000041     -0.000292
      7.53656    -11.60333     17.55786        -0.000011      0.000002     -0.000170
      8.79270     -9.42774     17.55725        -0.000199      0.000120     -0.000062
     10.04879     -7.25211     17.55748        -0.000166      0.000070     -0.000343
     11.30483     -5.07646     17.55796        -0.000003      0.000026     -0.000257
     12.56090     -2.90083     17.55790         0.000025     -0.000006      0.000284
     13.81700     -0.72520     17.55803        -0.000042     -0.000014      0.000022
      1.25610      0.72521     17.55723         0.000024      0.000084      0.000125
      2.51219      2.90082     17.55582         0.000170      0.000129      0.000570
      3.76827      5.07646     17.55620         0.000116     -0.000198     -0.000165
      5.02437      7.25207     17.55755        -0.000050     -0.000018     -0.000344
      6.28046      9.42770     17.55782        -0.000033     -0.000017      0.000473
      7.53655     11.60333     17.55786        -0.000062     -0.000046      0.000133
      2.51218     -1.45042     17.55716         0.000012      0.000018      0.000931
      3.76830      0.72520     17.55473         0.000469      0.000186      0.002958
      5.02435      2.90090     17.55174         0.000313     -0.000172      0.002327
      6.28046      5.07644     17.55572        -0.000088     -0.000215     -0.000042
      7.53655      7.25207     17.55776        -0.000033     -0.000012     -0.000363
      8.79264      9.42770     17.55795        -0.000048     -0.000076      0.000207
      3.76828     -3.62603     17.55781        -0.000040     -0.000033      0.000661
      5.02435     -1.45036     17.55576         0.000162      0.000155      0.003213
      6.28031      0.72519     17.55128         0.000214      0.000102      0.004029
      7.53653      2.90079     17.55376        -0.000264     -0.000153      0.001842
      8.79263      5.07643     17.55693        -0.000101     -0.000081     -0.000620
     10.04874      7.25207     17.55804        -0.000087     -0.000042     -0.000118
      5.02437     -5.80167     17.55786        -0.000003     -0.000132      0.000266
      6.28045     -3.62602     17.55737         0.000020      0.000088      0.000858
      7.53653     -1.45040     17.55502        -0.000123      0.000221      0.002408
      8.79257      0.72523     17.55465        -0.000280      0.000101      0.001501
     10.04872      2.90082     17.55655        -0.000108     -0.000074     -0.000413
     11.30482      5.07645     17.55770        -0.000005      0.000003     -0.000044
      6.28046     -7.97729     17.55770        -0.000025     -0.000012      0.000460
      7.53655     -5.80166     17.55788         0.000000     -0.000059     -0.000063
      8.79263     -3.62603     17.55744        -0.000000     -0.000010     -0.000112
     10.04871     -1.45040     17.55683        -0.000048      0.000008     -0.000116
     11.30480      0.72521     17.55727        -0.000090     -0.000030     -0.000498
     12.56091      2.90082     17.55777        -0.000023     -0.000011     -0.000060
      7.53655    -10.15292     17.55764        -0.000023     -0.000003     -0.000212
      8.79265     -7.97729     17.55745         0.000021     -0.000064     -0.000333
     10.04873     -5.80166     17.55793         0.000033     -0.000015     -0.000397
     11.30482     -3.62603     17.55782        -0.000031     -0.000006     -0.000026
     12.56091     -1.45041     17.55778        -0.000028     -0.000053      0.000078
     13.81700      0.72521     17.55799        -0.000026     -0.000048     -0.000176
      5.17114     -0.76798     23.63552        -0.003427     -0.005283     -0.018660
      5.05474     -0.47885     22.13165        -0.004616     -0.007036     -0.004913
      5.67038      0.88077     21.69699         0.001771      0.005592     -0.003696
      6.45679     -0.85061     24.01360         0.001826      0.003900     -0.005045
      4.57108     -1.93297     23.94489         0.005012     -0.000314      0.009912
      4.58107      0.20706     24.34917        -0.002785      0.002254     -0.008092
      5.66056     -1.52208     21.48526         0.004736      0.004896     -0.006610
      3.72352     -0.54372     21.82958        -0.002330      0.007422     -0.005325
      6.90265      0.86746     21.51087         0.008925     -0.008287     -0.001505
      4.87480      1.83465     21.60668        -0.007392     -0.003171      0.002542
 -----------------------------------------------------------------------------------
    total drift:                               -0.000636     -0.000040      0.011452


--------------------------------------------------------------------------------------------------------



  FREE ENERGIE OF THE ION-ELECTRON SYSTEM (eV)
  ---------------------------------------------------
  free  energy   TOTEN  =      -779.42022742 eV

  energy  without entropy=     -779.38998216  energy(sigma->0) =     -779.40510479
 


--------------------------------------------------------------------------------------------------------


    POTLOK:  cpu time   86.6981: real time   87.1192


--------------------------------------------------------------------------------------------------------




--------------------------------------------------------------------------------------------------------


  
 reached required accuracy - stopping structural energy minimisation
 writing wavefunctions
     LOOP+:  cpu time39470.0337: real time31314.4404
    4ORBIT:  cpu time    0.0000: real time    0.0000
 


 total charge     
 
# of ion       s       p       d       tot
------------------------------------------
    1        0.744   1.392   0.000   2.136
    2        0.744   1.392   0.000   2.136
    3        0.744   1.392   0.000   2.136
    4        0.744   1.392   0.000   2.136
    5        0.744   1.392   0.000   2.136
    6        0.744   1.392   0.000   2.136
    7        0.744   1.392   0.000   2.136
    8        0.744   1.393   0.000   2.136
    9        0.744   1.392   0.000   2.136
   10        0.744   1.392   0.000   2.136
   11        0.744   1.392   0.000   2.136
   12        0.744   1.392   0.000   2.136
   13        0.744   1.392   0.000   2.136
   14        0.744   1.392   0.000   2.136
   15        0.744   1.392   0.000   2.136
   16        0.744   1.392   0.000   2.136
   17        0.744   1.392   0.000   2.136
   18        0.744   1.392   0.000   2.136
   19        0.744   1.392   0.000   2.136
   20        0.744   1.392   0.000   2.136
   21        0.744   1.392   0.000   2.136
   22        0.744   1.392   0.000   2.136
   23        0.744   1.392   0.000   2.136
   24        0.744   1.392   0.000   2.136
   25        0.744   1.392   0.000   2.136
   26        0.744   1.392   0.000   2.136
   27        0.744   1.392   0.000   2.136
   28        0.744   1.392   0.000   2.136
   29        0.744   1.392   0.000   2.136
   30        0.744   1.392   0.000   2.136
   31        0.744   1.392   0.000   2.136
   32        0.744   1.392   0.000   2.136
   33        0.744   1.392   0.000   2.136
   34        0.744   1.392   0.000   2.136
   35        0.744   1.392   0.000   2.136
   36        0.744   1.392   0.000   2.136
   37        1.239   2.818   0.000   4.057
   38        1.239   2.818   0.000   4.057
   39        1.239   2.818   0.000   4.057
   40        1.239   2.818   0.000   4.057
   41        1.239   2.818   0.000   4.057
   42        1.239   2.818   0.000   4.057
   43        1.239   2.818   0.000   4.057
   44        1.239   2.818   0.000   4.057
   45        1.239   2.818   0.000   4.057
   46        1.239   2.818   0.000   4.057
   47        1.239   2.818   0.000   4.057
   48        1.239   2.818   0.000   4.057
   49        1.239   2.818   0.000   4.057
   50        1.239   2.818   0.000   4.057
   51        1.239   2.818   0.000   4.057
   52        1.239   2.818   0.000   4.057
   53        1.239   2.818   0.000   4.057
   54        1.239   2.818   0.000   4.057
   55        1.239   2.818   0.000   4.057
   56        1.239   2.818   0.000   4.057
   57        1.239   2.818   0.000   4.057
   58        1.239   2.818   0.000   4.057
   59        1.239   2.818   0.000   4.057
   60        1.239   2.818   0.000   4.057
   61        1.239   2.818   0.000   4.057
   62        1.239   2.818   0.000   4.057
   63        1.239   2.818   0.000   4.057
   64        1.239   2.818   0.000   4.057
   65        1.239   2.818   0.000   4.057
   66        1.239   2.818   0.000   4.057
   67        1.239   2.818   0.000   4.057
   68        1.239   2.818   0.000   4.057
   69        1.239   2.818   0.000   4.057
   70        1.239   2.818   0.000   4.057
   71        1.239   2.818   0.000   4.057
   72        1.239   2.818   0.000   4.057
   73        0.820   1.559   0.000   2.378
   74        0.837   1.591   0.000   2.428
   75        0.876   1.724   0.000   2.600
   76        1.758   4.414   0.000   6.172
   77        1.757   4.412   0.000   6.170
   78        1.758   4.413   0.000   6.171
   79        1.755   4.402   0.000   6.157
   80        1.755   4.404   0.000   6.159
   81        1.590   3.573   0.000   5.163
   82        1.590   3.572   0.000   5.162
--------------------------------------------------
tot         85.874 185.646   0.000 271.520
 


 magnetization (x)
 
# of ion       s       p       d       tot
------------------------------------------
    1        0.000   0.000   0.000   0.000
    2        0.000   0.000   0.000   0.000
    3        0.000   0.000   0.000   0.000
    4        0.000   0.000   0.000   0.000
    5        0.000   0.000   0.000   0.000
    6        0.000   0.000   0.000   0.000
    7        0.000   0.000   0.000   0.000
    8        0.000   0.000   0.000   0.000
    9        0.000   0.000   0.000   0.000
   10        0.000   0.000   0.000   0.000
   11        0.000   0.000   0.000   0.000
   12        0.000   0.000   0.000   0.000
   13        0.000   0.000   0.000   0.000
   14        0.000   0.000   0.000   0.000
   15        0.000   0.000   0.000   0.000
   16        0.000   0.000   0.000   0.000
   17        0.000   0.000   0.000   0.000
   18        0.000   0.000   0.000   0.000
   19        0.000   0.000   0.000   0.000
   20        0.000   0.000   0.000   0.000
   21        0.000   0.000   0.000   0.000
   22        0.000   0.000   0.000   0.000
   23        0.000   0.000   0.000   0.000
   24        0.000   0.000   0.000   0.000
   25        0.000   0.000   0.000   0.000
   26        0.000   0.000   0.000   0.000
   27        0.000   0.000   0.000   0.000
   28        0.000   0.000   0.000   0.000
   29        0.000   0.000   0.000   0.000
   30        0.000   0.000   0.000   0.000
   31        0.000   0.000   0.000   0.000
   32        0.000   0.000   0.000   0.000
   33        0.000   0.000   0.000   0.000
   34        0.000   0.000   0.000   0.000
   35        0.000   0.000   0.000   0.000
   36        0.000   0.000   0.000   0.000
   37       -0.000  -0.002   0.000  -0.002
   38       -0.000  -0.002   0.000  -0.002
   39       -0.000  -0.002   0.000  -0.002
   40       -0.000  -0.002   0.000  -0.002
   41       -0.000  -0.002   0.000  -0.002
   42       -0.000  -0.002   0.000  -0.002
   43       -0.000  -0.002   0.000  -0.002
   44       -0.000  -0.002   0.000  -0.002
   45       -0.000  -0.002   0.000  -0.002
   46       -0.000  -0.002   0.000  -0.002
   47       -0.000  -0.002   0.000  -0.002
   48       -0.000  -0.002   0.000  -0.002
   49       -0.000  -0.002   0.000  -0.002
   50       -0.000  -0.002   0.000  -0.002
   51       -0.000  -0.002   0.000  -0.002
   52       -0.000  -0.002   0.000  -0.002
   53       -0.000  -0.002   0.000  -0.002
   54       -0.000  -0.002   0.000  -0.002
   55       -0.000  -0.002   0.000  -0.002
   56       -0.000  -0.002   0.000  -0.002
   57       -0.000  -0.002   0.000  -0.002
   58       -0.000  -0.002   0.000  -0.002
   59       -0.000  -0.002   0.000  -0.002
   60       -0.000  -0.002   0.000  -0.002
   61       -0.000  -0.002   0.000  -0.002
   62       -0.000  -0.002   0.000  -0.002
   63       -0.000  -0.002   0.000  -0.002
   64       -0.000  -0.002   0.000  -0.002
   65       -0.000  -0.002   0.000  -0.002
   66       -0.000  -0.002   0.000  -0.002
   67       -0.000  -0.002   0.000  -0.002
   68       -0.000  -0.002   0.000  -0.002
   69       -0.000  -0.002   0.000  -0.002
   70       -0.000  -0.002   0.000  -0.002
   71       -0.000  -0.002   0.000  -0.002
   72       -0.000  -0.002   0.000  -0.002
   73       -0.000  -0.000   0.000  -0.000
   74       -0.000  -0.001   0.000  -0.001
   75       -0.001  -0.005   0.000  -0.006
   76        0.000   0.000   0.000   0.000
   77       -0.000  -0.000   0.000  -0.000
   78        0.000   0.000   0.000   0.000
   79        0.000   0.001   0.000   0.001
   80        0.000   0.002   0.000   0.002
   81        0.001   0.070   0.000   0.070
   82        0.001   0.067   0.000   0.068
--------------------------------------------------
tot          0.000   0.078   0.000   0.078
 

 total amount of memory used by VASP MPI-rank0  1757882. kBytes
=======================================================================

   base      :      30000. kBytes
   nonlr-proj:      37394. kBytes
   fftplans  :     102830. kBytes
   grid      :     872370. kBytes
   one-center:        503. kBytes
   wavefun   :     714785. kBytes
 
  
  
 General timing and accounting informations for this job:
 ========================================================
  
                  Total CPU time used (sec):    39917.777
                            User time (sec):    38950.794
                          System time (sec):      966.985
                         Elapsed time (sec):    31585.651
  
                   Maximum memory used (kb):     3586660.
                   Average memory used (kb):           0.
  
                          Minor page faults:    150723791
                          Major page faults:           28
                 Voluntary context switches:       287404
