Job started on bc10u15n4 at Wed Dec 16 13:52:20 CST 2020
SLURM_JOBID=2241950
SLURM_JOB_NODELIST=bc10u15n4,bc10u17n[1-3]
 running on   96 total cores
 distrk:  each k-point on   96 cores,    1 groups
 distr:  one band on    1 cores,   96 groups
 using from now: INCAR     
 vasp.5.4.4.18Apr17-6-g9f103f2a35 (build Jun 11 2020 13:42:08) complex          
  
 POSCAR found type information on POSCAR  B  N  C  F  O 
 POSCAR found :  5 types and      82 ions
 scaLAPACK will be used

 ----------------------------------------------------------------------------- 
|                                                                             |
|           W    W    AA    RRRRR   N    N  II  N    N   GGGG   !!!           |
|           W    W   A  A   R    R  NN   N  II  NN   N  G    G  !!!           |
|           W    W  A    A  R    R  N N  N  II  N N  N  G       !!!           |
|           W WW W  AAAAAA  RRRRR   N  N N  II  N  N N  G  GGG   !            |
|           WW  WW  A    A  R   R   N   NN  II  N   NN  G    G                |
|           W    W  A    A  R    R  N    N  II  N    N   GGGG   !!!           |
|                                                                             |
|      For optimal performance we recommend to set                            |
|        NCORE= 4 - approx SQRT( number of cores)                             |
|      NCORE specifies how many cores store one orbital (NPAR=cpu/NCORE).     |
|      This setting can  greatly improve the performance of VASP for DFT.     |
|      The default,   NCORE=1            might be grossly inefficient         |
|      on modern multi-core architectures or massively parallel machines.     |
|      Do your own testing !!!!                                               |
|      Unfortunately you need to use the default for GW and RPA calculations. |
|      (for HF NCORE is supported but not extensively tested yet)             |
|                                                                             |
 ----------------------------------------------------------------------------- 

 LDA part: xc-table for Pade appr. of Perdew
 POSCAR found type information on POSCAR  B  N  C  F  O 
 POSCAR found :  5 types and      82 ions
 POSCAR, INCAR and KPOINTS ok, starting setup
 FFT: planning ...
 WAVECAR not read
 WARNING: random wavefunctions but no delay for mixing, default for NELMDL
 entering main loop
       N       E                     dE             d eps       ncg     rms          rms(c)
SOL:   1  -0.12465E+00    0.00000E+00   -0.12465E+00   114
DAV:   1     0.285016972093E+04    0.28502E+04   -0.12505E+05  6720   0.864E+02
DAV:   2    -0.325031797943E+03   -0.31752E+04   -0.30788E+04  9600   0.193E+02
DAV:   3    -0.883749076896E+03   -0.55872E+03   -0.55490E+03  7392   0.987E+01
DAV:   4    -0.900124739337E+03   -0.16376E+02   -0.16335E+02  7488   0.218E+01
DAV:   5    -0.900468918075E+03   -0.34418E+00   -0.34408E+00  8448   0.273E+00BRMIX: very serious problems
 the old and the new charge density differ
 old charge density:   347.00000 new  345.89997
    0.661E+01
SOL:   2   0.96729E+00    0.00000E+00    0.96729E+00   106
RMM:   6    -0.660066921501E+03    0.24040E+03   -0.27725E+02  5760   0.247E+01    0.333E+01
SOL:   3   0.43321E+00    0.00000E+00    0.43321E+00   104
RMM:   7    -0.702025522187E+03   -0.41959E+02   -0.70480E+01  5760   0.148E+01    0.237E+01
SOL:   4   0.10825E+00    0.00000E+00    0.10825E+00   102
RMM:   8    -0.706038849921E+03   -0.40133E+01   -0.12966E+01  5760   0.760E+00    0.181E+01
SOL:   5  -0.41585E+00    0.00000E+00   -0.41585E+00   104
RMM:   9    -0.733069576351E+03   -0.27031E+02   -0.15106E+01  5760   0.733E+00    0.121E+01
SOL:   6  -0.95681E+00    0.00000E+00   -0.95681E+00   104
RMM:  10    -0.763825455483E+03   -0.30756E+02   -0.15573E+01  5760   0.604E+00    0.124E+01
SOL:   7  -0.89994E+00    0.00000E+00   -0.89994E+00   100
RMM:  11    -0.767602006314E+03   -0.37766E+01   -0.18562E+00  5760   0.230E+00    0.944E+00
SOL:   8  -0.10567E+01    0.00000E+00   -0.10567E+01   103
RMM:  12    -0.786053205146E+03   -0.18451E+02   -0.14473E+01  5760   0.546E+00    0.756E+00
SOL:   9  -0.13740E+01    0.00000E+00   -0.13740E+01   101
RMM:  13    -0.794883463631E+03   -0.88303E+01   -0.85415E+00  5760   0.396E+00    0.558E+00
SOL:  10  -0.15600E+01    0.00000E+00   -0.15600E+01   100
RMM:  14    -0.795655949906E+03   -0.77249E+00   -0.19769E+00  5760   0.230E+00    0.730E+00
SOL:  11  -0.14179E+01    0.00000E+00   -0.14179E+01   100
RMM:  15    -0.791937433359E+03    0.37185E+01   -0.98354E-01  5760   0.229E+00    0.553E+00
SOL:  12  -0.10892E+01    0.00000E+00   -0.10892E+01   101
RMM:  16    -0.788746434281E+03    0.31910E+01   -0.17575E+00  5760   0.203E+00    0.514E+00
SOL:  13  -0.10548E+01    0.00000E+00   -0.10548E+01    99
RMM:  17    -0.785976172957E+03    0.27703E+01   -0.49155E-01  5760   0.178E+00    0.454E+00
SOL:  14  -0.10599E+01    0.00000E+00   -0.10599E+01    97
RMM:  18    -0.782019652000E+03    0.39565E+01   -0.33212E-01  5760   0.113E+00    0.356E+00
SOL:  15  -0.11336E+01    0.00000E+00   -0.11336E+01    97
RMM:  19    -0.779917363760E+03    0.21023E+01   -0.20873E-01  5760   0.774E-01    0.178E+00
SOL:  16  -0.12364E+01    0.00000E+00   -0.12364E+01    98
RMM:  20    -0.777528345095E+03    0.23890E+01   -0.28892E-01  5760   0.994E-01    0.562E+00
SOL:  17  -0.11377E+01    0.00000E+00   -0.11377E+01    97
RMM:  21    -0.775329368909E+03    0.21990E+01   -0.26523E-01  5760   0.115E+00    0.328E+00
SOL:  18  -0.11069E+01    0.00000E+00   -0.11069E+01    92
RMM:  22    -0.775147163280E+03    0.18221E+00   -0.23647E-01  6195   0.938E-01    0.242E+00
SOL:  19  -0.10537E+01    0.00000E+00   -0.10537E+01    94
RMM:  23    -0.774215176666E+03    0.93199E+00   -0.26446E-01  5924   0.871E-01    0.122E+00
SOL:  20  -0.10139E+01    0.00000E+00   -0.10139E+01    93
RMM:  24    -0.773432735730E+03    0.78244E+00   -0.16662E-01  6804   0.813E-01    0.122E+00
SOL:  21  -0.95853E+00    0.00000E+00   -0.95853E+00    91
RMM:  25    -0.772728589005E+03    0.70415E+00   -0.91428E-02  6969   0.721E-01    0.138E+00
SOL:  22  -0.89927E+00    0.00000E+00   -0.89927E+00    90
RMM:  26    -0.772234231258E+03    0.49436E+00   -0.85092E-02  7253   0.836E-01    0.127E+00
SOL:  23  -0.86326E+00    0.00000E+00   -0.86326E+00    88
RMM:  27    -0.772097353878E+03    0.13688E+00   -0.57176E-02  7295   0.708E-01    0.877E-01
SOL:  24  -0.83417E+00    0.00000E+00   -0.83417E+00    87
RMM:  28    -0.772019999946E+03    0.77354E-01   -0.30875E-02  5794   0.599E-01    0.672E-01
SOL:  25  -0.80088E+00    0.00000E+00   -0.80088E+00    88
RMM:  29    -0.771971803476E+03    0.48196E-01   -0.18590E-02  5853   0.441E-01    0.552E-01
SOL:  26  -0.76541E+00    0.00000E+00   -0.76541E+00    88
RMM:  30    -0.771944895605E+03    0.26908E-01   -0.17587E-02  5763   0.477E-01    0.441E-01
SOL:  27  -0.74641E+00    0.00000E+00   -0.74641E+00    86
RMM:  31    -0.771944824092E+03    0.71513E-04   -0.43600E-03  5767   0.214E-01    0.319E-01
SOL:  28  -0.73260E+00    0.00000E+00   -0.73260E+00    84
RMM:  32    -0.771942917629E+03    0.19065E-02   -0.29466E-03  5760   0.120E-01    0.714E-01
SOL:  29  -0.73585E+00    0.00000E+00   -0.73585E+00    84
RMM:  33    -0.771945825733E+03   -0.29081E-02   -0.99729E-03  5760   0.181E-01    0.992E-01
SOL:  30  -0.73362E+00    0.00000E+00   -0.73362E+00    81
RMM:  34    -0.771945429175E+03    0.39656E-03   -0.31010E-03  5760   0.124E-01    0.121E+00
SOL:  31  -0.73555E+00    0.00000E+00   -0.73555E+00    80
RMM:  35    -0.771944222629E+03    0.12065E-02   -0.10349E-03  5765   0.752E-02    0.120E+00
SOL:  32  -0.74240E+00    0.00000E+00   -0.74240E+00    84
RMM:  36    -0.771942557408E+03    0.16652E-02   -0.17147E-03  5760   0.933E-02    0.899E-01
SOL:  33  -0.76070E+00    0.00000E+00   -0.76070E+00    88
RMM:  37    -0.771941508990E+03    0.10484E-02   -0.74186E-03  5760   0.166E-01    0.164E-01
SOL:  34  -0.77035E+00    0.00000E+00   -0.77035E+00    87
RMM:  38    -0.771940378906E+03    0.11301E-02   -0.13016E-02  5760   0.198E-01    0.962E-02
SOL:  35  -0.77570E+00    0.00000E+00   -0.77570E+00    82
RMM:  39    -0.771939995784E+03    0.38312E-03   -0.14006E-03  5765   0.795E-02    0.134E-01
SOL:  36  -0.77919E+00    0.00000E+00   -0.77919E+00    80
RMM:  40    -0.771939459257E+03    0.53653E-03   -0.53228E-04  5770   0.536E-02    0.132E-01
SOL:  37  -0.79006E+00    0.00000E+00   -0.79006E+00    84
RMM:  41    -0.771937914489E+03    0.15448E-02   -0.99264E-04  5760   0.632E-02    0.276E-01
SOL:  38  -0.80071E+00    0.00000E+00   -0.80071E+00    85
RMM:  42    -0.771936480742E+03    0.14337E-02   -0.18538E-03  5760   0.909E-02    0.492E-01
SOL:  39  -0.79554E+00    0.00000E+00   -0.79554E+00    81
RMM:  43    -0.771934451370E+03    0.20294E-02   -0.12500E-03  5760   0.845E-02    0.383E-01
SOL:  40  -0.78830E+00    0.00000E+00   -0.78830E+00    82
RMM:  44    -0.771934446518E+03    0.48519E-05   -0.66921E-04  5760   0.623E-02    0.194E-01
SOL:  41  -0.78424E+00    0.00000E+00   -0.78424E+00    80
RMM:  45    -0.771935777688E+03   -0.13312E-02   -0.78070E-04  5724   0.663E-02    0.113E-01
SOL:  42  -0.78222E+00    0.00000E+00   -0.78222E+00    76
RMM:  46    -0.771936576084E+03   -0.79840E-03   -0.33190E-04  5721   0.499E-02    0.123E-01
SOL:  43  -0.78000E+00    0.00000E+00   -0.78000E+00    75
RMM:  47    -0.771936839723E+03   -0.26364E-03   -0.12664E-04  4900   0.346E-02    0.848E-02
SOL:  44  -0.77824E+00    0.00000E+00   -0.77824E+00    75
RMM:  48    -0.771936978326E+03   -0.13860E-03   -0.13450E-04  4718   0.331E-02    0.489E-02
SOL:  45  -0.77672E+00    0.00000E+00   -0.77672E+00    74
RMM:  49    -0.771937248272E+03   -0.26995E-03   -0.12104E-04  4697   0.314E-02    0.256E-02
SOL:  46  -0.77568E+00    0.00000E+00   -0.77568E+00    73
RMM:  50    -0.771937308625E+03   -0.60353E-04   -0.79892E-05  4676   0.255E-02    0.105E-02
SOL:  47  -0.77498E+00    0.00000E+00   -0.77498E+00    71
RMM:  51    -0.771937329660E+03   -0.21035E-04   -0.60741E-05  4654   0.235E-02    0.250E-03
SOL:  48  -0.77478E+00    0.00000E+00   -0.77478E+00    66
RMM:  52    -0.771937415357E+03   -0.85697E-04   -0.47848E-05  4630   0.212E-02    0.156E-03
SOL:  49  -0.77448E+00    0.00000E+00   -0.77448E+00    67
RMM:  53    -0.771937395570E+03    0.19788E-04   -0.36847E-05  4610   0.192E-02    0.260E-03
SOL:  50  -0.77432E+00    0.00000E+00   -0.77432E+00    65
RMM:  54    -0.771937428880E+03   -0.33310E-04   -0.34089E-05  4595   0.185E-02    0.472E-03
SOL:  51  -0.77426E+00    0.00000E+00   -0.77426E+00    60
RMM:  55    -0.771937457702E+03   -0.28822E-04   -0.31891E-05  4590   0.179E-02    0.484E-03
SOL:  52  -0.77427E+00    0.00000E+00   -0.77427E+00    57
RMM:  56    -0.771937427172E+03    0.30530E-04   -0.30607E-05  4590   0.178E-02    0.416E-03
SOL:  53  -0.77427E+00    0.00000E+00   -0.77427E+00    57
RMM:  57    -0.771937478147E+03   -0.50975E-04   -0.36427E-05  4595   0.192E-02    0.355E-03
SOL:  54  -0.77426E+00    0.00000E+00   -0.77426E+00    57
RMM:  58    -0.771937431432E+03    0.46715E-04   -0.42918E-05  4594   0.207E-02    0.364E-03
SOL:  55  -0.77427E+00    0.00000E+00   -0.77427E+00    56
RMM:  59    -0.771937480618E+03   -0.49186E-04   -0.50603E-05  4639   0.221E-02    0.296E-03
SOL:  56  -0.77427E+00    0.00000E+00   -0.77427E+00    57
RMM:  60    -0.771937374516E+03    0.10610E-03   -0.61420E-05  4762   0.239E-02    0.379E-03
SOL:  57  -0.77429E+00    0.00000E+00   -0.77429E+00    59
RMM:  61    -0.771937477372E+03   -0.10286E-03   -0.70715E-05  4844   0.256E-02    0.369E-03
SOL:  58  -0.77431E+00    0.00000E+00   -0.77431E+00    59
RMM:  62    -0.771937400604E+03    0.76767E-04   -0.78743E-05  4903   0.270E-02    0.361E-03
SOL:  59  -0.77433E+00    0.00000E+00   -0.77433E+00    58
RMM:  63    -0.771937467581E+03   -0.66976E-04   -0.91216E-05  4939   0.286E-02    0.307E-03
SOL:  60  -0.77435E+00    0.00000E+00   -0.77435E+00    59
RMM:  64    -0.771937396662E+03    0.70919E-04   -0.96319E-05  4943   0.296E-02    0.315E-03
SOL:  61  -0.77436E+00    0.00000E+00   -0.77436E+00    58
RMM:  65    -0.771937467983E+03   -0.71321E-04   -0.10089E-04  4944   0.303E-02    0.266E-03
SOL:  62  -0.77440E+00    0.00000E+00   -0.77440E+00    61
RMM:  66    -0.771937364724E+03    0.10326E-03   -0.10143E-04  4941   0.303E-02    0.226E-03
SOL:  63  -0.77441E+00    0.00000E+00   -0.77441E+00    58
RMM:  67    -0.771937467605E+03   -0.10288E-03   -0.10940E-04  4951   0.312E-02    0.187E-03
SOL:  64  -0.77442E+00    0.00000E+00   -0.77442E+00    58
RMM:  68    -0.771937359571E+03    0.10803E-03   -0.11471E-04  4958   0.321E-02    0.190E-03
SOL:  65  -0.77443E+00    0.00000E+00   -0.77443E+00    57
RMM:  69    -0.771937440794E+03   -0.81223E-04   -0.11183E-04  4948   0.316E-02    0.172E-03
SOL:  66  -0.77443E+00    0.00000E+00   -0.77443E+00    58
RMM:  70    -0.771937379865E+03    0.60929E-04   -0.11099E-04  4953   0.314E-02    0.189E-03
SOL:  67  -0.77445E+00    0.00000E+00   -0.77445E+00    59
RMM:  71    -0.771937450334E+03   -0.70469E-04   -0.11538E-04  4959   0.321E-02    0.129E-03
SOL:  68  -0.77445E+00    0.00000E+00   -0.77445E+00    57
RMM:  72    -0.771937350776E+03    0.99559E-04   -0.11405E-04  4954   0.319E-02    0.168E-03
SOL:  69  -0.77446E+00    0.00000E+00   -0.77446E+00    56
RMM:  73    -0.771937457193E+03   -0.10642E-03   -0.11314E-04  4949   0.315E-02    0.140E-03
SOL:  70  -0.77446E+00    0.00000E+00   -0.77446E+00    57
RMM:  74    -0.771937377457E+03    0.79736E-04   -0.11308E-04  4955   0.316E-02    0.151E-03
SOL:  71  -0.77446E+00    0.00000E+00   -0.77446E+00    56
RMM:  75    -0.771937423553E+03   -0.46096E-04   -0.11281E-04  4954   0.316E-02    0.137E-03
SOL:  72  -0.77451E+00    0.00000E+00   -0.77451E+00    60
RMM:  76    -0.771937381877E+03    0.41676E-04   -0.11579E-04  4956   0.318E-02    0.105E-03
SOL:  73  -0.77451E+00    0.00000E+00   -0.77451E+00    56
RMM:  77    -0.771937423556E+03   -0.41680E-04   -0.11811E-04  4955   0.321E-02    0.985E-04
SOL:  74  -0.77451E+00    0.00000E+00   -0.77451E+00    55
RMM:  78    -0.771937365112E+03    0.58444E-04   -0.11566E-04  4955   0.320E-02    0.113E-03
SOL:  75  -0.77451E+00    0.00000E+00   -0.77451E+00    55
RMM:  79    -0.771937450291E+03   -0.85179E-04   -0.11620E-04  4955   0.320E-02    0.964E-04
SOL:  76  -0.77451E+00    0.00000E+00   -0.77451E+00    56
RMM:  80    -0.771937372945E+03    0.77346E-04   -0.11955E-04  4955   0.324E-02    0.101E-03
SOL:  77  -0.77453E+00    0.00000E+00   -0.77453E+00    59
RMM:  81    -0.771937436518E+03   -0.63573E-04   -0.11778E-04  4950   0.322E-02    0.934E-04
SOL:  78  -0.77453E+00    0.00000E+00   -0.77453E+00    56
RMM:  82    -0.771937379265E+03    0.57253E-04   -0.11383E-04  4945   0.317E-02    0.947E-04
SOL:  79  -0.77453E+00    0.00000E+00   -0.77453E+00    55
RMM:  83    -0.771937447064E+03   -0.67799E-04   -0.11694E-04  4955   0.323E-02    0.971E-04
SOL:  80  -0.77453E+00    0.00000E+00   -0.77453E+00    56
RMM:  84    -0.771937384383E+03    0.62681E-04   -0.11990E-04  4955   0.327E-02    0.936E-04
SOL:  81  -0.77453E+00    0.00000E+00   -0.77453E+00    56
RMM:  85    -0.771937437947E+03   -0.53563E-04   -0.12107E-04  4960   0.328E-02    0.986E-04
SOL:  82  -0.77453E+00    0.00000E+00   -0.77453E+00    56
RMM:  86    -0.771937362935E+03    0.75011E-04   -0.11966E-04  4955   0.325E-02    0.950E-04
SOL:  83  -0.77453E+00    0.00000E+00   -0.77453E+00    55
RMM:  87    -0.771937439609E+03   -0.76674E-04   -0.12065E-04  4960   0.328E-02    0.953E-04
SOL:  84  -0.77453E+00    0.00000E+00   -0.77453E+00    56
RMM:  88    -0.771937382156E+03    0.57453E-04   -0.12406E-04  4950   0.331E-02    0.969E-04
SOL:  85  -0.77453E+00    0.00000E+00   -0.77453E+00    55
RMM:  89    -0.771937446807E+03   -0.64651E-04   -0.12802E-04  4957   0.336E-02    0.100E-03
SOL:  86  -0.77453E+00    0.00000E+00   -0.77453E+00    57
RMM:  90    -0.771937335652E+03    0.11115E-03   -0.12444E-04  4947   0.330E-02    0.943E-04
SOL:  87  -0.77453E+00    0.00000E+00   -0.77453E+00    55
RMM:  91    -0.771937441079E+03   -0.10543E-03   -0.12392E-04  4957   0.330E-02    0.979E-04
SOL:  88  -0.77453E+00    0.00000E+00   -0.77453E+00    56
RMM:  92    -0.771937365075E+03    0.76004E-04   -0.12951E-04  4957   0.337E-02    0.988E-04
SOL:  89  -0.77453E+00    0.00000E+00   -0.77453E+00    56
RMM:  93    -0.771937450790E+03   -0.85715E-04   -0.12946E-04  4964   0.338E-02    0.994E-04
SOL:  90  -0.77453E+00    0.00000E+00   -0.77453E+00    56
RMM:  94    -0.771937361931E+03    0.88859E-04   -0.12647E-04  4959   0.336E-02    0.956E-04
SOL:  91  -0.77453E+00    0.00000E+00   -0.77453E+00    56
RMM:  95    -0.771937395774E+03   -0.33842E-04   -0.12732E-04  4964   0.337E-02    0.986E-04
SOL:  92  -0.77453E+00    0.00000E+00   -0.77453E+00    57
RMM:  96    -0.771937351950E+03    0.43823E-04   -0.13213E-04  4965   0.342E-02    0.954E-04
SOL:  93  -0.77453E+00    0.00000E+00   -0.77453E+00    57
RMM:  97    -0.771937427088E+03   -0.75138E-04   -0.13375E-04  4966   0.341E-02    0.102E-03
SOL:  94  -0.77453E+00    0.00000E+00   -0.77453E+00    56
RMM:  98    -0.771937351765E+03    0.75324E-04   -0.12826E-04  4966   0.335E-02    0.949E-04
SOL:  95  -0.77453E+00    0.00000E+00   -0.77453E+00    56
RMM:  99    -0.771937407319E+03   -0.55555E-04   -0.12824E-04  4966   0.336E-02    0.100E-03
SOL:  96  -0.77453E+00    0.00000E+00   -0.77453E+00    56
RMM: 100    -0.771937358613E+03    0.48706E-04   -0.13262E-04  4966   0.339E-02
SOL:  97  -0.77454E+00    0.00000E+00   -0.77454E+00    57
   1 F= -.77193736E+03 E0= -.77192285E+03  d E =-.290184E-01  mag=    -0.0527
 Finite differences POTIM= 0.02000 DOF=  12
 bond charge predicted
       N       E                     dE             d eps       ncg     rms          rms(c)
SOL:  98  -0.77462E+00    0.00000E+00   -0.77462E+00    84
DAV:   1    -0.771934408237E+03    0.29991E-02   -0.77037E-01  6432   0.640E-01    0.135E+00
SOL:  99  -0.81407E+00    0.00000E+00   -0.81407E+00    94
RMM:   2    -0.771882157569E+03    0.52251E-01   -0.15053E-01  5760   0.461E-01    0.145E+00
SOL: 100  -0.80924E+00    0.00000E+00   -0.80924E+00    89
RMM:   3    -0.771926418014E+03   -0.44260E-01   -0.41551E-02  5760   0.330E-01    0.131E+00
SOL: 101  -0.79672E+00    0.00000E+00   -0.79672E+00    89
RMM:   4    -0.771919605908E+03    0.68121E-02   -0.17512E-02  5760   0.196E-01    0.365E-01
SOL: 102  -0.79361E+00    0.00000E+00   -0.79361E+00    87
RMM:   5    -0.771925612578E+03   -0.60067E-02   -0.12115E-02  5760   0.197E-01    0.739E-01
SOL: 103  -0.80413E+00    0.00000E+00   -0.80413E+00    87
RMM:   6    -0.771924725869E+03    0.88671E-03   -0.12822E-02  5760   0.209E-01    0.749E-02
SOL: 104  -0.80477E+00    0.00000E+00   -0.80477E+00    81
RMM:   7    -0.771926649348E+03   -0.19235E-02   -0.42613E-03  5736   0.124E-01    0.181E-01
SOL: 105  -0.80619E+00    0.00000E+00   -0.80619E+00    81
RMM:   8    -0.771926732407E+03   -0.83060E-04   -0.14776E-03  5631   0.774E-02    0.264E-02
SOL: 106  -0.80809E+00    0.00000E+00   -0.80809E+00    77
RMM:   9    -0.771927044624E+03   -0.31222E-03   -0.46735E-04  5376   0.527E-02    0.498E-02
SOL: 107  -0.81020E+00    0.00000E+00   -0.81020E+00    76
RMM:  10    -0.771927517834E+03   -0.47321E-03   -0.31473E-04  5220   0.448E-02    0.527E-02
SOL: 108  -0.81275E+00    0.00000E+00   -0.81275E+00    76
RMM:  11    -0.771927494534E+03    0.23300E-04   -0.16348E-04  5242   0.393E-02    0.554E-02
SOL: 109  -0.81516E+00    0.00000E+00   -0.81516E+00    77
RMM:  12    -0.771927646583E+03   -0.15205E-03   -0.15119E-04  5403   0.400E-02    0.288E-02
SOL: 110  -0.81738E+00    0.00000E+00   -0.81738E+00    76
RMM:  13    -0.771927694269E+03   -0.47686E-04   -0.15780E-04  5313   0.403E-02    0.815E-03
SOL: 111  -0.81901E+00    0.00000E+00   -0.81901E+00    74
RMM:  14    -0.771927696613E+03   -0.23443E-05   -0.15430E-04  5168   0.401E-02    0.769E-03
SOL: 112  -0.82012E+00    0.00000E+00   -0.82012E+00    72
RMM:  15    -0.771927659285E+03    0.37328E-04   -0.10854E-04  4992   0.346E-02    0.827E-03
SOL: 113  -0.82093E+00    0.00000E+00   -0.82093E+00    70
RMM:  16    -0.771927634195E+03    0.25090E-04   -0.88486E-05  4713   0.317E-02    0.722E-03
SOL: 114  -0.82149E+00    0.00000E+00   -0.82149E+00    68
RMM:  17    -0.771927627638E+03    0.65577E-05   -0.75117E-05  4748   0.296E-02
SOL: 115  -0.82171E+00    0.00000E+00   -0.82171E+00    65
   2 F= -.77192763E+03 E0= -.77191286E+03  d E =-.295341E-01  mag=     0.0005
 Finite differences progress:
  Degree of freedom:   1/ 12
  Displacement:        1/  2
  Total:               1/ 24
 bond charge predicted
       N       E                     dE             d eps       ncg     rms          rms(c)
SOL: 116  -0.82160E+00    0.00000E+00   -0.82160E+00    87
DAV:   1    -0.771935189741E+03   -0.75555E-02   -0.30975E+00  5856   0.124E+00    0.107E+00
SOL: 117  -0.79239E+00    0.00000E+00   -0.79239E+00    93
RMM:   2    -0.771929483598E+03    0.57061E-02   -0.11679E-01  5760   0.415E-01    0.501E-01
SOL: 118  -0.76707E+00    0.00000E+00   -0.76707E+00    90
RMM:   3    -0.771934886794E+03   -0.54032E-02   -0.18437E-02  5760   0.202E-01    0.247E+00
SOL: 119  -0.79046E+00    0.00000E+00   -0.79046E+00    92
RMM:   4    -0.771919533720E+03    0.15353E-01   -0.73522E-02  5760   0.442E-01    0.795E-01
SOL: 120  -0.79581E+00    0.00000E+00   -0.79581E+00    87
RMM:   5    -0.771926138335E+03   -0.66046E-02   -0.28076E-02  5760   0.267E-01    0.710E-01
SOL: 121  -0.78512E+00    0.00000E+00   -0.78512E+00    88
RMM:   6    -0.771927580453E+03   -0.14421E-02   -0.22446E-02  5760   0.289E-01    0.602E-01
SOL: 122  -0.77425E+00    0.00000E+00   -0.77425E+00    85
RMM:   7    -0.771924635344E+03    0.29451E-02   -0.20363E-03  5760   0.848E-02    0.211E-01
SOL: 123  -0.76580E+00    0.00000E+00   -0.76580E+00    84
RMM:   8    -0.771927708972E+03   -0.30736E-02   -0.27714E-03  5760   0.108E-01    0.373E-02
SOL: 124  -0.76111E+00    0.00000E+00   -0.76111E+00    82
RMM:   9    -0.771928900754E+03   -0.11918E-02   -0.11699E-03  5760   0.851E-02    0.926E-02
SOL: 125  -0.75542E+00    0.00000E+00   -0.75542E+00    81
RMM:  10    -0.771929479979E+03   -0.57922E-03   -0.36546E-04  5760   0.569E-02    0.115E-01
SOL: 126  -0.74584E+00    0.00000E+00   -0.74584E+00    84
RMM:  11    -0.771929440053E+03    0.39926E-04   -0.41829E-04  5760   0.616E-02    0.343E-02
SOL: 127  -0.73920E+00    0.00000E+00   -0.73920E+00    81
RMM:  12    -0.771930365192E+03   -0.92514E-03   -0.47156E-04  5760   0.651E-02    0.160E-02
SOL: 128  -0.73494E+00    0.00000E+00   -0.73494E+00    79
RMM:  13    -0.771930429708E+03   -0.64515E-04   -0.24685E-04  5749   0.502E-02    0.176E-02
SOL: 129  -0.73211E+00    0.00000E+00   -0.73211E+00    77
RMM:  14    -0.771930568535E+03   -0.13883E-03   -0.18799E-04  5726   0.461E-02    0.128E-02
SOL: 130  -0.72976E+00    0.00000E+00   -0.72976E+00    76
RMM:  15    -0.771930589335E+03   -0.20800E-04   -0.15120E-04  5662   0.416E-02    0.537E-03
SOL: 131  -0.72908E+00    0.00000E+00   -0.72908E+00    70
RMM:  16    -0.771930625137E+03   -0.35803E-04   -0.11828E-04  5451   0.375E-02    0.571E-03
SOL: 132  -0.72868E+00    0.00000E+00   -0.72868E+00    70
RMM:  17    -0.771930554800E+03    0.70337E-04   -0.88498E-05  4936   0.328E-02    0.449E-03
SOL: 133  -0.72843E+00    0.00000E+00   -0.72843E+00    69
RMM:  18    -0.771930506347E+03    0.48453E-04   -0.83680E-05  4888   0.320E-02    0.271E-03
SOL: 134  -0.72831E+00    0.00000E+00   -0.72831E+00    67
RMM:  19    -0.771930501675E+03    0.46727E-05   -0.71760E-05  4702   0.297E-02
SOL: 135  -0.72830E+00    0.00000E+00   -0.72830E+00    65
   3 F= -.77193050E+03 E0= -.77191637E+03  d E =-.282558E-01  mag=    -0.1098
 Finite differences progress:
  Degree of freedom:   1/ 12
  Displacement:        2/  2
  Total:               2/ 24
 bond charge predicted
       N       E                     dE             d eps       ncg     rms          rms(c)
SOL: 136  -0.72831E+00    0.00000E+00   -0.72831E+00    88
DAV:   1    -0.771975280650E+03   -0.44774E-01   -0.17126E+00  5760   0.854E-01    0.394E+00
SOL: 137  -0.84370E+00    0.00000E+00   -0.84370E+00    99
RMM:   2    -0.771717572340E+03    0.25771E+00   -0.10910E+00  5760   0.109E+00    0.427E+00
SOL: 138  -0.80138E+00    0.00000E+00   -0.80138E+00    96
RMM:   3    -0.771852011637E+03   -0.13444E+00   -0.29489E-01  5760   0.851E-01    0.230E+00
SOL: 139  -0.83353E+00    0.00000E+00   -0.83353E+00    94
RMM:   4    -0.771817470542E+03    0.34541E-01   -0.10742E-01  5760   0.668E-01    0.895E-01
SOL: 140  -0.80574E+00    0.00000E+00   -0.80574E+00    92
RMM:   5    -0.771909531349E+03   -0.92061E-01   -0.10478E-01  5760   0.441E-01    0.105E+00
SOL: 141  -0.78783E+00    0.00000E+00   -0.78783E+00    91
RMM:   6    -0.771929736466E+03   -0.20205E-01   -0.68504E-02  5760   0.353E-01    0.672E-01
SOL: 142  -0.78959E+00    0.00000E+00   -0.78959E+00    86
RMM:   7    -0.771928722035E+03    0.10144E-02   -0.11057E-02  5760   0.167E-01    0.276E-01
SOL: 143  -0.79920E+00    0.00000E+00   -0.79920E+00    85
RMM:   8    -0.771929896125E+03   -0.11741E-02   -0.74950E-03  5760   0.163E-01    0.461E-01
SOL: 144  -0.81235E+00    0.00000E+00   -0.81235E+00    85
RMM:   9    -0.771927375026E+03    0.25211E-02   -0.29991E-03  5760   0.121E-01    0.539E-02
SOL: 145  -0.81741E+00    0.00000E+00   -0.81741E+00    81
RMM:  10    -0.771928426073E+03   -0.10510E-02   -0.23875E-03  5760   0.111E-01    0.382E-02
SOL: 146  -0.82448E+00    0.00000E+00   -0.82448E+00    82
RMM:  11    -0.771930220688E+03   -0.17946E-02   -0.80336E-04  5760   0.799E-02    0.148E-01
SOL: 147  -0.83148E+00    0.00000E+00   -0.83148E+00    80
RMM:  12    -0.771930660933E+03   -0.44024E-03   -0.10881E-03  5760   0.818E-02    0.879E-02
SOL: 148  -0.84011E+00    0.00000E+00   -0.84011E+00    81
RMM:  13    -0.771931790810E+03   -0.11299E-02   -0.55679E-04  5760   0.701E-02    0.677E-02
SOL: 149  -0.84719E+00    0.00000E+00   -0.84719E+00    80
RMM:  14    -0.771931897162E+03   -0.10635E-03   -0.35213E-04  5760   0.581E-02    0.471E-02
SOL: 150  -0.85279E+00    0.00000E+00   -0.85279E+00    79
RMM:  15    -0.771931815206E+03    0.81956E-04   -0.31248E-04  5760   0.588E-02    0.152E-02
SOL: 151  -0.85579E+00    0.00000E+00   -0.85579E+00    76
RMM:  16    -0.771931595807E+03    0.21940E-03   -0.24210E-04  5760   0.538E-02    0.111E-02
SOL: 152  -0.85751E+00    0.00000E+00   -0.85751E+00    73
RMM:  17    -0.771931782419E+03   -0.18661E-03   -0.23442E-04  5757   0.543E-02    0.112E-02
SOL: 153  -0.85872E+00    0.00000E+00   -0.85872E+00    72
RMM:  18    -0.771931522624E+03    0.25979E-03   -0.18326E-04  5749   0.483E-02    0.612E-03
SOL: 154  -0.85897E+00    0.00000E+00   -0.85897E+00    69
RMM:  19    -0.771931533950E+03   -0.11326E-04   -0.15218E-04  5725   0.443E-02    0.454E-03
SOL: 155  -0.85893E+00    0.00000E+00   -0.85893E+00    67
RMM:  20    -0.771931472826E+03    0.61124E-04   -0.12214E-04  5594   0.399E-02    0.488E-03
SOL: 156  -0.85877E+00    0.00000E+00   -0.85877E+00    67
RMM:  21    -0.771931511841E+03   -0.39015E-04   -0.10041E-04  5550   0.368E-02    0.640E-03
SOL: 157  -0.85869E+00    0.00000E+00   -0.85869E+00    66
RMM:  22    -0.771931441579E+03    0.70262E-04   -0.99553E-05  5442   0.366E-02    0.623E-03
SOL: 158  -0.85860E+00    0.00000E+00   -0.85860E+00    65
RMM:  23    -0.771931414229E+03    0.27350E-04   -0.83270E-05  5089   0.332E-02    0.468E-03
SOL: 159  -0.85854E+00    0.00000E+00   -0.85854E+00    62
RMM:  24    -0.771931391036E+03    0.23194E-04   -0.71916E-05  4709   0.296E-02    0.306E-03
SOL: 160  -0.85850E+00    0.00000E+00   -0.85850E+00    61
RMM:  25    -0.771931337511E+03    0.53525E-04   -0.57137E-05  4652   0.258E-02    0.236E-03
SOL: 161  -0.85846E+00    0.00000E+00   -0.85846E+00    60
RMM:  26    -0.771931402282E+03   -0.64771E-04   -0.47305E-05  4602   0.231E-02    0.133E-03
SOL: 162  -0.85839E+00    0.00000E+00   -0.85839E+00    61
RMM:  27    -0.771931349574E+03    0.52708E-04   -0.51236E-05  4604   0.237E-02    0.120E-03
SOL: 163  -0.85832E+00    0.00000E+00   -0.85832E+00    62
RMM:  28    -0.771931338675E+03    0.10899E-04   -0.50666E-05  4602   0.232E-02    0.897E-04
SOL: 164  -0.85826E+00    0.00000E+00   -0.85826E+00    60
RMM:  29    -0.771931362028E+03   -0.23353E-04   -0.47375E-05  4602   0.222E-02    0.857E-04
SOL: 165  -0.85821E+00    0.00000E+00   -0.85821E+00    60
RMM:  30    -0.771931359390E+03    0.26388E-05   -0.50655E-05  4603   0.228E-02
SOL: 166  -0.85819E+00    0.00000E+00   -0.85819E+00    59
   4 F= -.77193136E+03 E0= -.77191642E+03  d E =-.298691E-01  mag=     0.0650
 Finite differences progress:
  Degree of freedom:   2/ 12
  Displacement:        1/  2
  Total:               3/ 24
 bond charge predicted
       N       E                     dE             d eps       ncg     rms          rms(c)
SOL: 167  -0.85851E+00    0.00000E+00   -0.85851E+00    89
DAV:   1    -0.771946625441E+03   -0.15263E-01   -0.32750E+00  5760   0.121E+00    0.116E+00
SOL: 168  -0.82553E+00    0.00000E+00   -0.82553E+00    93
RMM:   2    -0.771940144119E+03    0.64813E-02   -0.11895E-01  5760   0.421E-01    0.545E-01
SOL: 169  -0.79481E+00    0.00000E+00   -0.79481E+00    91
RMM:   3    -0.771923331286E+03    0.16813E-01   -0.23138E-02  5760   0.226E-01    0.796E-01
SOL: 170  -0.80551E+00    0.00000E+00   -0.80551E+00    90
RMM:   4    -0.771929774804E+03   -0.64435E-02   -0.22656E-02  5760   0.225E-01    0.442E-01
SOL: 171  -0.78104E+00    0.00000E+00   -0.78104E+00    89
RMM:   5    -0.771931556390E+03   -0.17816E-02   -0.83659E-03  5760   0.180E-01    0.175E-01
SOL: 172  -0.76021E+00    0.00000E+00   -0.76021E+00    87
RMM:   6    -0.771933196139E+03   -0.16397E-02   -0.22514E-03  5760   0.109E-01    0.420E-01
SOL: 173  -0.75972E+00    0.00000E+00   -0.75972E+00    86
RMM:   7    -0.771933313228E+03   -0.11709E-03   -0.48105E-03  5760   0.141E-01    0.105E-01
SOL: 174  -0.74831E+00    0.00000E+00   -0.74831E+00    84
RMM:   8    -0.771934918318E+03   -0.16051E-02   -0.28008E-03  5760   0.119E-01    0.183E-01
SOL: 175  -0.73812E+00    0.00000E+00   -0.73812E+00    83
RMM:   9    -0.771935520318E+03   -0.60200E-03   -0.97980E-04  5760   0.853E-02    0.107E-01
SOL: 176  -0.72469E+00    0.00000E+00   -0.72469E+00    84
RMM:  10    -0.771936442663E+03   -0.92234E-03   -0.67049E-04  5765   0.773E-02    0.669E-02
SOL: 177  -0.71174E+00    0.00000E+00   -0.71174E+00    84
RMM:  11    -0.771937488829E+03   -0.10462E-02   -0.59755E-04  5760   0.714E-02    0.392E-02
SOL: 178  -0.70467E+00    0.00000E+00   -0.70467E+00    81
RMM:  12    -0.771938012123E+03   -0.52329E-03   -0.40677E-04  5760   0.654E-02    0.189E-02
SOL: 179  -0.69984E+00    0.00000E+00   -0.69984E+00    79
RMM:  13    -0.771937957499E+03    0.54624E-04   -0.38269E-04  5760   0.664E-02    0.122E-02
SOL: 180  -0.69687E+00    0.00000E+00   -0.69687E+00    76
RMM:  14    -0.771938044729E+03   -0.87230E-04   -0.33060E-04  5760   0.645E-02    0.106E-02
SOL: 181  -0.69522E+00    0.00000E+00   -0.69522E+00    74
RMM:  15    -0.771937941723E+03    0.10301E-03   -0.24435E-04  5760   0.577E-02    0.828E-03
SOL: 182  -0.69454E+00    0.00000E+00   -0.69454E+00    71
RMM:  16    -0.771937863968E+03    0.77755E-04   -0.19526E-04  5760   0.528E-02    0.662E-03
SOL: 183  -0.69412E+00    0.00000E+00   -0.69412E+00    71
RMM:  17    -0.771937703052E+03    0.16092E-03   -0.16844E-04  5760   0.490E-02    0.553E-03
SOL: 184  -0.69413E+00    0.00000E+00   -0.69413E+00    71
RMM:  18    -0.771937570258E+03    0.13279E-03   -0.15850E-04  5760   0.479E-02    0.496E-03
SOL: 185  -0.69440E+00    0.00000E+00   -0.69440E+00    70
RMM:  19    -0.771937405707E+03    0.16455E-03   -0.12215E-04  5693   0.403E-02    0.397E-03
SOL: 186  -0.69477E+00    0.00000E+00   -0.69477E+00    69
RMM:  20    -0.771937304621E+03    0.10109E-03   -0.94277E-05  4943   0.344E-02    0.273E-03
SOL: 187  -0.69507E+00    0.00000E+00   -0.69507E+00    67
RMM:  21    -0.771937240831E+03    0.63790E-04   -0.76708E-05  4689   0.304E-02    0.208E-03
SOL: 188  -0.69533E+00    0.00000E+00   -0.69533E+00    66
RMM:  22    -0.771937197494E+03    0.43337E-04   -0.69883E-05  4687   0.285E-02    0.172E-03
SOL: 189  -0.69550E+00    0.00000E+00   -0.69550E+00    65
RMM:  23    -0.771937240275E+03   -0.42780E-04   -0.56547E-05  4666   0.251E-02    0.130E-03
SOL: 190  -0.69560E+00    0.00000E+00   -0.69560E+00    64
RMM:  24    -0.771937228438E+03    0.11837E-04   -0.42724E-05  4625   0.211E-02    0.941E-04
SOL: 191  -0.69563E+00    0.00000E+00   -0.69563E+00    63
RMM:  25    -0.771937273413E+03   -0.44976E-04   -0.32260E-05  4603   0.181E-02    0.714E-04
SOL: 192  -0.69564E+00    0.00000E+00   -0.69564E+00    62
RMM:  26    -0.771937257560E+03    0.15853E-04   -0.28692E-05  4601   0.169E-02    0.766E-04
SOL: 193  -0.69566E+00    0.00000E+00   -0.69566E+00    60
RMM:  27    -0.771937302745E+03   -0.45185E-04   -0.28415E-05  4597   0.166E-02    0.582E-04
SOL: 194  -0.69566E+00    0.00000E+00   -0.69566E+00    59
RMM:  28    -0.771937268793E+03    0.33953E-04   -0.27049E-05  4575   0.163E-02    0.465E-04
SOL: 195  -0.69566E+00    0.00000E+00   -0.69566E+00    58
RMM:  29    -0.771937336986E+03   -0.68193E-04   -0.29148E-05  4578   0.171E-02    0.522E-04
SOL: 196  -0.69566E+00    0.00000E+00   -0.69566E+00    57
RMM:  30    -0.771937301325E+03    0.35661E-04   -0.35169E-05  4571   0.188E-02    0.563E-04
SOL: 197  -0.69566E+00    0.00000E+00   -0.69566E+00    57
RMM:  31    -0.771937315418E+03   -0.14094E-04   -0.42533E-05  4573   0.204E-02    0.580E-04
SOL: 198  -0.69566E+00    0.00000E+00   -0.69566E+00    57
RMM:  32    -0.771937275086E+03    0.40333E-04   -0.54005E-05  4688   0.225E-02    0.622E-04
SOL: 199  -0.69566E+00    0.00000E+00   -0.69566E+00    57
RMM:  33    -0.771937304546E+03   -0.29460E-04   -0.65075E-05  4828   0.245E-02    0.719E-04
SOL: 200  -0.69566E+00    0.00000E+00   -0.69566E+00    57
RMM:  34    -0.771937285396E+03    0.19150E-04   -0.74163E-05  4898   0.260E-02    0.703E-04
SOL: 201  -0.69566E+00    0.00000E+00   -0.69566E+00    56
RMM:  35    -0.771937338882E+03   -0.53486E-04   -0.86750E-05  4943   0.278E-02    0.854E-04
SOL: 202  -0.69566E+00    0.00000E+00   -0.69566E+00    55
RMM:  36    -0.771937272040E+03    0.66842E-04   -0.94772E-05  4947   0.292E-02    0.820E-04
SOL: 203  -0.69566E+00    0.00000E+00   -0.69566E+00    56
RMM:  37    -0.771937341053E+03   -0.69013E-04   -0.10153E-04  4956   0.302E-02    0.908E-04
SOL: 204  -0.69566E+00    0.00000E+00   -0.69566E+00    55
RMM:  38    -0.771937283935E+03    0.57118E-04   -0.10572E-04  4961   0.307E-02    0.849E-04
SOL: 205  -0.69566E+00    0.00000E+00   -0.69566E+00    56
RMM:  39    -0.771937357411E+03   -0.73476E-04   -0.10770E-04  4946   0.306E-02    0.965E-04
SOL: 206  -0.69566E+00    0.00000E+00   -0.69566E+00    55
RMM:  40    -0.771937283523E+03    0.73888E-04   -0.10645E-04  4956   0.309E-02    0.871E-04
SOL: 207  -0.69566E+00    0.00000E+00   -0.69566E+00    56
RMM:  41    -0.771937309364E+03   -0.25841E-04   -0.10670E-04  4956   0.313E-02    0.918E-04
SOL: 208  -0.69566E+00    0.00000E+00   -0.69566E+00    56
RMM:  42    -0.771937286581E+03    0.22783E-04   -0.11430E-04  4952   0.320E-02    0.922E-04
SOL: 209  -0.69566E+00    0.00000E+00   -0.69566E+00    56
RMM:  43    -0.771937340164E+03   -0.53583E-04   -0.11431E-04  4952   0.317E-02    0.973E-04
SOL: 210  -0.69566E+00    0.00000E+00   -0.69566E+00    55
RMM:  44    -0.771937286082E+03    0.54082E-04   -0.10463E-04  4952   0.303E-02    0.835E-04
SOL: 211  -0.69566E+00    0.00000E+00   -0.69566E+00    55
RMM:  45    -0.771937355383E+03   -0.69301E-04   -0.10492E-04  4943   0.305E-02    0.937E-04
SOL: 212  -0.69566E+00    0.00000E+00   -0.69566E+00    55
RMM:  46    -0.771937279563E+03    0.75820E-04   -0.11045E-04  4962   0.312E-02    0.867E-04
SOL: 213  -0.69566E+00    0.00000E+00   -0.69566E+00    55
RMM:  47    -0.771937325178E+03   -0.45615E-04   -0.11171E-04  4969   0.317E-02    0.978E-04
SOL: 214  -0.69566E+00    0.00000E+00   -0.69566E+00    55
RMM:  48    -0.771937289466E+03    0.35711E-04   -0.11222E-04  4969   0.319E-02    0.912E-04
SOL: 215  -0.69566E+00    0.00000E+00   -0.69566E+00    56
RMM:  49    -0.771937347841E+03   -0.58375E-04   -0.11596E-04  4959   0.321E-02    0.100E-03
SOL: 216  -0.69566E+00    0.00000E+00   -0.69566E+00    56
RMM:  50    -0.771937267618E+03    0.80223E-04   -0.11175E-04  4964   0.315E-02    0.884E-04
SOL: 217  -0.69566E+00    0.00000E+00   -0.69566E+00    56
RMM:  51    -0.771937355717E+03   -0.88099E-04   -0.11135E-04  4952   0.315E-02    0.969E-04
SOL: 218  -0.69566E+00    0.00000E+00   -0.69566E+00    56
RMM:  52    -0.771937280131E+03    0.75586E-04   -0.11095E-04  4959   0.314E-02    0.896E-04
SOL: 219  -0.69567E+00    0.00000E+00   -0.69567E+00    56
RMM:  53    -0.771937345874E+03   -0.65743E-04   -0.10906E-04  4952   0.313E-02    0.932E-04
SOL: 220  -0.69566E+00    0.00000E+00   -0.69566E+00    56
RMM:  54    -0.771937257593E+03    0.88281E-04   -0.10987E-04  4952   0.314E-02    0.883E-04
SOL: 221  -0.69567E+00    0.00000E+00   -0.69567E+00    56
RMM:  55    -0.771937339434E+03   -0.81841E-04   -0.11216E-04  4952   0.315E-02    0.985E-04
SOL: 222  -0.69567E+00    0.00000E+00   -0.69567E+00    56
RMM:  56    -0.771937271213E+03    0.68221E-04   -0.10900E-04  4957   0.313E-02    0.872E-04
SOL: 223  -0.69566E+00    0.00000E+00   -0.69566E+00    56
RMM:  57    -0.771937337970E+03   -0.66757E-04   -0.10317E-04  4952   0.305E-02    0.893E-04
SOL: 224  -0.69566E+00    0.00000E+00   -0.69566E+00    55
RMM:  58    -0.771937258651E+03    0.79319E-04   -0.10544E-04  4960   0.307E-02    0.874E-04
SOL: 225  -0.69566E+00    0.00000E+00   -0.69566E+00    55
RMM:  59    -0.771937361875E+03   -0.10322E-03   -0.11957E-04  4947   0.323E-02    0.990E-04
SOL: 226  -0.69566E+00    0.00000E+00   -0.69566E+00    56
RMM:  60    -0.771937239277E+03    0.12260E-03   -0.11945E-04  4960   0.325E-02    0.893E-04
SOL: 227  -0.69566E+00    0.00000E+00   -0.69566E+00    56
RMM:  61    -0.771937317089E+03   -0.77812E-04   -0.10941E-04  4957   0.312E-02    0.950E-04
SOL: 228  -0.69566E+00    0.00000E+00   -0.69566E+00    55
RMM:  62    -0.771937285930E+03    0.31159E-04   -0.10792E-04  4957   0.308E-02    0.867E-04
SOL: 229  -0.69566E+00    0.00000E+00   -0.69566E+00    55
RMM:  63    -0.771937345815E+03   -0.59884E-04   -0.10801E-04  4952   0.310E-02    0.934E-04
SOL: 230  -0.69566E+00    0.00000E+00   -0.69566E+00    55
RMM:  64    -0.771937259277E+03    0.86538E-04   -0.10888E-04  4957   0.314E-02    0.896E-04
SOL: 231  -0.69566E+00    0.00000E+00   -0.69566E+00    55
RMM:  65    -0.771937333207E+03   -0.73930E-04   -0.11017E-04  4957   0.314E-02    0.955E-04
SOL: 232  -0.69566E+00    0.00000E+00   -0.69566E+00    55
RMM:  66    -0.771937258592E+03    0.74614E-04   -0.11002E-04  4952   0.313E-02    0.876E-04
SOL: 233  -0.69566E+00    0.00000E+00   -0.69566E+00    55
RMM:  67    -0.771937339208E+03   -0.80616E-04   -0.10506E-04  4957   0.306E-02    0.918E-04
SOL: 234  -0.69566E+00    0.00000E+00   -0.69566E+00    55
RMM:  68    -0.771937290507E+03    0.48702E-04   -0.10330E-04  4963   0.304E-02    0.872E-04
SOL: 235  -0.69566E+00    0.00000E+00   -0.69566E+00    56
RMM:  69    -0.771937349827E+03   -0.59320E-04   -0.10745E-04  4944   0.308E-02    0.944E-04
SOL: 236  -0.69566E+00    0.00000E+00   -0.69566E+00    55
RMM:  70    -0.771937260705E+03    0.89122E-04   -0.10818E-04  4927   0.308E-02    0.870E-04
SOL: 237  -0.69566E+00    0.00000E+00   -0.69566E+00    56
RMM:  71    -0.771937347683E+03   -0.86978E-04   -0.11070E-04  4947   0.312E-02    0.933E-04
SOL: 238  -0.69565E+00    0.00000E+00   -0.69565E+00    58
RMM:  72    -0.771937277192E+03    0.70490E-04   -0.11316E-04  4952   0.315E-02    0.888E-04
SOL: 239  -0.69565E+00    0.00000E+00   -0.69565E+00    55
RMM:  73    -0.771937339358E+03   -0.62166E-04   -0.10976E-04  4952   0.312E-02    0.934E-04
SOL: 240  -0.69565E+00    0.00000E+00   -0.69565E+00    56
RMM:  74    -0.771937270730E+03    0.68628E-04   -0.10768E-04  4957   0.311E-02    0.870E-04
SOL: 241  -0.69565E+00    0.00000E+00   -0.69565E+00    55
RMM:  75    -0.771937343465E+03   -0.72735E-04   -0.11112E-04  4958   0.317E-02    0.940E-04
SOL: 242  -0.69565E+00    0.00000E+00   -0.69565E+00    56
RMM:  76    -0.771937302142E+03    0.41323E-04   -0.11184E-04  4942   0.316E-02    0.887E-04
SOL: 243  -0.69565E+00    0.00000E+00   -0.69565E+00    58
RMM:  77    -0.771937351410E+03   -0.49268E-04   -0.11962E-04  4959   0.326E-02    0.999E-04
SOL: 244  -0.69565E+00    0.00000E+00   -0.69565E+00    55
RMM:  78    -0.771937298358E+03    0.53052E-04   -0.11516E-04  4959   0.318E-02    0.891E-04
SOL: 245  -0.69565E+00    0.00000E+00   -0.69565E+00    56
RMM:  79    -0.771937379339E+03   -0.80981E-04   -0.11102E-04  4927   0.312E-02    0.962E-04
SOL: 246  -0.69565E+00    0.00000E+00   -0.69565E+00    56
RMM:  80    -0.771937294132E+03    0.85207E-04   -0.11064E-04  4947   0.311E-02    0.875E-04
SOL: 247  -0.69565E+00    0.00000E+00   -0.69565E+00    56
RMM:  81    -0.771937355769E+03   -0.61637E-04   -0.11172E-04  4953   0.313E-02    0.944E-04
SOL: 248  -0.69565E+00    0.00000E+00   -0.69565E+00    56
RMM:  82    -0.771937318371E+03    0.37398E-04   -0.11494E-04  4952   0.317E-02    0.934E-04
SOL: 249  -0.69565E+00    0.00000E+00   -0.69565E+00    56
RMM:  83    -0.771937364456E+03   -0.46085E-04   -0.11656E-04  4957   0.323E-02    0.975E-04
SOL: 250  -0.69564E+00    0.00000E+00   -0.69564E+00    56
RMM:  84    -0.771937316740E+03    0.47716E-04   -0.11268E-04  4962   0.317E-02    0.898E-04
SOL: 251  -0.69564E+00    0.00000E+00   -0.69564E+00    56
RMM:  85    -0.771937364415E+03   -0.47675E-04   -0.10932E-04  4952   0.311E-02    0.922E-04
SOL: 252  -0.69564E+00    0.00000E+00   -0.69564E+00    55
RMM:  86    -0.771937290749E+03    0.73667E-04   -0.11204E-04  4939   0.313E-02    0.907E-04
SOL: 253  -0.69564E+00    0.00000E+00   -0.69564E+00    56
RMM:  87    -0.771937379322E+03   -0.88573E-04   -0.11756E-04  4953   0.320E-02    0.966E-04
SOL: 254  -0.69564E+00    0.00000E+00   -0.69564E+00    56
RMM:  88    -0.771937325674E+03    0.53648E-04   -0.11416E-04  4953   0.316E-02    0.911E-04
SOL: 255  -0.69564E+00    0.00000E+00   -0.69564E+00    56
RMM:  89    -0.771937344563E+03   -0.18889E-04   -0.11291E-04  4943   0.314E-02    0.963E-04
SOL: 256  -0.69564E+00    0.00000E+00   -0.69564E+00    55
RMM:  90    -0.771937285393E+03    0.59170E-04   -0.11459E-04  4953   0.315E-02    0.896E-04
SOL: 257  -0.69564E+00    0.00000E+00   -0.69564E+00    56
RMM:  91    -0.771937378662E+03   -0.93269E-04   -0.11464E-04  4954   0.317E-02    0.958E-04
SOL: 258  -0.69564E+00    0.00000E+00   -0.69564E+00    56
RMM:  92    -0.771937297468E+03    0.81194E-04   -0.11774E-04  4955   0.323E-02    0.931E-04
SOL: 259  -0.69564E+00    0.00000E+00   -0.69564E+00    56
RMM:  93    -0.771937345647E+03   -0.48179E-04   -0.11701E-04  4955   0.322E-02    0.971E-04
SOL: 260  -0.69564E+00    0.00000E+00   -0.69564E+00    56
RMM:  94    -0.771937311122E+03    0.34525E-04   -0.11538E-04  4960   0.320E-02    0.893E-04
SOL: 261  -0.69564E+00    0.00000E+00   -0.69564E+00    56
RMM:  95    -0.771937358655E+03   -0.47532E-04   -0.11731E-04  4958   0.325E-02    0.957E-04
SOL: 262  -0.69564E+00    0.00000E+00   -0.69564E+00    56
RMM:  96    -0.771937307982E+03    0.50673E-04   -0.11661E-04  4953   0.320E-02    0.914E-04
SOL: 263  -0.69565E+00    0.00000E+00   -0.69565E+00    56
RMM:  97    -0.771937352706E+03   -0.44724E-04   -0.11319E-04  4959   0.315E-02    0.932E-04
SOL: 264  -0.69565E+00    0.00000E+00   -0.69565E+00    55
RMM:  98    -0.771937297492E+03    0.55215E-04   -0.11243E-04  4960   0.313E-02    0.859E-04
SOL: 265  -0.69565E+00    0.00000E+00   -0.69565E+00    56
RMM:  99    -0.771937359874E+03   -0.62382E-04   -0.11445E-04  4954   0.315E-02    0.942E-04
SOL: 266  -0.69565E+00    0.00000E+00   -0.69565E+00    56
RMM: 100    -0.771937312679E+03    0.47195E-04   -0.11714E-04  4959   0.321E-02
SOL: 267  -0.69565E+00    0.00000E+00   -0.69565E+00    56
   5 F= -.77193731E+03 E0= -.77192359E+03  d E =-.274417E-01  mag=    -0.1841
 Finite differences progress:
  Degree of freedom:   2/ 12
  Displacement:        2/  2
  Total:               4/ 24
 bond charge predicted
       N       E                     dE             d eps       ncg     rms          rms(c)
SOL: 268  -0.69658E+00    0.00000E+00   -0.69658E+00    89
DAV:   1    -0.771956551603E+03   -0.19192E-01   -0.16060E+00  5760   0.879E-01    0.330E+00
SOL: 269  -0.78541E+00    0.00000E+00   -0.78541E+00    98
RMM:   2    -0.771745448428E+03    0.21110E+00   -0.83645E-01  5760   0.963E-01    0.348E+00
SOL: 270  -0.77463E+00    0.00000E+00   -0.77463E+00    93
RMM:   3    -0.771924385604E+03   -0.17894E+00   -0.22691E-01  5760   0.693E-01    0.182E+00
SOL: 271  -0.76218E+00    0.00000E+00   -0.76218E+00    91
RMM:   4    -0.771917113601E+03    0.72720E-02   -0.53781E-02  5760   0.275E-01    0.130E+00
SOL: 272  -0.74583E+00    0.00000E+00   -0.74583E+00    91
RMM:   5    -0.771918035275E+03   -0.92167E-03   -0.35985E-02  5760   0.238E-01    0.267E-01
SOL: 273  -0.75260E+00    0.00000E+00   -0.75260E+00    86
RMM:   6    -0.771926690934E+03   -0.86557E-02   -0.18891E-02  5760   0.244E-01    0.526E-01
SOL: 274  -0.76384E+00    0.00000E+00   -0.76384E+00    85
RMM:   7    -0.771924098778E+03    0.25922E-02   -0.34030E-03  5760   0.117E-01    0.298E-01
SOL: 275  -0.76333E+00    0.00000E+00   -0.76333E+00    85
RMM:   8    -0.771925812878E+03   -0.17141E-02   -0.63858E-03  5760   0.153E-01    0.191E-01
SOL: 276  -0.76470E+00    0.00000E+00   -0.76470E+00    84
RMM:   9    -0.771927099132E+03   -0.12863E-02   -0.78684E-04  5760   0.662E-02    0.160E-01
SOL: 277  -0.76942E+00    0.00000E+00   -0.76942E+00    81
RMM:  10    -0.771926927981E+03    0.17115E-03   -0.23796E-03  5759   0.972E-02    0.127E-01
SOL: 278  -0.77272E+00    0.00000E+00   -0.77272E+00    82
RMM:  11    -0.771928486450E+03   -0.15585E-02   -0.42315E-04  5760   0.600E-02    0.161E-01
SOL: 279  -0.77711E+00    0.00000E+00   -0.77711E+00    80
RMM:  12    -0.771928615477E+03   -0.12903E-03   -0.28047E-04  5754   0.522E-02    0.891E-02
SOL: 280  -0.78167E+00    0.00000E+00   -0.78167E+00    80
RMM:  13    -0.771928624150E+03   -0.86732E-05   -0.33209E-04  5760   0.575E-02    0.316E-02
SOL: 281  -0.78466E+00    0.00000E+00   -0.78466E+00    78
RMM:  14    -0.771928812209E+03   -0.18806E-03   -0.31737E-04  5742   0.546E-02    0.161E-02
SOL: 282  -0.78615E+00    0.00000E+00   -0.78615E+00    75
RMM:  15    -0.771928689663E+03    0.12255E-03   -0.24034E-04  5696   0.495E-02    0.231E-02
SOL: 283  -0.78775E+00    0.00000E+00   -0.78775E+00    74
RMM:  16    -0.771928560855E+03    0.12881E-03   -0.21192E-04  5737   0.498E-02    0.207E-02
SOL: 284  -0.78906E+00    0.00000E+00   -0.78906E+00    72
RMM:  17    -0.771928479075E+03    0.81781E-04   -0.18269E-04  5742   0.490E-02    0.639E-03
SOL: 285  -0.78932E+00    0.00000E+00   -0.78932E+00    68
RMM:  18    -0.771928584070E+03   -0.10499E-03   -0.13804E-04  5653   0.421E-02    0.524E-03
SOL: 286  -0.78940E+00    0.00000E+00   -0.78940E+00    66
RMM:  19    -0.771928566788E+03    0.17281E-04   -0.10240E-04  5567   0.368E-02    0.444E-03
SOL: 287  -0.78934E+00    0.00000E+00   -0.78934E+00    67
RMM:  20    -0.771928596548E+03   -0.29759E-04   -0.10992E-04  5502   0.385E-02    0.349E-03
SOL: 288  -0.78919E+00    0.00000E+00   -0.78919E+00    68
RMM:  21    -0.771928510249E+03    0.86299E-04   -0.11126E-04  5525   0.385E-02    0.300E-03
SOL: 289  -0.78898E+00    0.00000E+00   -0.78898E+00    68
RMM:  22    -0.771928496691E+03    0.13558E-04   -0.87921E-05  5041   0.337E-02    0.228E-03
SOL: 290  -0.78874E+00    0.00000E+00   -0.78874E+00    66
RMM:  23    -0.771928478036E+03    0.18655E-04   -0.64752E-05  4671   0.279E-02    0.200E-03
SOL: 291  -0.78854E+00    0.00000E+00   -0.78854E+00    65
RMM:  24    -0.771928447810E+03    0.30226E-04   -0.55685E-05  4642   0.253E-02    0.142E-03
SOL: 292  -0.78838E+00    0.00000E+00   -0.78838E+00    63
RMM:  25    -0.771928441155E+03    0.66553E-05   -0.49781E-05  4638   0.235E-02
SOL: 293  -0.78830E+00    0.00000E+00   -0.78830E+00    62
   6 F= -.77192844E+03 E0= -.77191379E+03  d E =-.292991E-01  mag=    -0.0244
 Finite differences progress:
  Degree of freedom:   3/ 12
  Displacement:        1/  2
  Total:               5/ 24
 bond charge predicted
       N       E                     dE             d eps       ncg     rms          rms(c)
SOL: 294  -0.78679E+00    0.00000E+00   -0.78679E+00    91
DAV:   1    -0.771922545284E+03    0.59025E-02   -0.33332E+00  5760   0.120E+00    0.641E-01
SOL: 295  -0.77477E+00    0.00000E+00   -0.77477E+00    90
RMM:   2    -0.771928893502E+03   -0.63482E-02   -0.63380E-02  5760   0.294E-01    0.332E-01
SOL: 296  -0.76860E+00    0.00000E+00   -0.76860E+00    85
RMM:   3    -0.771930083342E+03   -0.11898E-02   -0.59649E-03  5761   0.127E-01    0.110E+00
SOL: 297  -0.77348E+00    0.00000E+00   -0.77348E+00    86
RMM:   4    -0.771928079447E+03    0.20039E-02   -0.16291E-02  5760   0.230E-01    0.104E+00
SOL: 298  -0.77504E+00    0.00000E+00   -0.77504E+00    80
RMM:   5    -0.771924530043E+03    0.35494E-02   -0.82612E-04  5760   0.643E-02    0.742E-01
SOL: 299  -0.77376E+00    0.00000E+00   -0.77376E+00    85
RMM:   6    -0.771924103684E+03    0.42636E-03   -0.30852E-03  5760   0.116E-01    0.238E-01
SOL: 300  -0.77238E+00    0.00000E+00   -0.77238E+00    84
RMM:   7    -0.771926862663E+03   -0.27590E-02   -0.54063E-03  5760   0.159E-01    0.714E-02
SOL: 301  -0.77264E+00    0.00000E+00   -0.77264E+00    82
RMM:   8    -0.771928186010E+03   -0.13233E-02   -0.20229E-03  5760   0.101E-01    0.187E-01
SOL: 302  -0.77256E+00    0.00000E+00   -0.77256E+00    81
RMM:   9    -0.771927529170E+03    0.65684E-03   -0.11571E-03  5736   0.686E-02    0.233E-01
SOL: 303  -0.77139E+00    0.00000E+00   -0.77139E+00    79
RMM:  10    -0.771927247077E+03    0.28209E-03   -0.38959E-04  5727   0.523E-02    0.171E-01
SOL: 304  -0.77021E+00    0.00000E+00   -0.77021E+00    78
RMM:  11    -0.771927428918E+03   -0.18184E-03   -0.21666E-04  5351   0.433E-02    0.969E-02
SOL: 305  -0.76926E+00    0.00000E+00   -0.76926E+00    77
RMM:  12    -0.771927959957E+03   -0.53104E-03   -0.25626E-04  5394   0.461E-02    0.536E-02
SOL: 306  -0.76852E+00    0.00000E+00   -0.76852E+00    75
RMM:  13    -0.771928374493E+03   -0.41454E-03   -0.19162E-04  5047   0.400E-02    0.406E-02
SOL: 307  -0.76701E+00    0.00000E+00   -0.76701E+00    79
RMM:  14    -0.771928522575E+03   -0.14808E-03   -0.17824E-04  5451   0.423E-02    0.281E-02
SOL: 308  -0.76571E+00    0.00000E+00   -0.76571E+00    78
RMM:  15    -0.771928600207E+03   -0.77632E-04   -0.12993E-04  5148   0.366E-02    0.109E-02
SOL: 309  -0.76493E+00    0.00000E+00   -0.76493E+00    75
RMM:  16    -0.771928638946E+03   -0.38738E-04   -0.11807E-04  4976   0.354E-02    0.300E-03
SOL: 310  -0.76444E+00    0.00000E+00   -0.76444E+00    72
RMM:  17    -0.771928637042E+03    0.19039E-05   -0.81087E-05  4687   0.296E-02
SOL: 311  -0.76416E+00    0.00000E+00   -0.76416E+00    68
   7 F= -.77192864E+03 E0= -.77191427E+03  d E =-.287258E-01  mag=    -0.0700
 Finite differences progress:
  Degree of freedom:   3/ 12
  Displacement:        2/  2
  Total:               6/ 24
 bond charge predicted
       N       E                     dE             d eps       ncg     rms          rms(c)
SOL: 312  -0.76538E+00    0.00000E+00   -0.76538E+00    90
DAV:   1    -0.771915156203E+03    0.13483E-01   -0.17980E+00  6144   0.107E+00    0.632E-01
SOL: 313  -0.75248E+00    0.00000E+00   -0.75248E+00    89
RMM:   2    -0.771923394367E+03   -0.82382E-02   -0.50019E-02  5760   0.265E-01    0.419E-01
SOL: 314  -0.73279E+00    0.00000E+00   -0.73279E+00    90
RMM:   3    -0.771930172363E+03   -0.67780E-02   -0.15735E-02  5760   0.152E-01    0.201E+00
SOL: 315  -0.74348E+00    0.00000E+00   -0.74348E+00    90
RMM:   4    -0.771922917624E+03    0.72547E-02   -0.44881E-02  5760   0.358E-01    0.171E+00
SOL: 316  -0.74994E+00    0.00000E+00   -0.74994E+00    85
RMM:   5    -0.771911940201E+03    0.10977E-01   -0.41987E-03  5760   0.102E-01    0.528E-01
SOL: 317  -0.75018E+00    0.00000E+00   -0.75018E+00    87
RMM:   6    -0.771919491850E+03   -0.75516E-02   -0.20424E-02  5760   0.240E-01    0.459E-01
SOL: 318  -0.74943E+00    0.00000E+00   -0.74943E+00    85
RMM:   7    -0.771921847445E+03   -0.23556E-02   -0.14043E-02  5760   0.224E-01    0.510E-01
SOL: 319  -0.74825E+00    0.00000E+00   -0.74825E+00    78
RMM:   8    -0.771919125456E+03    0.27220E-02   -0.13541E-03  5760   0.836E-02    0.438E-01
SOL: 320  -0.74532E+00    0.00000E+00   -0.74532E+00    81
RMM:   9    -0.771918774004E+03    0.35145E-03   -0.63792E-04  5721   0.563E-02    0.301E-01
SOL: 321  -0.74267E+00    0.00000E+00   -0.74267E+00    80
RMM:  10    -0.771920120466E+03   -0.13465E-02   -0.61183E-04  5753   0.646E-02    0.222E-01
SOL: 322  -0.74041E+00    0.00000E+00   -0.74041E+00    79
RMM:  11    -0.771920750466E+03   -0.63000E-03   -0.42625E-04  5691   0.546E-02    0.144E-01
SOL: 323  -0.73804E+00    0.00000E+00   -0.73804E+00    78
RMM:  12    -0.771921225987E+03   -0.47552E-03   -0.30699E-04  5467   0.464E-02    0.802E-02
SOL: 324  -0.73491E+00    0.00000E+00   -0.73491E+00    79
RMM:  13    -0.771921945851E+03   -0.71986E-03   -0.34022E-04  5711   0.526E-02    0.465E-02
SOL: 325  -0.73135E+00    0.00000E+00   -0.73135E+00    79
RMM:  14    -0.771922427221E+03   -0.48137E-03   -0.22512E-04  5639   0.450E-02    0.214E-02
SOL: 326  -0.72906E+00    0.00000E+00   -0.72906E+00    76
RMM:  15    -0.771922363741E+03    0.63479E-04   -0.18097E-04  5594   0.430E-02    0.919E-03
SOL: 327  -0.72627E+00    0.00000E+00   -0.72627E+00    77
RMM:  16    -0.771922543218E+03   -0.17948E-03   -0.13710E-04  5227   0.381E-02    0.532E-03
SOL: 328  -0.72485E+00    0.00000E+00   -0.72485E+00    73
RMM:  17    -0.771922477327E+03    0.65891E-04   -0.10688E-04  5117   0.351E-02    0.488E-03
SOL: 329  -0.72407E+00    0.00000E+00   -0.72407E+00    69
RMM:  18    -0.771922559863E+03   -0.82536E-04   -0.78355E-05  4688   0.302E-02    0.572E-03
SOL: 330  -0.72352E+00    0.00000E+00   -0.72352E+00    68
RMM:  19    -0.771922560831E+03   -0.96755E-06   -0.62888E-05  4673   0.269E-02
SOL: 331  -0.72321E+00    0.00000E+00   -0.72321E+00    66
   8 F= -.77192256E+03 E0= -.77190848E+03  d E =-.281666E-01  mag=    -0.1185
 Finite differences progress:
  Degree of freedom:   4/ 12
  Displacement:        1/  2
  Total:               7/ 24
 bond charge predicted
       N       E                     dE             d eps       ncg     rms          rms(c)
SOL: 332  -0.72306E+00    0.00000E+00   -0.72306E+00    91
DAV:   1    -0.771927397650E+03   -0.48378E-02   -0.37908E+00  5760   0.131E+00    0.272E+00
SOL: 333  -0.79756E+00    0.00000E+00   -0.79756E+00    97
RMM:   2    -0.771797003920E+03    0.13039E+00   -0.57306E-01  5760   0.823E-01    0.285E+00
SOL: 334  -0.78926E+00    0.00000E+00   -0.78926E+00    92
RMM:   3    -0.771917023951E+03   -0.12002E+00   -0.15357E-01  5760   0.579E-01    0.171E+00
SOL: 335  -0.77325E+00    0.00000E+00   -0.77325E+00    92
RMM:   4    -0.771906183398E+03    0.10841E-01   -0.56842E-02  5760   0.271E-01    0.654E-01
SOL: 336  -0.76436E+00    0.00000E+00   -0.76436E+00    91
RMM:   5    -0.771927731966E+03   -0.21549E-01   -0.38122E-02  5760   0.282E-01    0.205E+00
SOL: 337  -0.79211E+00    0.00000E+00   -0.79211E+00    92
RMM:   6    -0.771910240369E+03    0.17492E-01   -0.55273E-02  5760   0.401E-01    0.173E-01
SOL: 338  -0.79834E+00    0.00000E+00   -0.79834E+00    86
RMM:   7    -0.771915735800E+03   -0.54954E-02   -0.30935E-02  5760   0.307E-01    0.839E-01
SOL: 339  -0.79680E+00    0.00000E+00   -0.79680E+00    87
RMM:   8    -0.771915534862E+03    0.20094E-03   -0.10015E-02  5760   0.197E-01    0.483E-01
SOL: 340  -0.79580E+00    0.00000E+00   -0.79580E+00    83
RMM:   9    -0.771913747602E+03    0.17873E-02   -0.21541E-03  5760   0.997E-02    0.420E-02
SOL: 341  -0.79873E+00    0.00000E+00   -0.79873E+00    82
RMM:  10    -0.771917219389E+03   -0.34718E-02   -0.32849E-03  5760   0.122E-01    0.113E-01
SOL: 342  -0.80245E+00    0.00000E+00   -0.80245E+00    82
RMM:  11    -0.771917878961E+03   -0.65957E-03   -0.11490E-03  5747   0.737E-02    0.121E-01
SOL: 343  -0.80600E+00    0.00000E+00   -0.80600E+00    80
RMM:  12    -0.771918153330E+03   -0.27437E-03   -0.40445E-04  5760   0.577E-02    0.141E-01
SOL: 344  -0.80881E+00    0.00000E+00   -0.80881E+00    77
RMM:  13    -0.771918356602E+03   -0.20327E-03   -0.22566E-04  5705   0.477E-02    0.113E-01
SOL: 345  -0.81315E+00    0.00000E+00   -0.81315E+00    79
RMM:  14    -0.771918390384E+03   -0.33782E-04   -0.23448E-04  5709   0.480E-02    0.398E-02
SOL: 346  -0.81566E+00    0.00000E+00   -0.81566E+00    76
RMM:  15    -0.771918549406E+03   -0.15902E-03   -0.29294E-04  5693   0.518E-02    0.119E-02
SOL: 347  -0.81674E+00    0.00000E+00   -0.81674E+00    73
RMM:  16    -0.771918597850E+03   -0.48445E-04   -0.18861E-04  5305   0.436E-02    0.100E-02
SOL: 348  -0.81838E+00    0.00000E+00   -0.81838E+00    74
RMM:  17    -0.771918403412E+03    0.19444E-03   -0.16062E-04  5683   0.438E-02    0.928E-03
SOL: 349  -0.82015E+00    0.00000E+00   -0.82015E+00    74
RMM:  18    -0.771918493618E+03   -0.90206E-04   -0.16534E-04  5669   0.453E-02    0.109E-02
SOL: 350  -0.82094E+00    0.00000E+00   -0.82094E+00    69
RMM:  19    -0.771918491859E+03    0.17590E-05   -0.13196E-04  5578   0.406E-02    0.708E-03
SOL: 351  -0.82109E+00    0.00000E+00   -0.82109E+00    64
RMM:  20    -0.771918491528E+03    0.33146E-06   -0.95086E-05  5217   0.351E-02
SOL: 352  -0.82106E+00    0.00000E+00   -0.82106E+00    65
   9 F= -.77191849E+03 E0= -.77190374E+03  d E =-.295010E-01  mag=    -0.0083
 Finite differences progress:
  Degree of freedom:   4/ 12
  Displacement:        2/  2
  Total:               8/ 24
 bond charge predicted
       N       E                     dE             d eps       ncg     rms          rms(c)
SOL: 353  -0.82137E+00    0.00000E+00   -0.82137E+00    90
DAV:   1    -0.771936557716E+03   -0.18066E-01   -0.17033E+00  5760   0.929E-01    0.999E-01
SOL: 354  -0.79154E+00    0.00000E+00   -0.79154E+00    92
RMM:   2    -0.771942706978E+03   -0.61493E-02   -0.10004E-01  5760   0.381E-01    0.463E-01
SOL: 355  -0.76373E+00    0.00000E+00   -0.76373E+00    91
RMM:   3    -0.771928725766E+03    0.13981E-01   -0.20240E-02  5760   0.199E-01    0.584E-01
SOL: 356  -0.77059E+00    0.00000E+00   -0.77059E+00    89
RMM:   4    -0.771933878461E+03   -0.51527E-02   -0.16524E-02  5760   0.198E-01    0.355E-01
SOL: 357  -0.74430E+00    0.00000E+00   -0.74430E+00    89
RMM:   5    -0.771935088402E+03   -0.12099E-02   -0.59600E-03  5760   0.150E-01    0.105E-01
SOL: 358  -0.73086E+00    0.00000E+00   -0.73086E+00    86
RMM:   6    -0.771935681668E+03   -0.59327E-03   -0.18756E-03  5760   0.106E-01    0.197E-01
SOL: 359  -0.72677E+00    0.00000E+00   -0.72677E+00    85
RMM:   7    -0.771936641746E+03   -0.96008E-03   -0.16205E-03  5760   0.929E-02    0.194E-01
SOL: 360  -0.71448E+00    0.00000E+00   -0.71448E+00    85
RMM:   8    -0.771937500438E+03   -0.85869E-03   -0.19802E-03  5760   0.102E-01    0.103E-01
SOL: 361  -0.70369E+00    0.00000E+00   -0.70369E+00    84
RMM:   9    -0.771938133817E+03   -0.63338E-03   -0.63698E-04  5760   0.752E-02    0.749E-02
SOL: 362  -0.69159E+00    0.00000E+00   -0.69159E+00    84
RMM:  10    -0.771939172565E+03   -0.10387E-02   -0.47192E-04  5760   0.623E-02    0.346E-02
SOL: 363  -0.68269E+00    0.00000E+00   -0.68269E+00    82
RMM:  11    -0.771940119142E+03   -0.94658E-03   -0.39942E-04  5760   0.605E-02    0.497E-02
SOL: 364  -0.67608E+00    0.00000E+00   -0.67608E+00    81
RMM:  12    -0.771940218166E+03   -0.99024E-04   -0.31570E-04  5760   0.579E-02    0.266E-02
SOL: 365  -0.67154E+00    0.00000E+00   -0.67154E+00    79
RMM:  13    -0.771940353841E+03   -0.13567E-03   -0.31797E-04  5760   0.600E-02    0.975E-03
SOL: 366  -0.66944E+00    0.00000E+00   -0.66944E+00    75
RMM:  14    -0.771940455629E+03   -0.10179E-03   -0.24502E-04  5760   0.546E-02    0.846E-03
SOL: 367  -0.66814E+00    0.00000E+00   -0.66814E+00    74
RMM:  15    -0.771940353905E+03    0.10172E-03   -0.17219E-04  5760   0.473E-02    0.589E-03
SOL: 368  -0.66743E+00    0.00000E+00   -0.66743E+00    71
RMM:  16    -0.771940411676E+03   -0.57771E-04   -0.15038E-04  5745   0.447E-02    0.593E-03
SOL: 369  -0.66741E+00    0.00000E+00   -0.66741E+00    70
RMM:  17    -0.771940369603E+03    0.42073E-04   -0.12352E-04  5741   0.413E-02    0.457E-03
SOL: 370  -0.66760E+00    0.00000E+00   -0.66760E+00    69
RMM:  18    -0.771940227911E+03    0.14169E-03   -0.11334E-04  5656   0.390E-02    0.380E-03
SOL: 371  -0.66787E+00    0.00000E+00   -0.66787E+00    69
RMM:  19    -0.771940087518E+03    0.14039E-03   -0.11136E-04  5540   0.385E-02    0.306E-03
SOL: 372  -0.66818E+00    0.00000E+00   -0.66818E+00    68
RMM:  20    -0.771940017169E+03    0.70349E-04   -0.87579E-05  4966   0.336E-02    0.235E-03
SOL: 373  -0.66843E+00    0.00000E+00   -0.66843E+00    66
RMM:  21    -0.771939964678E+03    0.52491E-04   -0.75070E-05  4685   0.300E-02    0.184E-03
SOL: 374  -0.66864E+00    0.00000E+00   -0.66864E+00    64
RMM:  22    -0.771940016697E+03   -0.52019E-04   -0.57041E-05  4673   0.254E-02    0.162E-03
SOL: 375  -0.66879E+00    0.00000E+00   -0.66879E+00    63
RMM:  23    -0.771940017281E+03   -0.58386E-06   -0.46082E-05  4641   0.220E-02
SOL: 376  -0.66885E+00    0.00000E+00   -0.66885E+00    62
  10 F= -.77194002E+03 E0= -.77192653E+03  d E =-.269666E-01  mag=    -0.2117
 Finite differences progress:
  Degree of freedom:   5/ 12
  Displacement:        1/  2
  Total:               9/ 24
 bond charge predicted
       N       E                     dE             d eps       ncg     rms          rms(c)
SOL: 377  -0.66873E+00    0.00000E+00   -0.66873E+00    93
DAV:   1    -0.772001812321E+03   -0.61796E-01   -0.37828E+00  5760   0.124E+00    0.468E+00
SOL: 378  -0.79882E+00    0.00000E+00   -0.79882E+00   100
RMM:   2    -0.771706386527E+03    0.29543E+00   -0.15494E+00  5760   0.129E+00    0.548E+00
SOL: 379  -0.73496E+00    0.00000E+00   -0.73496E+00    99
RMM:   3    -0.771885898579E+03   -0.17951E+00   -0.43661E-01  5760   0.103E+00    0.297E+00
SOL: 380  -0.79232E+00    0.00000E+00   -0.79232E+00    96
RMM:   4    -0.771786625293E+03    0.99273E-01   -0.20657E-01  5760   0.936E-01    0.263E+00
SOL: 381  -0.87321E+00    0.00000E+00   -0.87321E+00    94
RMM:   5    -0.771697257298E+03    0.89368E-01   -0.87365E-02  5760   0.422E-01    0.138E+00
SOL: 382  -0.92893E+00    0.00000E+00   -0.92893E+00    93
RMM:   6    -0.771838793802E+03   -0.14154E+00   -0.92164E-02  6226   0.613E-01    0.339E+00
SOL: 383  -0.93294E+00    0.00000E+00   -0.93294E+00    88
RMM:   7    -0.771878238606E+03   -0.39445E-01   -0.84034E-02  5774   0.598E-01    0.335E+00
SOL: 384  -0.93576E+00    0.00000E+00   -0.93576E+00    82
RMM:   8    -0.771889916480E+03   -0.11678E-01   -0.13584E-02  8697   0.259E-01    0.333E+00
SOL: 385  -0.94490E+00    0.00000E+00   -0.94490E+00    83
RMM:   9    -0.771902635058E+03   -0.12719E-01   -0.19432E-02  5898   0.312E-01    0.308E+00
SOL: 386  -0.95424E+00    0.00000E+00   -0.95424E+00    91
RMM:  10    -0.771937474324E+03   -0.34839E-01   -0.13614E-01  6828   0.572E-01    0.219E+00
SOL: 387  -0.92776E+00    0.00000E+00   -0.92776E+00    93
RMM:  11    -0.771910384175E+03    0.27090E-01   -0.79567E-02  5766   0.527E-01    0.168E+00
SOL: 388  -0.89501E+00    0.00000E+00   -0.89501E+00    92
RMM:  12    -0.771919659660E+03   -0.92755E-02   -0.54020E-02  8043   0.394E-01    0.143E+00
SOL: 389  -0.84355E+00    0.00000E+00   -0.84355E+00    93
RMM:  13    -0.771929534296E+03   -0.98746E-02   -0.57686E-02  6045   0.521E-01    0.865E-01
SOL: 390  -0.82955E+00    0.00000E+00   -0.82955E+00    89
RMM:  14    -0.771982795423E+03   -0.53261E-01   -0.81297E-02  7845   0.594E-01    0.780E-01
SOL: 391  -0.81420E+00    0.00000E+00   -0.81420E+00    87
RMM:  15    -0.771975252850E+03    0.75426E-02   -0.48629E-02  6475   0.601E-01    0.245E+00
SOL: 392  -0.84071E+00    0.00000E+00   -0.84071E+00    91
RMM:  16    -0.771984293019E+03   -0.90402E-02   -0.85926E-02  7586   0.629E-01    0.168E+00
SOL: 393  -0.84649E+00    0.00000E+00   -0.84649E+00    83
RMM:  17    -0.771959075727E+03    0.25217E-01   -0.33877E-02  5894   0.570E-01    0.124E+00
SOL: 394  -0.85575E+00    0.00000E+00   -0.85575E+00    85
RMM:  18    -0.771983865768E+03   -0.24790E-01   -0.52021E-02  7678   0.580E-01    0.227E+00
SOL: 395  -0.89050E+00    0.00000E+00   -0.89050E+00    90
RMM:  19    -0.771947079022E+03    0.36787E-01   -0.45333E-02  5810   0.709E-01    0.114E+00
SOL: 396  -0.91826E+00    0.00000E+00   -0.91826E+00    88
RMM:  20    -0.771970783985E+03   -0.23705E-01   -0.35530E-02  7277   0.497E-01    0.249E-01
SOL: 397  -0.92593E+00    0.00000E+00   -0.92593E+00    84
RMM:  21    -0.771966883035E+03    0.39009E-02   -0.43730E-02  5804   0.633E-01    0.394E-01
SOL: 398  -0.94440E+00    0.00000E+00   -0.94440E+00    86
RMM:  22    -0.771979679789E+03   -0.12797E-01   -0.14148E-02  7024   0.334E-01    0.112E+00
SOL: 399  -0.93586E+00    0.00000E+00   -0.93586E+00    86
RMM:  23    -0.771970065525E+03    0.96143E-02   -0.18611E-02  5804   0.413E-01    0.109E+00
SOL: 400  -0.91653E+00    0.00000E+00   -0.91653E+00    87
RMM:  24    -0.771966222500E+03    0.38430E-02   -0.77735E-03  5972   0.250E-01    0.582E-01
SOL: 401  -0.90925E+00    0.00000E+00   -0.90925E+00    84
RMM:  25    -0.771963894966E+03    0.23275E-02   -0.96465E-03  5784   0.309E-01    0.548E-01
SOL: 402  -0.89505E+00    0.00000E+00   -0.89505E+00    85
RMM:  26    -0.771957504782E+03    0.63902E-02   -0.73195E-03  5941   0.299E-01    0.918E-02
SOL: 403  -0.88801E+00    0.00000E+00   -0.88801E+00    82
RMM:  27    -0.771948214660E+03    0.92901E-02   -0.10695E-02  5764   0.362E-01    0.293E-01
SOL: 404  -0.89033E+00    0.00000E+00   -0.89033E+00    83
RMM:  28    -0.771946932816E+03    0.12818E-02   -0.68305E-03  5800   0.275E-01    0.936E-02
SOL: 405  -0.88788E+00    0.00000E+00   -0.88788E+00    76
RMM:  29    -0.771942043657E+03    0.48892E-02   -0.32080E-03  5770   0.225E-01    0.142E-01
SOL: 406  -0.88867E+00    0.00000E+00   -0.88867E+00    80
RMM:  30    -0.771937864193E+03    0.41795E-02   -0.26876E-03  5807   0.214E-01    0.508E-02
SOL: 407  -0.88834E+00    0.00000E+00   -0.88834E+00    76
RMM:  31    -0.771935014292E+03    0.28499E-02   -0.15876E-03  5777   0.156E-01    0.289E-02
SOL: 408  -0.88786E+00    0.00000E+00   -0.88786E+00    75
RMM:  32    -0.771933879994E+03    0.11343E-02   -0.10639E-03  5766   0.125E-01    0.902E-02
SOL: 409  -0.88484E+00    0.00000E+00   -0.88484E+00    79
RMM:  33    -0.771932850114E+03    0.10299E-02   -0.68803E-04  5760   0.897E-02    0.168E-02
SOL: 410  -0.88320E+00    0.00000E+00   -0.88320E+00    76
RMM:  34    -0.771932632123E+03    0.21799E-03   -0.34457E-04  5760   0.654E-02    0.535E-02
SOL: 411  -0.88391E+00    0.00000E+00   -0.88391E+00    74
RMM:  35    -0.771932268645E+03    0.36348E-03   -0.26659E-04  5760   0.527E-02    0.211E-02
SOL: 412  -0.88448E+00    0.00000E+00   -0.88448E+00    71
RMM:  36    -0.771932109725E+03    0.15892E-03   -0.12997E-04  5198   0.382E-02    0.916E-03
SOL: 413  -0.88465E+00    0.00000E+00   -0.88465E+00    67
RMM:  37    -0.771932000791E+03    0.10893E-03   -0.85670E-05  4714   0.315E-02    0.112E-02
SOL: 414  -0.88493E+00    0.00000E+00   -0.88493E+00    67
RMM:  38    -0.771932024828E+03   -0.24037E-04   -0.67441E-05  4671   0.279E-02    0.392E-03
SOL: 415  -0.88500E+00    0.00000E+00   -0.88500E+00    63
RMM:  39    -0.771931949873E+03    0.74954E-04   -0.62847E-05  4655   0.259E-02    0.487E-03
SOL: 416  -0.88504E+00    0.00000E+00   -0.88504E+00    61
RMM:  40    -0.771932002187E+03   -0.52313E-04   -0.53525E-05  4612   0.239E-02    0.899E-03
SOL: 417  -0.88515E+00    0.00000E+00   -0.88515E+00    63
RMM:  41    -0.771932009756E+03   -0.75693E-05   -0.46796E-05  4609   0.220E-02
SOL: 418  -0.88523E+00    0.00000E+00   -0.88523E+00    60
  11 F= -.77193201E+03 E0= -.77191706E+03  d E =-.299092E-01  mag=     1.6475
 Finite differences progress:
  Degree of freedom:   5/ 12
  Displacement:        2/  2
  Total:              10/ 24
 bond charge predicted
       N       E                     dE             d eps       ncg     rms          rms(c)
SOL: 419  -0.88594E+00    0.00000E+00   -0.88594E+00    92
DAV:   1    -0.771929913565E+03    0.20886E-02   -0.16872E+00  6816   0.894E-01    0.111E+00
SOL: 420  -0.85029E+00    0.00000E+00   -0.85029E+00    93
RMM:   2    -0.771929732420E+03    0.18114E-03   -0.11284E-01  5760   0.400E-01    0.461E-01
SOL: 421  -0.82621E+00    0.00000E+00   -0.82621E+00    89
RMM:   3    -0.771952831489E+03   -0.23099E-01   -0.17261E-02  5760   0.201E-01    0.332E+00
SOL: 422  -0.86127E+00    0.00000E+00   -0.86127E+00    93
RMM:   4    -0.771907693510E+03    0.45138E-01   -0.11686E-01  5760   0.535E-01    0.571E-01
SOL: 423  -0.86273E+00    0.00000E+00   -0.86273E+00    87
RMM:   5    -0.771930444128E+03   -0.22751E-01   -0.51951E-02  5760   0.372E-01    0.766E-01
SOL: 424  -0.85051E+00    0.00000E+00   -0.85051E+00    88
RMM:   6    -0.771930644927E+03   -0.20080E-03   -0.18870E-02  5760   0.273E-01    0.581E-01
SOL: 425  -0.84409E+00    0.00000E+00   -0.84409E+00    82
RMM:   7    -0.771930502990E+03    0.14194E-03   -0.12862E-03  5760   0.809E-02    0.277E-01
SOL: 426  -0.83689E+00    0.00000E+00   -0.83689E+00    83
RMM:   8    -0.771929305997E+03    0.11970E-02   -0.18398E-03  5760   0.995E-02    0.872E-02
SOL: 427  -0.83190E+00    0.00000E+00   -0.83190E+00    80
RMM:   9    -0.771931724757E+03   -0.24188E-02   -0.11093E-03  5760   0.870E-02    0.100E-01
SOL: 428  -0.82793E+00    0.00000E+00   -0.82793E+00    79
RMM:  10    -0.771932102598E+03   -0.37784E-03   -0.25013E-04  5757   0.502E-02    0.111E-01
SOL: 429  -0.82167E+00    0.00000E+00   -0.82167E+00    81
RMM:  11    -0.771932154090E+03   -0.51492E-04   -0.18988E-04  5648   0.430E-02    0.632E-02
SOL: 430  -0.81510E+00    0.00000E+00   -0.81510E+00    81
RMM:  12    -0.771932549372E+03   -0.39528E-03   -0.26157E-04  5675   0.498E-02    0.252E-02
SOL: 431  -0.80902E+00    0.00000E+00   -0.80902E+00    80
RMM:  13    -0.771932874923E+03   -0.32555E-03   -0.23586E-04  5556   0.458E-02    0.168E-02
SOL: 432  -0.80580E+00    0.00000E+00   -0.80580E+00    77
RMM:  14    -0.771933077853E+03   -0.20293E-03   -0.18766E-04  5142   0.397E-02    0.230E-02
SOL: 433  -0.80277E+00    0.00000E+00   -0.80277E+00    76
RMM:  15    -0.771933184225E+03   -0.10637E-03   -0.12998E-04  4925   0.352E-02    0.170E-02
SOL: 434  -0.80160E+00    0.00000E+00   -0.80160E+00    70
RMM:  16    -0.771933407520E+03   -0.22329E-03   -0.10249E-04  4873   0.332E-02    0.120E-02
SOL: 435  -0.80126E+00    0.00000E+00   -0.80126E+00    68
RMM:  17    -0.771933372590E+03    0.34930E-04   -0.75618E-05  4775   0.282E-02    0.513E-03
SOL: 436  -0.80116E+00    0.00000E+00   -0.80116E+00    67
RMM:  18    -0.771933291342E+03    0.81248E-04   -0.57527E-05  4663   0.243E-02    0.175E-03
SOL: 437  -0.80116E+00    0.00000E+00   -0.80116E+00    65
RMM:  19    -0.771933252159E+03    0.39182E-04   -0.44459E-05  4612   0.213E-02    0.127E-03
SOL: 438  -0.80118E+00    0.00000E+00   -0.80118E+00    64
RMM:  20    -0.771933235714E+03    0.16446E-04   -0.34726E-05  4603   0.190E-02    0.157E-03
SOL: 439  -0.80118E+00    0.00000E+00   -0.80118E+00    64
RMM:  21    -0.771933218940E+03    0.16774E-04   -0.34108E-05  4603   0.187E-02    0.224E-03
SOL: 440  -0.80116E+00    0.00000E+00   -0.80116E+00    62
RMM:  22    -0.771933201230E+03    0.17710E-04   -0.30516E-05  4600   0.175E-02    0.227E-03
SOL: 441  -0.80113E+00    0.00000E+00   -0.80113E+00    61
RMM:  23    -0.771933167772E+03    0.33458E-04   -0.30164E-05  4590   0.176E-02    0.204E-03
SOL: 442  -0.80111E+00    0.00000E+00   -0.80111E+00    59
RMM:  24    -0.771933172798E+03   -0.50253E-05   -0.29959E-05  4568   0.176E-02
SOL: 443  -0.80109E+00    0.00000E+00   -0.80109E+00    58
  12 F= -.77193317E+03 E0= -.77191853E+03  d E =-.292810E-01  mag=     1.6363
 Finite differences progress:
  Degree of freedom:   6/ 12
  Displacement:        1/  2
  Total:              11/ 24
 bond charge predicted
       N       E                     dE             d eps       ncg     rms          rms(c)
SOL: 444  -0.80079E+00    0.00000E+00   -0.80079E+00    94
DAV:   1    -0.771922398649E+03    0.10769E-01   -0.32636E+00  6336   0.119E+00    0.851E-01
SOL: 445  -0.77748E+00    0.00000E+00   -0.77748E+00    91
RMM:   2    -0.771933646797E+03   -0.11248E-01   -0.84096E-02  5760   0.365E-01    0.368E-01
SOL: 446  -0.76247E+00    0.00000E+00   -0.76247E+00    88
RMM:   3    -0.771943250122E+03   -0.96033E-02   -0.10676E-02  5760   0.158E-01    0.210E+00
SOL: 447  -0.78006E+00    0.00000E+00   -0.78006E+00    91
RMM:   4    -0.771929616482E+03    0.13634E-01   -0.53395E-02  5760   0.379E-01    0.898E-01
SOL: 448  -0.78642E+00    0.00000E+00   -0.78642E+00    86
RMM:   5    -0.771930559131E+03   -0.94265E-03   -0.17358E-02  5760   0.198E-01    0.583E-01
SOL: 449  -0.77946E+00    0.00000E+00   -0.77946E+00    87
RMM:   6    -0.771934804993E+03   -0.42459E-02   -0.22925E-02  5760   0.278E-01    0.551E-01
SOL: 450  -0.77469E+00    0.00000E+00   -0.77469E+00    83
RMM:   7    -0.771932385167E+03    0.24198E-02   -0.12451E-03  5760   0.807E-02    0.304E-01
SOL: 451  -0.76981E+00    0.00000E+00   -0.76981E+00    83
RMM:   8    -0.771933019628E+03   -0.63446E-03   -0.12423E-03  5721   0.746E-02    0.113E-01
SOL: 452  -0.76716E+00    0.00000E+00   -0.76716E+00    80
RMM:   9    -0.771934520986E+03   -0.15014E-02   -0.82205E-04  5684   0.690E-02    0.100E-01
SOL: 453  -0.76402E+00    0.00000E+00   -0.76402E+00    80
RMM:  10    -0.771934973809E+03   -0.45282E-03   -0.26912E-04  5697   0.478E-02    0.852E-02
SOL: 454  -0.76075E+00    0.00000E+00   -0.76075E+00    80
RMM:  11    -0.771935169006E+03   -0.19520E-03   -0.18089E-04  5359   0.410E-02    0.377E-02
SOL: 455  -0.75729E+00    0.00000E+00   -0.75729E+00    80
RMM:  12    -0.771935250639E+03   -0.81634E-04   -0.23985E-04  5447   0.459E-02    0.960E-03
SOL: 456  -0.75323E+00    0.00000E+00   -0.75323E+00    80
RMM:  13    -0.771935498129E+03   -0.24749E-03   -0.21370E-04  5431   0.435E-02    0.102E-02
SOL: 457  -0.75105E+00    0.00000E+00   -0.75105E+00    77
RMM:  14    -0.771935687261E+03   -0.18913E-03   -0.15502E-04  5160   0.389E-02    0.881E-03
SOL: 458  -0.74942E+00    0.00000E+00   -0.74942E+00    75
RMM:  15    -0.771935767123E+03   -0.79862E-04   -0.10363E-04  4793   0.321E-02    0.364E-03
SOL: 459  -0.74884E+00    0.00000E+00   -0.74884E+00    69
RMM:  16    -0.771935805583E+03   -0.38460E-04   -0.87071E-05  4776   0.302E-02    0.243E-03
SOL: 460  -0.74859E+00    0.00000E+00   -0.74859E+00    68
RMM:  17    -0.771935667866E+03    0.13772E-03   -0.61801E-05  4662   0.254E-02    0.280E-03
SOL: 461  -0.74850E+00    0.00000E+00   -0.74850E+00    66
RMM:  18    -0.771935756577E+03   -0.88711E-04   -0.47314E-05  4615   0.220E-02    0.291E-03
SOL: 462  -0.74844E+00    0.00000E+00   -0.74844E+00    66
RMM:  19    -0.771935670043E+03    0.86534E-04   -0.40723E-05  4604   0.202E-02    0.280E-03
SOL: 463  -0.74837E+00    0.00000E+00   -0.74837E+00    66
RMM:  20    -0.771935708011E+03   -0.37968E-04   -0.37753E-05  4605   0.195E-02    0.226E-03
SOL: 464  -0.74832E+00    0.00000E+00   -0.74832E+00    64
RMM:  21    -0.771935680814E+03    0.27198E-04   -0.34335E-05  4596   0.186E-02    0.177E-03
SOL: 465  -0.74827E+00    0.00000E+00   -0.74827E+00    62
RMM:  22    -0.771935689389E+03   -0.85751E-05   -0.35001E-05  4584   0.186E-02
SOL: 466  -0.74824E+00    0.00000E+00   -0.74824E+00    60
  13 F= -.77193569E+03 E0= -.77192143E+03  d E =-.285135E-01  mag=     1.6291
 Finite differences progress:
  Degree of freedom:   6/ 12
  Displacement:        2/  2
  Total:              12/ 24
 bond charge predicted
       N       E                     dE             d eps       ncg     rms          rms(c)
SOL: 467  -0.74818E+00    0.00000E+00   -0.74818E+00    91
DAV:   1    -0.771929461148E+03    0.62197E-02   -0.32748E+00  5760   0.125E+00    0.661E-01
SOL: 468  -0.76300E+00    0.00000E+00   -0.76300E+00    89
RMM:   2    -0.771914673702E+03    0.14787E-01   -0.62102E-02  5760   0.320E-01    0.610E-01
SOL: 469  -0.77851E+00    0.00000E+00   -0.77851E+00    89
RMM:   3    -0.771907122076E+03    0.75516E-02   -0.12338E-02  5760   0.139E-01    0.876E-01
SOL: 470  -0.77980E+00    0.00000E+00   -0.77980E+00    86
RMM:   4    -0.771918044310E+03   -0.10922E-01   -0.15675E-02  5760   0.237E-01    0.964E-01
SOL: 471  -0.77820E+00    0.00000E+00   -0.77820E+00    87
RMM:   5    -0.771918715312E+03   -0.67100E-03   -0.10439E-02  5760   0.175E-01    0.982E-02
SOL: 472  -0.78457E+00    0.00000E+00   -0.78457E+00    85
RMM:   6    -0.771920433252E+03   -0.17179E-02   -0.94803E-03  5760   0.192E-01    0.184E-01
SOL: 473  -0.78905E+00    0.00000E+00   -0.78905E+00    82
RMM:   7    -0.771920920579E+03   -0.48733E-03   -0.16648E-03  5760   0.851E-02    0.755E-02
SOL: 474  -0.79100E+00    0.00000E+00   -0.79100E+00    82
RMM:   8    -0.771921747263E+03   -0.82668E-03   -0.72979E-04  5717   0.623E-02    0.290E-02
SOL: 475  -0.79388E+00    0.00000E+00   -0.79388E+00    79
RMM:   9    -0.771921662288E+03    0.84975E-04   -0.29246E-04  5533   0.505E-02    0.674E-02
SOL: 476  -0.79738E+00    0.00000E+00   -0.79738E+00    79
RMM:  10    -0.771922044826E+03   -0.38254E-03   -0.35572E-04  5363   0.488E-02    0.308E-02
SOL: 477  -0.80163E+00    0.00000E+00   -0.80163E+00    80
RMM:  11    -0.771921826093E+03    0.21873E-03   -0.20264E-04  5412   0.429E-02    0.376E-02
SOL: 478  -0.80502E+00    0.00000E+00   -0.80502E+00    78
RMM:  12    -0.771922283763E+03   -0.45767E-03   -0.17723E-04  5437   0.424E-02    0.311E-02
SOL: 479  -0.80890E+00    0.00000E+00   -0.80890E+00    78
RMM:  13    -0.771922273160E+03    0.10604E-04   -0.13246E-04  4956   0.347E-02    0.715E-03
SOL: 480  -0.81082E+00    0.00000E+00   -0.81082E+00    74
RMM:  14    -0.771922351142E+03   -0.77982E-04   -0.12765E-04  4891   0.347E-02    0.625E-03
SOL: 481  -0.81238E+00    0.00000E+00   -0.81238E+00    73
RMM:  15    -0.771922397406E+03   -0.46264E-04   -0.93132E-05  4728   0.310E-02    0.309E-03
SOL: 482  -0.81327E+00    0.00000E+00   -0.81327E+00    71
RMM:  16    -0.771922389219E+03    0.81872E-05   -0.74939E-05  4674   0.281E-02
SOL: 483  -0.81352E+00    0.00000E+00   -0.81352E+00    65
  14 F= -.77192239E+03 E0= -.77190769E+03  d E =-.293915E-01  mag=     1.6360
 Finite differences progress:
  Degree of freedom:   7/ 12
  Displacement:        1/  2
  Total:              13/ 24
 bond charge predicted
       N       E                     dE             d eps       ncg     rms          rms(c)
SOL: 484  -0.81559E+00    0.00000E+00   -0.81559E+00    91
DAV:   1    -0.771898933866E+03    0.23464E-01   -0.96202E+00  5760   0.209E+00    0.931E-01
SOL: 485  -0.81125E+00    0.00000E+00   -0.81125E+00    87
RMM:   2    -0.771926330284E+03   -0.27396E-01   -0.10066E-01  5760   0.302E-01    0.841E-01
SOL: 486  -0.79712E+00    0.00000E+00   -0.79712E+00    89
RMM:   3    -0.771925848209E+03    0.48207E-03   -0.18220E-02  5760   0.174E-01    0.516E-01
SOL: 487  -0.76504E+00    0.00000E+00   -0.76504E+00    91
RMM:   4    -0.771936420150E+03   -0.10572E-01   -0.20673E-02  5760   0.182E-01    0.256E+00
SOL: 488  -0.78219E+00    0.00000E+00   -0.78219E+00    91
RMM:   5    -0.771916813479E+03    0.19607E-01   -0.73044E-02  5760   0.451E-01    0.135E+00
SOL: 489  -0.79008E+00    0.00000E+00   -0.79008E+00    87
[...]
SOL: 746  -0.75065E+00    0.00000E+00   -0.75065E+00    83
RMM:  11    -0.771931599439E+03   -0.61841E-03   -0.61773E-04  5760   0.645E-02    0.438E-02
SOL: 747  -0.74235E+00    0.00000E+00   -0.74235E+00    82
RMM:  12    -0.771932477874E+03   -0.87843E-03   -0.45056E-04  5760   0.586E-02    0.184E-02
SOL: 748  -0.73394E+00    0.00000E+00   -0.73394E+00    82
RMM:  13    -0.771932869632E+03   -0.39176E-03   -0.30926E-04  5724   0.509E-02    0.321E-02
SOL: 749  -0.73002E+00    0.00000E+00   -0.73002E+00    78
RMM:  14    -0.771933028274E+03   -0.15864E-03   -0.20113E-04  5558   0.458E-02    0.185E-02
SOL: 750  -0.72518E+00    0.00000E+00   -0.72518E+00    79
RMM:  15    -0.771933293037E+03   -0.26476E-03   -0.16649E-04  5182   0.393E-02    0.785E-03
SOL: 751  -0.72403E+00    0.00000E+00   -0.72403E+00    71
RMM:  16    -0.771933429099E+03   -0.13606E-03   -0.14233E-04  5061   0.379E-02    0.693E-03
SOL: 752  -0.72341E+00    0.00000E+00   -0.72341E+00    70
RMM:  17    -0.771933561742E+03   -0.13264E-03   -0.83812E-05  4676   0.296E-02    0.313E-03
SOL: 753  -0.72299E+00    0.00000E+00   -0.72299E+00    68
RMM:  18    -0.771933524543E+03    0.37199E-04   -0.73005E-05  4674   0.274E-02    0.550E-03
SOL: 754  -0.72284E+00    0.00000E+00   -0.72284E+00    66
RMM:  19    -0.771933455760E+03    0.68783E-04   -0.57168E-05  4654   0.243E-02    0.260E-03
SOL: 755  -0.72281E+00    0.00000E+00   -0.72281E+00    64
RMM:  20    -0.771933498555E+03   -0.42794E-04   -0.42822E-05  4604   0.211E-02    0.143E-03
SOL: 756  -0.72276E+00    0.00000E+00   -0.72276E+00    65
RMM:  21    -0.771933507916E+03   -0.93617E-05   -0.35911E-05  4604   0.188E-02
SOL: 757  -0.72269E+00    0.00000E+00   -0.72269E+00    63
  23 F= -.77193351E+03 E0= -.77191944E+03  d E =-.281269E-01  mag=     1.6254
 Finite differences progress:
  Degree of freedom:  11/ 12
  Displacement:        2/  2
  Total:              22/ 24
 bond charge predicted
       N       E                     dE             d eps       ncg     rms          rms(c)
SOL: 758  -0.72244E+00    0.00000E+00   -0.72244E+00    88
DAV:   1    -0.771948620719E+03   -0.15122E-01   -0.47424E+00  6336   0.145E+00    0.492E-01
SOL: 759  -0.73255E+00    0.00000E+00   -0.73255E+00    88
RMM:   2    -0.771932139325E+03    0.16481E-01   -0.50491E-02  5760   0.275E-01    0.330E-01
SOL: 760  -0.74800E+00    0.00000E+00   -0.74800E+00    89
RMM:   3    -0.771930753594E+03    0.13857E-02   -0.95727E-03  5760   0.129E-01    0.924E-01
SOL: 761  -0.74244E+00    0.00000E+00   -0.74244E+00    87
RMM:   4    -0.771937792892E+03   -0.70393E-02   -0.12190E-02  5760   0.218E-01    0.642E-01
SOL: 762  -0.73654E+00    0.00000E+00   -0.73654E+00    86
RMM:   5    -0.771935280980E+03    0.25119E-02   -0.65677E-03  5760   0.125E-01    0.493E-01
SOL: 763  -0.74616E+00    0.00000E+00   -0.74616E+00    87
RMM:   6    -0.771936541330E+03   -0.12603E-02   -0.13730E-02  5760   0.209E-01    0.166E-01
SOL: 764  -0.74801E+00    0.00000E+00   -0.74801E+00    77
RMM:   7    -0.771936580782E+03   -0.39452E-04   -0.12396E-03  5649   0.699E-02    0.840E-02
SOL: 765  -0.74866E+00    0.00000E+00   -0.74866E+00    81
RMM:   8    -0.771937255103E+03   -0.67432E-03   -0.11847E-03  5637   0.785E-02    0.564E-02
SOL: 766  -0.75098E+00    0.00000E+00   -0.75098E+00    77
RMM:   9    -0.771937581301E+03   -0.32620E-03   -0.38238E-04  5220   0.531E-02    0.526E-02
SOL: 767  -0.75395E+00    0.00000E+00   -0.75395E+00    78
RMM:  10    -0.771937057127E+03    0.52417E-03   -0.21874E-04  5502   0.454E-02    0.324E-02
SOL: 768  -0.75659E+00    0.00000E+00   -0.75659E+00    76
RMM:  11    -0.771937598769E+03   -0.54164E-03   -0.18247E-04  5419   0.425E-02    0.268E-02
SOL: 769  -0.75893E+00    0.00000E+00   -0.75893E+00    76
RMM:  12    -0.771937772517E+03   -0.17375E-03   -0.11573E-04  4849   0.335E-02    0.137E-02
SOL: 770  -0.76145E+00    0.00000E+00   -0.76145E+00    76
RMM:  13    -0.771937784673E+03   -0.12155E-04   -0.12824E-04  5067   0.359E-02    0.495E-03
SOL: 771  -0.76381E+00    0.00000E+00   -0.76381E+00    75
RMM:  14    -0.771937769525E+03    0.15147E-04   -0.12865E-04  5015   0.362E-02    0.540E-03
SOL: 772  -0.76539E+00    0.00000E+00   -0.76539E+00    73
RMM:  15    -0.771937862137E+03   -0.92612E-04   -0.93473E-05  4749   0.310E-02    0.598E-03
SOL: 773  -0.76604E+00    0.00000E+00   -0.76604E+00    68
RMM:  16    -0.771937820184E+03    0.41953E-04   -0.75929E-05  4687   0.284E-02    0.337E-03
SOL: 774  -0.76636E+00    0.00000E+00   -0.76636E+00    64
RMM:  17    -0.771937753174E+03    0.67009E-04   -0.60072E-05  4634   0.253E-02    0.113E-03
SOL: 775  -0.76647E+00    0.00000E+00   -0.76647E+00    61
RMM:  18    -0.771937787536E+03   -0.34362E-04   -0.44103E-05  4600   0.215E-02    0.777E-04
SOL: 776  -0.76653E+00    0.00000E+00   -0.76653E+00    60
RMM:  19    -0.771937751567E+03    0.35968E-04   -0.39527E-05  4600   0.203E-02    0.820E-04
SOL: 777  -0.76659E+00    0.00000E+00   -0.76659E+00    60
RMM:  20    -0.771937792582E+03   -0.41015E-04   -0.41889E-05  4595   0.207E-02    0.782E-04
SOL: 778  -0.76663E+00    0.00000E+00   -0.76663E+00    60
RMM:  21    -0.771937767846E+03    0.24737E-04   -0.47096E-05  4600   0.218E-02    0.104E-03
SOL: 779  -0.76667E+00    0.00000E+00   -0.76667E+00    59
RMM:  22    -0.771937800255E+03   -0.32410E-04   -0.53146E-05  4670   0.231E-02    0.796E-04
SOL: 780  -0.76669E+00    0.00000E+00   -0.76669E+00    59
RMM:  23    -0.771937727110E+03    0.73145E-04   -0.59044E-05  4741   0.240E-02    0.867E-04
SOL: 781  -0.76670E+00    0.00000E+00   -0.76670E+00    59
RMM:  24    -0.771937797399E+03   -0.70289E-04   -0.67642E-05  4833   0.254E-02    0.731E-04
SOL: 782  -0.76671E+00    0.00000E+00   -0.76671E+00    59
RMM:  25    -0.771937769111E+03    0.28288E-04   -0.75405E-05  4895   0.268E-02    0.829E-04
SOL: 783  -0.76672E+00    0.00000E+00   -0.76672E+00    57
RMM:  26    -0.771937838120E+03   -0.69010E-04   -0.85110E-05  4931   0.282E-02    0.818E-04
SOL: 784  -0.76673E+00    0.00000E+00   -0.76673E+00    58
RMM:  27    -0.771937756137E+03    0.81983E-04   -0.89372E-05  4933   0.289E-02    0.813E-04
SOL: 785  -0.76673E+00    0.00000E+00   -0.76673E+00    58
RMM:  28    -0.771937830712E+03   -0.74575E-04   -0.97300E-05  4922   0.298E-02    0.898E-04
SOL: 786  -0.76673E+00    0.00000E+00   -0.76673E+00    56
RMM:  29    -0.771937731474E+03    0.99238E-04   -0.10133E-04  4924   0.302E-02    0.829E-04
SOL: 787  -0.76673E+00    0.00000E+00   -0.76673E+00    58
RMM:  30    -0.771937855451E+03   -0.12398E-03   -0.10419E-04  4935   0.305E-02    0.931E-04
SOL: 788  -0.76673E+00    0.00000E+00   -0.76673E+00    56
RMM:  31    -0.771937768804E+03    0.86647E-04   -0.10768E-04  4943   0.313E-02    0.883E-04
SOL: 789  -0.76673E+00    0.00000E+00   -0.76673E+00    57
RMM:  32    -0.771937816241E+03   -0.47437E-04   -0.11499E-04  4944   0.320E-02    0.995E-04
SOL: 790  -0.76673E+00    0.00000E+00   -0.76673E+00    56
RMM:  33    -0.771937745478E+03    0.70763E-04   -0.11553E-04  4944   0.319E-02    0.893E-04
SOL: 791  -0.76673E+00    0.00000E+00   -0.76673E+00    57
RMM:  34    -0.771937841742E+03   -0.96264E-04   -0.11958E-04  4948   0.324E-02    0.101E-03
SOL: 792  -0.76673E+00    0.00000E+00   -0.76673E+00    56
RMM:  35    -0.771937751477E+03    0.90264E-04   -0.12192E-04  4949   0.327E-02    0.974E-04
SOL: 793  -0.76673E+00    0.00000E+00   -0.76673E+00    56
RMM:  36    -0.771937881176E+03   -0.12970E-03   -0.12431E-04  4950   0.330E-02    0.107E-03
SOL: 794  -0.76673E+00    0.00000E+00   -0.76673E+00    56
RMM:  37    -0.771937742147E+03    0.13903E-03   -0.12474E-04  4950   0.331E-02    0.931E-04
SOL: 795  -0.76673E+00    0.00000E+00   -0.76673E+00    57
RMM:  38    -0.771937848329E+03   -0.10618E-03   -0.12376E-04  4951   0.331E-02    0.103E-03
SOL: 796  -0.76673E+00    0.00000E+00   -0.76673E+00    56
RMM:  39    -0.771937765830E+03    0.82499E-04   -0.12390E-04  4951   0.330E-02    0.953E-04
SOL: 797  -0.76673E+00    0.00000E+00   -0.76673E+00    57
RMM:  40    -0.771937848851E+03   -0.83021E-04   -0.12746E-04  4953   0.334E-02    0.110E-03
SOL: 798  -0.76673E+00    0.00000E+00   -0.76673E+00    56
RMM:  41    -0.771937751730E+03    0.97122E-04   -0.12309E-04  4963   0.329E-02    0.948E-04
SOL: 799  -0.76673E+00    0.00000E+00   -0.76673E+00    57
RMM:  42    -0.771937815136E+03   -0.63407E-04   -0.11564E-04  4963   0.321E-02    0.101E-03
SOL: 800  -0.76673E+00    0.00000E+00   -0.76673E+00    56
RMM:  43    -0.771937745948E+03    0.69188E-04   -0.11970E-04  4953   0.325E-02    0.930E-04
SOL: 801  -0.76673E+00    0.00000E+00   -0.76673E+00    56
RMM:  44    -0.771937840564E+03   -0.94617E-04   -0.12581E-04  4953   0.331E-02    0.104E-03
SOL: 802  -0.76673E+00    0.00000E+00   -0.76673E+00    57
RMM:  45    -0.771937734047E+03    0.10652E-03   -0.12431E-04  4953   0.330E-02    0.101E-03
SOL: 803  -0.76673E+00    0.00000E+00   -0.76673E+00    56
RMM:  46    -0.771937860296E+03   -0.12625E-03   -0.12687E-04  4963   0.333E-02    0.115E-03
SOL: 804  -0.76673E+00    0.00000E+00   -0.76673E+00    57
RMM:  47    -0.771937739360E+03    0.12094E-03   -0.12638E-04  4963   0.336E-02    0.958E-04
SOL: 805  -0.76673E+00    0.00000E+00   -0.76673E+00    57
RMM:  48    -0.771937845493E+03   -0.10613E-03   -0.12370E-04  4948   0.332E-02    0.107E-03
SOL: 806  -0.76673E+00    0.00000E+00   -0.76673E+00    56
RMM:  49    -0.771937710360E+03    0.13513E-03   -0.12312E-04  4953   0.330E-02    0.969E-04
SOL: 807  -0.76673E+00    0.00000E+00   -0.76673E+00    56
RMM:  50    -0.771937841919E+03   -0.13156E-03   -0.13141E-04  4958   0.337E-02    0.116E-03
SOL: 808  -0.76673E+00    0.00000E+00   -0.76673E+00    56
RMM:  51    -0.771937751600E+03    0.90319E-04   -0.13004E-04  4956   0.336E-02    0.946E-04
SOL: 809  -0.76673E+00    0.00000E+00   -0.76673E+00    56
RMM:  52    -0.771937827462E+03   -0.75862E-04   -0.11906E-04  4946   0.324E-02    0.108E-03
SOL: 810  -0.76673E+00    0.00000E+00   -0.76673E+00    56
RMM:  53    -0.771937747813E+03    0.79649E-04   -0.11926E-04  4951   0.323E-02    0.947E-04
SOL: 811  -0.76673E+00    0.00000E+00   -0.76673E+00    56
RMM:  54    -0.771937839388E+03   -0.91574E-04   -0.12899E-04  4943   0.334E-02    0.107E-03
SOL: 812  -0.76673E+00    0.00000E+00   -0.76673E+00    57
RMM:  55    -0.771937728325E+03    0.11106E-03   -0.12873E-04  4950   0.334E-02    0.983E-04
SOL: 813  -0.76673E+00    0.00000E+00   -0.76673E+00    57
RMM:  56    -0.771937831987E+03   -0.10366E-03   -0.12635E-04  4953   0.334E-02    0.109E-03
SOL: 814  -0.76674E+00    0.00000E+00   -0.76674E+00    59
RMM:  57    -0.771937754777E+03    0.77210E-04   -0.12722E-04  4963   0.336E-02    0.979E-04
SOL: 815  -0.76674E+00    0.00000E+00   -0.76674E+00    57
RMM:  58    -0.771937830024E+03   -0.75246E-04   -0.12913E-04  4960   0.335E-02    0.114E-03
SOL: 816  -0.76674E+00    0.00000E+00   -0.76674E+00    57
RMM:  59    -0.771937755640E+03    0.74383E-04   -0.12941E-04  4955   0.336E-02    0.971E-04
SOL: 817  -0.76674E+00    0.00000E+00   -0.76674E+00    56
RMM:  60    -0.771937848414E+03   -0.92774E-04   -0.13135E-04  4950   0.340E-02    0.115E-03
SOL: 818  -0.76674E+00    0.00000E+00   -0.76674E+00    56
RMM:  61    -0.771937684490E+03    0.16392E-03   -0.12865E-04  4950   0.337E-02    0.970E-04
SOL: 819  -0.76673E+00    0.00000E+00   -0.76673E+00    56
RMM:  62    -0.771937853628E+03   -0.16914E-03   -0.12952E-04  4960   0.336E-02    0.120E-03
SOL: 820  -0.76673E+00    0.00000E+00   -0.76673E+00    57
RMM:  63    -0.771937717133E+03    0.13650E-03   -0.12542E-04  4960   0.330E-02    0.945E-04
SOL: 821  -0.76673E+00    0.00000E+00   -0.76673E+00    57
RMM:  64    -0.771937850499E+03   -0.13337E-03   -0.12667E-04  4960   0.335E-02    0.107E-03
SOL: 822  -0.76673E+00    0.00000E+00   -0.76673E+00    56
RMM:  65    -0.771937725548E+03    0.12495E-03   -0.12624E-04  4960   0.332E-02    0.953E-04
SOL: 823  -0.76673E+00    0.00000E+00   -0.76673E+00    57
RMM:  66    -0.771937898777E+03   -0.17323E-03   -0.13069E-04  4960   0.337E-02    0.116E-03
SOL: 824  -0.76673E+00    0.00000E+00   -0.76673E+00    56
RMM:  67    -0.771937746190E+03    0.15259E-03   -0.13159E-04  4965   0.341E-02    0.999E-04
SOL: 825  -0.76673E+00    0.00000E+00   -0.76673E+00    57
RMM:  68    -0.771937833894E+03   -0.87703E-04   -0.13099E-04  4965   0.340E-02    0.114E-03
SOL: 826  -0.76673E+00    0.00000E+00   -0.76673E+00    56
RMM:  69    -0.771937724965E+03    0.10893E-03   -0.12945E-04  4961   0.337E-02    0.968E-04
SOL: 827  -0.76673E+00    0.00000E+00   -0.76673E+00    57
RMM:  70    -0.771937869214E+03   -0.14425E-03   -0.13390E-04  4966   0.341E-02    0.115E-03
SOL: 828  -0.76673E+00    0.00000E+00   -0.76673E+00    56
RMM:  71    -0.771937737138E+03    0.13208E-03   -0.13286E-04  4961   0.343E-02    0.953E-04
SOL: 829  -0.76673E+00    0.00000E+00   -0.76673E+00    56
RMM:  72    -0.771937851166E+03   -0.11403E-03   -0.12710E-04  4961   0.339E-02    0.107E-03
SOL: 830  -0.76673E+00    0.00000E+00   -0.76673E+00    56
RMM:  73    -0.771937743777E+03    0.10739E-03   -0.13117E-04  4956   0.343E-02    0.986E-04
SOL: 831  -0.76673E+00    0.00000E+00   -0.76673E+00    57
RMM:  74    -0.771937856783E+03   -0.11301E-03   -0.13950E-04  4972   0.350E-02    0.119E-03
SOL: 832  -0.76673E+00    0.00000E+00   -0.76673E+00    57
RMM:  75    -0.771937702618E+03    0.15417E-03   -0.13619E-04  4972   0.346E-02    0.972E-04
SOL: 833  -0.76673E+00    0.00000E+00   -0.76673E+00    57
RMM:  76    -0.771937847374E+03   -0.14476E-03   -0.13204E-04  4977   0.341E-02    0.108E-03
SOL: 834  -0.76673E+00    0.00000E+00   -0.76673E+00    57
RMM:  77    -0.771937686664E+03    0.16071E-03   -0.13388E-04  4977   0.344E-02    0.995E-04
SOL: 835  -0.76673E+00    0.00000E+00   -0.76673E+00    57
RMM:  78    -0.771937897093E+03   -0.21043E-03   -0.14162E-04  4981   0.351E-02    0.122E-03
SOL: 836  -0.76673E+00    0.00000E+00   -0.76673E+00    57
RMM:  79    -0.771937730364E+03    0.16673E-03   -0.13755E-04  4986   0.347E-02    0.981E-04
SOL: 837  -0.76673E+00    0.00000E+00   -0.76673E+00    57
RMM:  80    -0.771937853523E+03   -0.12316E-03   -0.13001E-04  4986   0.341E-02    0.109E-03
SOL: 838  -0.76673E+00    0.00000E+00   -0.76673E+00    57
RMM:  81    -0.771937722888E+03    0.13063E-03   -0.13237E-04  4979   0.344E-02    0.100E-03
SOL: 839  -0.76673E+00    0.00000E+00   -0.76673E+00    57
RMM:  82    -0.771937852423E+03   -0.12954E-03   -0.13719E-04  4976   0.347E-02    0.112E-03
SOL: 840  -0.76673E+00    0.00000E+00   -0.76673E+00    57
RMM:  83    -0.771937741864E+03    0.11056E-03   -0.13051E-04  4971   0.338E-02    0.987E-04
SOL: 841  -0.76673E+00    0.00000E+00   -0.76673E+00    57
RMM:  84    -0.771937861297E+03   -0.11943E-03   -0.13023E-04  4966   0.337E-02    0.112E-03
SOL: 842  -0.76673E+00    0.00000E+00   -0.76673E+00    56
RMM:  85    -0.771937734763E+03    0.12653E-03   -0.13482E-04  4967   0.343E-02    0.100E-03
SOL: 843  -0.76673E+00    0.00000E+00   -0.76673E+00    57
RMM:  86    -0.771937872361E+03   -0.13760E-03   -0.13845E-04  4967   0.350E-02    0.112E-03
SOL: 844  -0.76673E+00    0.00000E+00   -0.76673E+00    57
RMM:  87    -0.771937746361E+03    0.12600E-03   -0.13537E-04  4972   0.344E-02    0.993E-04
SOL: 845  -0.76673E+00    0.00000E+00   -0.76673E+00    57
RMM:  88    -0.771937878993E+03   -0.13263E-03   -0.13182E-04  4972   0.339E-02    0.110E-03
SOL: 846  -0.76673E+00    0.00000E+00   -0.76673E+00    57
RMM:  89    -0.771937733313E+03    0.14568E-03   -0.13133E-04  4962   0.341E-02    0.989E-04
SOL: 847  -0.76673E+00    0.00000E+00   -0.76673E+00    57
RMM:  90    -0.771937872135E+03   -0.13882E-03   -0.14183E-04  4978   0.351E-02    0.121E-03
SOL: 848  -0.76673E+00    0.00000E+00   -0.76673E+00    57
RMM:  91    -0.771937741695E+03    0.13044E-03   -0.13742E-04  4978   0.346E-02    0.982E-04
SOL: 849  -0.76673E+00    0.00000E+00   -0.76673E+00    57
RMM:  92    -0.771937855536E+03   -0.11384E-03   -0.12572E-04  4978   0.333E-02    0.109E-03
SOL: 850  -0.76672E+00    0.00000E+00   -0.76672E+00    56
RMM:  93    -0.771937749346E+03    0.10619E-03   -0.12932E-04  4978   0.338E-02    0.982E-04
SOL: 851  -0.76672E+00    0.00000E+00   -0.76672E+00    57
RMM:  94    -0.771937891164E+03   -0.14182E-03   -0.14173E-04  4983   0.353E-02    0.121E-03
SOL: 852  -0.76672E+00    0.00000E+00   -0.76672E+00    57
RMM:  95    -0.771937731399E+03    0.15977E-03   -0.14083E-04  4976   0.352E-02    0.101E-03
SOL: 853  -0.76673E+00    0.00000E+00   -0.76673E+00    57
RMM:  96    -0.771937885071E+03   -0.15367E-03   -0.13404E-04  4978   0.342E-02    0.113E-03
SOL: 854  -0.76672E+00    0.00000E+00   -0.76672E+00    56
RMM:  97    -0.771937739155E+03    0.14592E-03   -0.13084E-04  4983   0.338E-02    0.948E-04
SOL: 855  -0.76673E+00    0.00000E+00   -0.76673E+00    57
RMM:  98    -0.771937867718E+03   -0.12856E-03   -0.13301E-04  4988   0.338E-02    0.114E-03
SOL: 856  -0.76672E+00    0.00000E+00   -0.76672E+00    56
RMM:  99    -0.771937739980E+03    0.12774E-03   -0.13382E-04  4988   0.341E-02    0.999E-04
SOL: 857  -0.76673E+00    0.00000E+00   -0.76673E+00    57
RMM: 100    -0.771937867394E+03   -0.12741E-03   -0.13774E-04  4983   0.345E-02
SOL: 858  -0.76672E+00    0.00000E+00   -0.76672E+00    56
  24 F= -.77193787E+03 E0= -.77192346E+03  d E =-.288050E-01  mag=     1.6311
 Finite differences progress:
  Degree of freedom:  12/ 12
  Displacement:        1/  2
  Total:              23/ 24
 bond charge predicted
       N       E                     dE             d eps       ncg     rms          rms(c)
SOL: 859  -0.76631E+00    0.00000E+00   -0.76631E+00    89
DAV:   1    -0.771940624604E+03   -0.28846E-02   -0.94866E+00  5760   0.203E+00    0.790E-01
SOL: 860  -0.78536E+00    0.00000E+00   -0.78536E+00    91
RMM:   2    -0.771919145457E+03    0.21479E-01   -0.10300E-01  5760   0.392E-01    0.668E-01
SOL: 861  -0.78416E+00    0.00000E+00   -0.78416E+00    85
RMM:   3    -0.771935238165E+03   -0.16093E-01   -0.12932E-02  5760   0.197E-01    0.888E-01
SOL: 862  -0.77697E+00    0.00000E+00   -0.77697E+00    87
RMM:   4    -0.771937029563E+03   -0.17914E-02   -0.84765E-03  5760   0.177E-01    0.349E-01
SOL: 863  -0.77146E+00    0.00000E+00   -0.77146E+00    86
RMM:   5    -0.771936054317E+03    0.97525E-03   -0.79101E-03  5760   0.168E-01    0.742E-01
SOL: 864  -0.78116E+00    0.00000E+00   -0.78116E+00    87
RMM:   6    -0.771933388506E+03    0.26658E-02   -0.13064E-02  5760   0.201E-01    0.113E-01
SOL: 865  -0.78060E+00    0.00000E+00   -0.78060E+00    83
RMM:   7    -0.771935791728E+03   -0.24032E-02   -0.58397E-03  5712   0.138E-01    0.193E-01
SOL: 866  -0.78007E+00    0.00000E+00   -0.78007E+00    80
RMM:   8    -0.771935098629E+03    0.69310E-03   -0.93929E-04  5236   0.678E-02    0.318E-02
SOL: 867  -0.78042E+00    0.00000E+00   -0.78042E+00    74
RMM:   9    -0.771935783305E+03   -0.68468E-03   -0.46472E-04  5158   0.509E-02    0.114E-02
SOL: 868  -0.78082E+00    0.00000E+00   -0.78082E+00    78
RMM:  10    -0.771935951358E+03   -0.16805E-03   -0.18925E-04  5024   0.387E-02    0.288E-02
SOL: 869  -0.78128E+00    0.00000E+00   -0.78128E+00    73
RMM:  11    -0.771936134137E+03   -0.18278E-03   -0.14385E-04  4934   0.351E-02    0.225E-02
SOL: 870  -0.78152E+00    0.00000E+00   -0.78152E+00    70
RMM:  12    -0.771936157409E+03   -0.23271E-04   -0.71050E-05  4685   0.271E-02    0.190E-02
SOL: 871  -0.78185E+00    0.00000E+00   -0.78185E+00    71
RMM:  13    -0.771936152018E+03    0.53907E-05   -0.59814E-05  4667   0.248E-02
SOL: 872  -0.78221E+00    0.00000E+00   -0.78221E+00    71
  25 F= -.77193615E+03 E0= -.77192158E+03  d E =-.291455E-01  mag=     1.6329
 Finite differences progress:
  Degree of freedom:  12/ 12
  Displacement:        2/  2
  Total:              24/ 24
 Finite differences POTIM=  2.000000000000000E-002
Job finished on bc10u15n4 at Thu Dec 17 08:06:16 CST 2020
