 vasp.5.4.4.18Apr17-6-g9f103f2a35 (build May 01 2020 14:57:12) complex          
  
 executed on             LinuxIFC date 2021.01.07  13:44:22
 running on   96 total cores
 distrk:  each k-point on   24 cores,    4 groups
 distr:  one band on NCORES_PER_BAND=   6 cores,    4 groups


--------------------------------------------------------------------------------------------------------


 INCAR:
 POTCAR:    PAW_PBE B 06Sep2000                   
 POTCAR:    PAW_PBE N 08Apr2002                   

 ----------------------------------------------------------------------------- 
|                                                                             |
|           W    W    AA    RRRRR   N    N  II  N    N   GGGG   !!!           |
|           W    W   A  A   R    R  NN   N  II  NN   N  G    G  !!!           |
|           W    W  A    A  R    R  N N  N  II  N N  N  G       !!!           |
|           W WW W  AAAAAA  RRRRR   N  N N  II  N  N N  G  GGG   !            |
|           WW  WW  A    A  R   R   N   NN  II  N   NN  G    G                |
|           W    W  A    A  R    R  N    N  II  N    N   GGGG   !!!           |
|                                                                             |
|      You have enabled k-point parallelism (KPAR>1).                         |
|      This developmental code was originally  written by Paul Kent at ORNL,  |
|      and carefully double checked in Vienna.                                |
|      GW as well as linear response parallelism added by Martijn Marsman     |
|      and Georg Kresse.                                                      |
|      Carefully verify results versus KPAR=1.                                |
|      Report problems to Paul Kent and Vienna.                               |
|                                                                             |
 ----------------------------------------------------------------------------- 

 POTCAR:    PAW_PBE B 06Sep2000                   
   VRHFIN =B: s2p1                                                              
   LEXCH  = PE                                                                  
   EATOM  =    71.1703 eV,    5.2309 Ry                                         
                                                                                
   TITEL  = PAW_PBE B 06Sep2000                                                 
   LULTRA =        F    use ultrasoft PP ?                                      
   IUNSCR =        1    unscreen: 0-lin 1-nonlin 2-no                           
   RPACOR =    1.200    partial core radius                                     
   POMASS =   10.811; ZVAL   =    3.000    mass and valenz                      
   RCORE  =    1.700    outmost cutoff radius                                   
   RWIGS  =    1.710; RWIGS  =    0.905    wigner-seitz radius (au A)           
   ENMAX  =  318.614; ENMIN  =  238.960 eV                                      
   ICORE  =        2    local potential                                         
   LCOR   =        T    correct aug charges                                     
   LPAW   =        T    paw PP                                                  
   EAUG   =  535.514                                                            
   DEXC   =    0.000                                                            
   RMAX   =    1.732    core radius for proj-oper                               
   RAUG   =    1.300    factor for augmentation sphere                          
   RDEP   =    1.757    radius for radial grids                                 
   RDEPT  =    1.436    core radius for aug-charge                              
                                                                                
   Atomic configuration                                                         
    4 entries                                                                   
     n  l   j            E        occ.                                          
     1  0  0.50      -180.5896   2.0000                                         
     2  0  0.50        -9.4431   2.0000                                         
     2  1  0.50        -3.6068   1.0000                                         
     3  2  1.50        -4.0817   0.0000                                         
   Description                                                                  
     l       E           TYP  RCUT    TYP  RCUT                                 
     0     -9.4430752     23  1.500                                             
     0      0.8675899     23  1.500                                             
     1     -3.6067955     23  1.700                                             
     1      6.1086146     23  1.700                                             
     2     -4.0817478      7  1.700                                             
  local pseudopotential read in
  partial core-charges read in
  partial kinetic energy density read in
  atomic valenz-charges read in
  non local Contribution for L=           0  read in
    real space projection operators read in
  non local Contribution for L=           0  read in
    real space projection operators read in
  non local Contribution for L=           1  read in
    real space projection operators read in
  non local Contribution for L=           1  read in
    real space projection operators read in
    PAW grid and wavefunctions read in
 
   number of l-projection  operators is LMAX  =           4
   number of lm-projection operators is LMMAX =           8
 
 POTCAR:    PAW_PBE N 08Apr2002                   
   VRHFIN =N: s2p3                                                              
   LEXCH  = PE                                                                  
   EATOM  =   264.5486 eV,   19.4438 Ry                                         
                                                                                
   TITEL  = PAW_PBE N 08Apr2002                                                 
   LULTRA =        F    use ultrasoft PP ?                                      
   IUNSCR =        1    unscreen: 0-lin 1-nonlin 2-no                           
   RPACOR =    1.200    partial core radius                                     
   POMASS =   14.001; ZVAL   =    5.000    mass and valenz                      
   RCORE  =    1.500    outmost cutoff radius                                   
   RWIGS  =    1.400; RWIGS  =    0.741    wigner-seitz radius (au A)           
   ENMAX  =  400.000; ENMIN  =  300.000 eV                                      
   ICORE  =        2    local potential                                         
   LCOR   =        T    correct aug charges                                     
   LPAW   =        T    paw PP                                                  
   EAUG   =  627.112                                                            
   DEXC   =    0.000                                                            
   RMAX   =    1.529    core radius for proj-oper                               
   RAUG   =    1.300    factor for augmentation sphere                          
   RDEP   =    1.514    radius for radial grids                                 
   RDEPT  =    1.338    core radius for aug-charge                              
                                                                                
   Atomic configuration                                                         
    4 entries                                                                   
     n  l   j            E        occ.                                          
     1  0  0.50      -384.7179   2.0000                                         
     2  0  0.50       -18.5828   2.0000                                         
     2  1  0.50        -7.0898   3.0000                                         
     3  2  1.50        -6.8029   0.0000                                         
   Description                                                                  
     l       E           TYP  RCUT    TYP  RCUT                                 
     0    -18.5828119     23  1.200                                             
     0    -13.5018863     23  1.200                                             
     1     -7.0897853     23  1.500                                             
     1      9.5240782     23  1.500                                             
     2     -6.8029130      7  1.500                                             
  local pseudopotential read in
  partial core-charges read in
  partial kinetic energy density read in
  atomic valenz-charges read in
  non local Contribution for L=           0  read in
    real space projection operators read in
  non local Contribution for L=           0  read in
    real space projection operators read in
  non local Contribution for L=           1  read in
    real space projection operators read in
  non local Contribution for L=           1  read in
    real space projection operators read in
    PAW grid and wavefunctions read in
 
   number of l-projection  operators is LMAX  =           4
   number of lm-projection operators is LMMAX =           8
 
 Optimization of the real space projectors (new method)

 maximal supplied QI-value         = 22.11
 optimisation between [QCUT,QGAM] = [ 11.94, 23.88] = [ 39.92,159.67] Ry 
 Optimized for a Real-space Cutoff    1.18 Angstroem

   l    n(q)    QCUT    max X(q) W(low)/X(q) W(high)/X(q)  e(spline) 
   0      8    11.939    53.033    0.11E-03    0.34E-03    0.60E-07
   0      8    11.939    34.740    0.11E-03    0.34E-03    0.59E-07
   1      8    11.939    30.949    0.22E-03    0.20E-03    0.17E-06
   1      8    11.939    19.518    0.20E-03    0.18E-03    0.16E-06
 Optimization of the real space projectors (new method)

 maximal supplied QI-value         = 25.13
 optimisation between [QCUT,QGAM] = [ 11.81, 23.88] = [ 39.08,159.64] Ry 
 Optimized for a Real-space Cutoff    1.41 Angstroem

   l    n(q)    QCUT    max X(q) W(low)/X(q) W(high)/X(q)  e(spline) 
   0     10    11.813    79.467    0.48E-04    0.30E-04    0.67E-06
   0     10    11.813    66.151    0.47E-04    0.30E-04    0.67E-06
   1     10    11.813    20.169    0.11E-03    0.17E-03    0.11E-05
   1     10    11.813    14.454    0.11E-03    0.17E-03    0.11E-05
  PAW_PBE B 06Sep2000                   :
 energy of atom  1       EATOM=  -71.1703
 kinetic energy error for atom=    0.0009 (will be added to EATOM!!)
  PAW_PBE N 08Apr2002                   :
 energy of atom  2       EATOM= -264.5486
 kinetic energy error for atom=    0.0116 (will be added to EATOM!!)
 
 
 POSCAR: B N                                     
  positions in direct lattice
  velocities in cartesian coordinates

 METAGGA = SCAN     LMAXTAU =  6    LMIXTAU =  F

 exchange correlation table for  LEXCH =        8
   RHO(1)=    0.500       N(1)  =     2000
   RHO(2)=  100.500       N(2)  =     4000
 


--------------------------------------------------------------------------------------------------------


 ion  position               nearest neighbor table
   1  0.169  0.085  0.500-  17 1.45  20 1.47  21 1.48
   2  0.169  0.334  0.500-  17 1.45  18 1.47  22 1.48
   3  0.167  0.583  0.500-  23 1.45  19 1.45  18 1.45
   4  0.167  0.833  0.500-  24 1.45  19 1.45  20 1.45
   5  0.417  0.083  0.500-  25 1.44  21 1.44  24 1.45
   6  0.428  0.339  0.500-  21 1.46  22 1.46
   7  0.417  0.583  0.500-  26 1.44  22 1.44  23 1.45
   8  0.417  0.833  0.500-  23 1.45  24 1.45  27 1.45
   9  0.666  0.085  0.500-  28 1.45  27 1.47  25 1.48
  10  0.661  0.339  0.500-  25 1.46  29 1.46
  11  0.661  0.572  0.500-  30 1.46  26 1.46
  12  0.666  0.831  0.500-  31 1.45  27 1.47  26 1.48
  13  0.917  0.083  0.500-  17 1.46  31 1.46  28 1.46
  14  0.915  0.334  0.500-  28 1.45  18 1.47  29 1.48
  15  0.917  0.583  0.500-  29 1.44  30 1.44  19 1.45
  16  0.915  0.831  0.500-  31 1.45  20 1.47  30 1.48
  17  0.084  0.167  0.500-   2 1.45   1 1.45  13 1.46
  18  0.083  0.417  0.500-   3 1.45  14 1.47   2 1.47
  19  0.083  0.667  0.500-  15 1.45   4 1.45   3 1.45
  20  0.083  0.917  0.500-   4 1.45   1 1.47  16 1.47
  21  0.339  0.171  0.500-   5 1.44   6 1.46   1 1.48
  22  0.339  0.418  0.500-   7 1.44   6 1.46   2 1.48
  23  0.333  0.667  0.500-   7 1.45   3 1.45   8 1.45
  24  0.333  0.917  0.500-   5 1.45   4 1.45   8 1.45
  25  0.582  0.171  0.500-   5 1.44  10 1.46   9 1.48
  26  0.582  0.661  0.500-   7 1.44  11 1.46  12 1.48
  27  0.583  0.917  0.500-   8 1.45   9 1.47  12 1.47
  28  0.833  0.167  0.500-   9 1.45  14 1.45  13 1.46
  29  0.829  0.418  0.500-  15 1.44  10 1.46  14 1.48
  30  0.829  0.661  0.500-  15 1.44  11 1.46  16 1.48
  31  0.833  0.916  0.500-  12 1.45  16 1.45  13 1.46
 
  LATTYP: Found a hexagonal cell.
 ALAT       =    10.0487671536
 C/A-ratio  =     3.4944251219
  
  Lattice vectors:
  
 A1 = (   5.0243667045,  -8.7024973730,   0.0000000000)
 A2 = (   5.0243667045,   8.7024973730,   0.0000000000)
 A3 = (   0.0000000000,   0.0000000000,  35.1146643856)


Analysis of symmetry for initial positions (statically):
=====================================================================
 Subroutine PRICEL returns:
 Original cell was already a primitive cell.
 

 Routine SETGRP: Setting up the symmetry group for a 
 hexagonal supercell.


 Subroutine GETGRP returns: Found 12 space group operations
 (whereof  4 operations were pure point group operations)
 out of a pool of 24 trial point group operations.


The static configuration has the point symmetry C_2v.
 The point group associated with its full space group is D_3h.


Analysis of symmetry for dynamics (positions and initial velocities):
=====================================================================
 Subroutine PRICEL returns:
 Original cell was already a primitive cell.
 

 Routine SETGRP: Setting up the symmetry group for a 
 hexagonal supercell.


 Subroutine GETGRP returns: Found 12 space group operations
 (whereof  4 operations were pure point group operations)
 out of a pool of 24 trial point group operations.


The dynamic configuration has the point symmetry C_2v.
 The point group associated with its full space group is D_3h.


Analysis of constrained symmetry for selective dynamics:
=====================================================================
 Subroutine PRICEL returns:
 Original cell was already a primitive cell.
 

 Routine SETGRP: Setting up the symmetry group for a 
 hexagonal supercell.


 Subroutine GETGRP returns: Found 12 space group operations
 (whereof  4 operations were pure point group operations)
 out of a pool of 24 trial point group operations.


The constrained configuration has the point symmetry C_2v.
 The point group associated with its full space group is D_3h.


Analysis of structural, dynamic, and magnetic symmetry:
=====================================================================
 Subroutine PRICEL returns:
 Original cell was already a primitive cell.
 

 Routine SETGRP: Setting up the symmetry group for a 
 hexagonal supercell.


 Subroutine GETGRP returns: Found 12 space group operations
 (whereof  4 operations were pure point group operations)
 out of a pool of 24 trial point group operations.


The magnetic configuration has the point symmetry C_2v.
 The point group associated with its full space group is D_3h.


 Subroutine INISYM returns: Found 12 space group operations
 (whereof  4 operations are pure point group operations),
 and found     1 'primitive' translations

 
 
 KPOINTS: K-Point Grid                            

Automatic generation of k-mesh.
Space group operators:
 irot       det(A)        alpha          n_x          n_y          n_z        tau_x        tau_y        tau_z
    1     1.000000     0.000000     1.000000     0.000000     0.000000     0.000000     0.000000     0.000000
    2    -1.000000   180.000000     0.000000     0.000000     1.000000     0.000000     0.000000     0.000000
    3     1.000000   180.000000     0.000000     1.000000     0.000000     0.000000     0.000000     0.000000
    4    -1.000000   180.000000     1.000000     0.000000     0.000000     0.000000     0.000000     0.000000
    5    -1.000000    60.000000     0.000000     0.000000    -1.000000     0.750001     0.000001     0.000000
    6     1.000000   120.000000     0.000000     0.000000    -1.000000     0.000001     0.250000     0.000000
    7     1.000000   120.000000     0.000000     0.000000     1.000000     0.750001     0.000001     0.000000
    8    -1.000000    60.000000     0.000000     0.000000     1.000000     0.000001     0.250000     0.000000
    9    -1.000000   180.000000     0.500002    -0.866024     0.000000     0.750001     0.000000     0.000000
   10    -1.000000   180.000000    -0.500002    -0.866024     0.000000     0.000000     0.250000     0.000000
   11     1.000000   180.000000     0.866026     0.499998     0.000000     0.750001     0.000000     0.000000
   12     1.000000   180.000000     0.866026    -0.499998     0.000000     0.000000     0.250000     0.000000
 
 Subroutine IBZKPT returns following result:
 ===========================================
 
 Found      6 irreducible k-points:
 
 Following reciprocal coordinates:
            Coordinates               Weight
  0.125000  0.125000  0.000000     48.000000
  0.375000  0.125000  0.000000     96.000000
 -0.375000  0.125000  0.000000     96.000000
 -0.125000  0.125000  0.000000     48.000000
  0.375000  0.375000  0.000000     48.000000
 -0.375000  0.375000  0.000000     48.000000
 
 Following cartesian coordinates:
            Coordinates               Weight
  0.024879  0.000000  0.000000     48.000000
  0.049758 -0.014364  0.000000     96.000000
 -0.024879  0.028727  0.000000     96.000000
  0.000000  0.014364  0.000000     48.000000
  0.074636  0.000000  0.000000     48.000000
  0.000000  0.043091  0.000000     48.000000
 


--------------------------------------------------------------------------------------------------------




 Dimension of arrays:
   k-points           NKPTS =      6   k-points in BZ     NKDIM =      6   number of bands    NBANDS=     96
   number of dos      NEDOS =   1200   number of ions     NIONS =     31
   non local maximal  LDIM  =      4   non local SUM 2l+1 LMDIM =      8
   total plane-waves  NPLWV = ******
   max r-space proj   IRMAX =   6598   max aug-charges    IRDMAX=   8974
   dimension x,y,z NGX =    80 NGY =   80 NGZ =  270
   dimension x,y,z NGXF=   160 NGYF=  160 NGZF=  540
   support grid    NGXF=   160 NGYF=  160 NGZF=  540
   ions per type =              16  15
   NGX,Y,Z   is equivalent  to a cutoff of  13.24, 13.24, 12.78 a.u.
   NGXF,Y,Z  is equivalent  to a cutoff of  26.47, 26.47, 25.57 a.u.

 SYSTEM =  SiC                                     
 POSCAR =  B N                                     

 Startparameter for this run:
   NWRITE =      2    write-flag & timer
   PREC   = accura    normal or accurate (medium, high low for compatibility)
   ISTART =      1    job   : 0-new  1-cont  2-samecut
   ICHARG =      0    charge: 1-file 2-atom 10-const
   ISPIN  =      2    spin polarized calculation?
   LNONCOLLINEAR =      F non collinear calculations
   LSORBIT =      F    spin-orbit coupling
   INIWAV =      1    electr: 0-lowe 1-rand  2-diag
   LASPH  =      T    aspherical Exc in radial PAW
   METAGGA=      F    non-selfconsistent MetaGGA calc.

 Electronic Relaxation 1
   ENCUT  =  550.0 eV  40.42 Ry    6.36 a.u.  19.22 19.22 67.15*2*pi/ulx,y,z
   ENINI  =  550.0     initial cutoff
   ENAUG  =  627.1 eV  augmentation charge cutoff
   NELM   =    100;   NELMIN=  2; NELMDL=  0     # of ELM steps 
   EDIFF  = 0.1E-04   stopping-criterion for ELM
   LREAL  =      T    real-space projection
   NLSPLINE    = F    spline interpolate recip. space projectors
   LCOMPAT=      F    compatible to vasp.4.4
   GGA_COMPAT  = T    GGA compatible to vasp.4.4-vasp.4.6
   LMAXPAW     = -100 max onsite density
   LMAXMIX     =    2 max onsite mixed and CHGCAR
   VOSKOWN=      0    Vosko Wilk Nusair interpolation
   ROPT   =   -0.00025  -0.00025
 Ionic relaxation
   EDIFFG = -.2E-01   stopping-criterion for IOM
   NSW    =    500    number of steps for IOM
   NBLOCK =      1;   KBLOCK =    500    inner block; outer block 
   IBRION =      2    ionic relax: 0-MD 1-quasi-New 2-CG
   NFREE  =      1    steps in history (QN), initial steepest desc. (CG)
   ISIF   =      2    stress and relaxation
   IWAVPR =     11    prediction:  0-non 1-charg 2-wave 3-comb
   ISYM   =      2    0-nonsym 1-usesym 2-fastsym
   LCORR  =      T    Harris-Foulkes like correction to forces

   POTIM  = 0.5000    time-step for ionic-motion
   TEIN   =    0.0    initial temperature
   TEBEG  =    0.0;   TEEND  =   0.0 temperature during run
   SMASS  =  -3.00    Nose mass-parameter (am)
   estimated Nose-frequenzy (Omega)   =  0.10E-29 period in steps =****** mass=  -0.231E-26a.u.
   SCALEE = 1.0000    scale energy and forces
   NPACO  =    256;   APACO  = 16.0  distance and # of slots for P.C.
   PSTRESS=    0.0 pullay stress

  Mass of Ions in am
   POMASS =  10.81 14.00
  Ionic Valenz
   ZVAL   =   3.00  5.00
  Atomic Wigner-Seitz radii
   RWIGS  =  -1.00 -1.00
  virtual crystal weights 
   VCA    =   1.00  1.00
   NELECT =     123.0000    total number of electrons
   NUPDOWN=      -1.0000    fix difference up-down

 DOS related values:
   EMIN   =  10.00;   EMAX   =-10.00  energy-range for DOS
   EFERMI =   0.00
   ISMEAR =     0;   SIGMA  =   0.05  broadening in eV -4-tet -1-fermi 0-gaus

 Electronic relaxation 2 (details)
   IALGO  =     68    algorithm
   LDIAG  =      T    sub-space diagonalisation (order eigenvalues)
   LSUBROT=      F    optimize rotation matrix (better conditioning)
   TURBO    =      0    0=normal 1=particle mesh
   IRESTART =      0    0=no restart 2=restart with 2 vectors
   NREBOOT  =      0    no. of reboots
   NMIN     =      0    reboot dimension
   EREF     =   0.00    reference energy to select bands
   IMIX   =      4    mixing-type and parameters
     AMIX     =   0.40;   BMIX     =  1.00
     AMIX_MAG =   1.60;   BMIX_MAG =  1.00
     AMIN     =   0.10
     WC   =   100.;   INIMIX=   1;  MIXPRE=   1;  MAXMIX= -45

 Intra band minimization:
   WEIMIN = 0.0010     energy-eigenvalue tresh-hold
   EBREAK =  0.26E-07  absolut break condition
   DEPER  =   0.30     relativ break condition  

   TIME   =   0.40     timestep for ELM

  volume/ion in A,a.u.               =      99.06       668.46
  Fermi-wavevector in a.u.,A,eV,Ry     =   0.560138  1.058508  4.268895  0.313755
  Thomas-Fermi vector in A             =   1.595885
 
 Write flags
   LWAVE        =      T    write WAVECAR
   LDOWNSAMPLE  =      F    k-point downsampling of WAVECAR
   LCHARG       =      F    write CHGCAR
   LVTOT        =      F    write LOCPOT, total local potential
   LVHAR        =      T    write LOCPOT, Hartree potential only
   LELF         =      F    write electronic localiz. function (ELF)
   LORBIT       =     11    0 simple, 1 ext, 2 COOP (PROOUT), +10 PAW based schemes


 Dipole corrections
   LMONO  =      F    monopole corrections only (constant potential shift)
   LDIPOL =      F    correct potential (dipole corrections)
   IDIPOL =      0    1-x, 2-y, 3-z, 4-all directions 
   EPSILON=  1.0000000 bulk dielectric constant

 Exchange correlation treatment:
   GGA     =    --    GGA type
   LEXCH   =     8    internal setting for exchange type
   VOSKOWN=      0    Vosko Wilk Nusair interpolation
   LHFCALC =     F    Hartree Fock is set to
   LHFONE  =     F    Hartree Fock one center treatment
   AEXX    =    0.0000 exact exchange contribution

 Linear response parameters
   LEPSILON=     F    determine dielectric tensor
   LRPA    =     F    only Hartree local field effects (RPA)
   LNABLA  =     F    use nabla operator in PAW spheres
   LVEL    =     F    velocity operator in full k-point grid
   LINTERFAST=   F  fast interpolation
   KINTER  =     0    interpolate to denser k-point grid
   CSHIFT  =0.1000    complex shift for real part using Kramers Kronig
   OMEGAMAX=  -1.0    maximum frequency
   DEG_THRESHOLD= 0.2000000E-02 threshold for treating states as degnerate
   RTIME   =   -0.100 relaxation time in fs
  (WPLASMAI=    0.000 imaginary part of plasma frequency in eV, 0.658/RTIME)
   DFIELD  = 0.0000000 0.0000000 0.0000000 field for delta impulse in time
 
 Orbital magnetization related:
   ORBITALMAG=     F  switch on orbital magnetization
   LCHIMAG   =     F  perturbation theory with respect to B field
   DQ        =  0.001000  dq finite difference perturbation B field
   LLRAUG    =     F  two centre corrections for induced B field

 Solvation model:
   LSOL    =     T         switch on solvation model
   EB_K    = 78.400000     relative permittivity of the bulk solvent
   SIGMA_K =  0.600000     width of the dielectric cavity
   NC_K    =  0.002500     cutoff charge density
   TAU     =  0.000000     cavity surface tension
   LAMBDA_D_K    =  3.040000     Debye length in Angstroms
   LRHOB     =     F     write boundcharge  density
   LRHOION     =     F     write ioniccharge density



--------------------------------------------------------------------------------------------------------


 conjugate gradient relaxation of ions
   using selective dynamics as specified on POSCAR
 charge density and potential will be updated during run
 spin polarized calculation
 RMM-DIIS sequential band-by-band and
  variant of blocked Davidson during initial phase
 perform sub-space diagonalisation
    before iterative eigenvector-optimisation
 modified Broyden-mixing scheme, WC =      100.0
 initial mixing is a Kerker type mixing with AMIX =  0.4000 and BMIX =      1.0000
 Hartree-type preconditioning will be used
 using additional bands           34
 real space projection scheme for non local part
 use partial core corrections
 calculate Harris-corrections to forces 
   (improved forces if not selfconsistent)
 use gradient corrections 
 use of overlap-Matrix (Vanderbilt PP)
 Gauss-broadening in eV      SIGMA  =   0.05


--------------------------------------------------------------------------------------------------------


  energy-cutoff  :      550.00
  volume of cell :     3070.74
      direct lattice vectors                 reciprocal lattice vectors
     5.024366704 -8.702497373  0.000000000     0.099515029 -0.057454772  0.000000000
     5.024366704  8.702497373  0.000000000     0.099515029  0.057454772  0.000000000
     0.000000000  0.000000000 35.114664386     0.000000000  0.000000000  0.028478131

  length of vectors
    10.048767154 10.048767154 35.114664386     0.114909929  0.114909929  0.028478131


 
 old parameters found on file WAVECAR:
  energy-cutoff  :      550.00
  volume of cell :     3070.74
      direct lattice vectors                 reciprocal lattice vectors
     5.024366704 -8.702497373  0.000000000     0.099515029 -0.057454772  0.000000000
     5.024366704  8.702497373  0.000000000     0.099515029  0.057454772  0.000000000
     0.000000000  0.000000000 35.114664386     0.000000000  0.000000000  0.028478131

  length of vectors

 
 k-points in units of 2pi/SCALE and weight: K-Point Grid                            
   0.02487876  0.00000000  0.00000000       0.125
   0.04975751 -0.01436369  0.00000000       0.250
  -0.02487876  0.02872739  0.00000000       0.250
   0.00000000  0.01436369  0.00000000       0.125
   0.07463627  0.00000000  0.00000000       0.125
   0.00000000  0.04309108  0.00000000       0.125
 
 k-points in reciprocal lattice and weights: K-Point Grid                            
   0.12500000  0.12500000  0.00000000       0.125
   0.37500000  0.12500000  0.00000000       0.250
  -0.37500000  0.12500000  0.00000000       0.250
  -0.12500000  0.12500000  0.00000000       0.125
   0.37500000  0.37500000  0.00000000       0.125
  -0.37500000  0.37500000  0.00000000       0.125
 
 position of ions in fractional coordinates (direct lattice) 
   0.16908748  0.08526703  0.50000000
   0.16908748  0.33382101  0.50000000
   0.16670560  0.58341077  0.50000000
   0.16670560  0.83329540  0.50000000
   0.41651079  0.08302114  0.50000000
   0.42844945  0.33922501  0.50000000
   0.41651079  0.58349021  0.50000000
   0.41659023  0.83329540  0.50000000
   0.66617999  0.08526703  0.50000000
   0.66077599  0.33922501  0.50000000
   0.66077599  0.57155154  0.50000000
   0.66617999  0.83091352  0.50000000
   0.91666715  0.08333385  0.50000000
   0.91473397  0.33382101  0.50000000
   0.91697986  0.58349021  0.50000000
   0.91473397  0.83091352  0.50000000
   0.08434317  0.16717181  0.50000000
   0.08327483  0.41654910  0.50000000
   0.08328952  0.66664498  0.50000000
   0.08327483  0.91672617  0.50000000
   0.33891823  0.17115194  0.50000000
   0.33891823  0.41776673  0.50000000
   0.33335602  0.66664498  0.50000000
   0.33335602  0.91671148  0.50000000
   0.58223427  0.17115194  0.50000000
   0.58223427  0.66108277  0.50000000
   0.58345190  0.91672617  0.50000000
   0.83282919  0.16717181  0.50000000
   0.82884906  0.41776673  0.50000000
   0.82884906  0.66108277  0.50000000
   0.83282919  0.91565782  0.50000000
 
 position of ions in cartesian coordinates  (Angst):
   1.27797030 -0.72944725 17.55733219
   2.52679666  1.43359314 17.55733219
   3.76885972  3.62637560 17.55733219
   5.02437172  5.80099592 17.55733219
   2.50983158 -2.90219281 17.55733219
   3.85707800 -0.77647552 17.55733219
   5.02437172  1.45313798 17.55733219
   6.27988372  3.62637560 17.55733219
   3.77554536 -5.05539352 17.55733219
   5.02437172 -2.79829660 17.55733219
   6.19166544 -0.77647552 17.55733219
   7.52194678  1.43359314 17.55733219
   5.02437172 -7.25208079 17.55733219
   6.27319808 -5.05539352 17.55733219
   7.53891186 -2.90219281 17.55733219
   8.77077314 -0.72944725 17.55733219
   1.26370350  0.72081595 17.55733219
   2.51129868  2.90031844 17.55733219
   3.76794590  5.07664937 17.55733219
   5.02437172  7.25310812 17.55733219
   2.56277956 -1.45998572 17.55733219
   3.80186272  0.68617888 17.55733219
   5.02437172  2.90044627 17.55733219
   6.28079754  5.07664937 17.55733219
   3.78528856 -3.57744290 17.55733219
   6.24688072  0.68617888 17.55733219
   7.53744476  2.90031844 17.55733219
   5.02437172 -5.79288164 17.55733219
   6.26345488 -3.57744290 17.55733219
   7.48596388 -1.45998572 17.55733219
   8.78503994  0.72081595 17.55733219
 


--------------------------------------------------------------------------------------------------------


 k-point  1 :   0.1250 0.1250 0.0000  plane waves:   89921
 k-point  2 :   0.3750 0.1250 0.0000  plane waves:   89970
 k-point  3 :  -0.3750 0.1250 0.0000  plane waves:   89943
 k-point  4 :  -0.1250 0.1250 0.0000  plane waves:   89893
 k-point  5 :   0.3750 0.3750 0.0000  plane waves:   89957
 k-point  6 :  -0.3750 0.3750 0.0000  plane waves:   89980

 maximum and minimum number of plane-waves per node :     15054    14949

 maximum number of plane-waves:     89980
 maximum index in each direction: 
   IXMAX=   19   IYMAX=   19   IZMAX=   67
   IXMIN=  -19   IYMIN=  -19   IZMIN=  -67


 real space projection operators:
  total allocation   :       9683.56 KBytes
  max/ min on nodes  :       1689.00       1568.38


 parallel 3D FFT for wavefunctions:
    minimum data exchange during FFTs selected (reduces bandwidth)
 parallel 3D FFT for charge:
    minimum data exchange during FFTs selected (reduces bandwidth)


 total amount of memory used by VASP MPI-rank0   235798. kBytes
=======================================================================

   base      :      30000. kBytes
   nonlr-proj:       5544. kBytes
   fftplans  :      29093. kBytes
   grid      :     101821. kBytes
   one-center:         36. kBytes
   wavefun   :      69304. kBytes
 
     INWAV:  cpu time    8.0133: real time    9.0696
 Broyden mixing: mesh for mixing (old mesh)
   NGX = 39   NGY = 39   NGZ =135
  (NGX  =160   NGY  =160   NGZ  =540)
  gives a total of 205335 points

 charge density for first step will be calculated from the start-wavefunctions


--------------------------------------------------------------------------------------------------------


 Maximum index for non-local projection operator         1235
 Maximum index for augmentation-charges          480 (set IRDMAX)


--------------------------------------------------------------------------------------------------------


 initial charge from wavefunction
 First call to EWALD:  gamma=   0.122
 Maximum number of real-space cells 4x 4x 1
 Maximum number of reciprocal cells 2x 2x 6

    FEWALD:  cpu time    0.0245: real time    0.0435


--------------------------------------- Iteration      1(   1)  ---------------------------------------


    POTLOK:  cpu time   43.3648: real time   45.0814
    SETDIJ:  cpu time    0.0153: real time    0.0175
     EDDAV:  cpu time   94.5172: real time   52.2322
       DOS:  cpu time    0.0026: real time    0.0529
    CHARGE:  cpu time   15.5357: real time   13.6156
    MIXING:  cpu time    0.1739: real time    0.1940
    --------------------------------------------
      LOOP:  cpu time  153.6097: real time  111.1938

 eigenvalue-minimisations  :  2592
 total energy-change (2. order) :-0.2961314E+03  (-0.4719306E+00)
 number of electron     122.9999989 magnetization       1.0000000
 augmentation part        3.4048051 magnetization       0.0207273

 Broyden mixing:
  rms(total) = 0.22102E+00    rms(broyden)= 0.22086E+00
  rms(prec ) = 0.22404E+00
  weight for this iteration     100.00

 Free energy of the ion-electron system (eV)
  ---------------------------------------------------
  alpha Z        PSCENC =        27.64405752
  Ewald energy   TEWEN  =     37729.16552070
  -Hartree energ DENC   =    -42045.95386062
  -exchange      EXHF   =         0.00000000
  -V(xc)+E(xc)   XCENC  =       524.29818123
  PAW double counting   =     13342.32357306   -13395.81894322
  entropy T*S    EENTRO =        -0.00000000
  eigenvalues    EBANDS =     -1674.52862728
  atomic energy  EATOM  =      5106.76452789
  Solvation  Ediel_sol  =        89.97419912
  ---------------------------------------------------
  free energy    TOTEN  =      -296.13137161 eV

  energy without entropy =     -296.13137161  energy(sigma->0) =     -296.13137161


--------------------------------------------------------------------------------------------------------




--------------------------------------- Iteration      1(   2)  ---------------------------------------


    POTLOK:  cpu time   34.9172: real time   34.9127
    SETDIJ:  cpu time    1.4659: real time    1.4657
    EDDIAG:  cpu time   13.8054: real time   11.4766
  RMM-DIIS:  cpu time  121.2772: real time   65.6161
    ORTHCH:  cpu time    0.1919: real time    0.0964
       DOS:  cpu time    0.0020: real time    0.0010
    CHARGE:  cpu time   15.6638: real time   13.5847
    MIXING:  cpu time    0.1052: real time    0.1198
    --------------------------------------------
      LOOP:  cpu time  187.4286: real time  127.2732

 eigenvalue-minimisations  :  2304
 total energy-change (2. order) : 0.5893027E-01  (-0.1594815E-01)
 number of electron     122.9999989 magnetization       1.0000000
 augmentation part        3.3752660 magnetization       0.0217464

 Broyden mixing:
  rms(total) = 0.11359E+00    rms(broyden)= 0.11358E+00
  rms(prec ) = 0.11461E+00
  weight for this iteration     100.00

 eigenvalues of (default mixing * dielectric matrix)
  average eigenvalue GAMMA=   1.8109
  1.8109

 Free energy of the ion-electron system (eV)
  ---------------------------------------------------
  alpha Z        PSCENC =        27.64405752
  Ewald energy   TEWEN  =     37729.16552070
  -Hartree energ DENC   =    -42052.07231053
  -exchange      EXHF   =         0.00000000
  -V(xc)+E(xc)   XCENC  =       524.93364968
  PAW double counting   =     13749.37174613   -13802.70050218
  entropy T*S    EENTRO =        -0.00000000
  eigenvalues    EBANDS =     -1668.92650437
  atomic energy  EATOM  =      5106.76452789
  Solvation  Ediel_sol  =        89.74737382
  ---------------------------------------------------
  free energy    TOTEN  =      -296.07244134 eV

  energy without entropy =     -296.07244134  energy(sigma->0) =     -296.07244134


--------------------------------------------------------------------------------------------------------




--------------------------------------- Iteration      1(   3)  ---------------------------------------


    POTLOK:  cpu time   35.6657: real time   35.6404
    SETDIJ:  cpu time    1.1114: real time    1.1112
    EDDIAG:  cpu time   13.8510: real time   11.4025
  RMM-DIIS:  cpu time  120.7214: real time   65.2545
    ORTHCH:  cpu time    0.1921: real time    0.0964
       DOS:  cpu time    0.0020: real time    0.0010
    CHARGE:  cpu time   15.6639: real time   13.6122
    MIXING:  cpu time    0.0896: real time    0.0896
    --------------------------------------------
      LOOP:  cpu time  187.2971: real time  127.2077

 eigenvalue-minimisations  :  2304
 total energy-change (2. order) :-0.8671370E-02  (-0.9079288E-02)
 number of electron     122.9999989 magnetization       1.0000000
 augmentation part        3.3557433 magnetization       0.0225791

 Broyden mixing:
  rms(total) = 0.41865E-01    rms(broyden)= 0.41861E-01
  rms(prec ) = 0.42313E-01
  weight for this iteration     100.00

 eigenvalues of (default mixing * dielectric matrix)
  average eigenvalue GAMMA=   1.5041
  1.0087  1.9995

 Free energy of the ion-electron system (eV)
  ---------------------------------------------------
  alpha Z        PSCENC =        27.64405752
  Ewald energy   TEWEN  =     37729.16552070
  -Hartree energ DENC   =    -42054.43349594
  -exchange      EXHF   =         0.00000000
  -V(xc)+E(xc)   XCENC  =       525.16179792
  PAW double counting   =     14178.26970097   -14231.38359896
  entropy T*S    EENTRO =        -0.00000000
  eigenvalues    EBANDS =     -1667.22082972
  atomic energy  EATOM  =      5106.76452789
  Solvation  Ediel_sol  =        89.95120692
  ---------------------------------------------------
  free energy    TOTEN  =      -296.08111271 eV

  energy without entropy =     -296.08111271  energy(sigma->0) =     -296.08111271


--------------------------------------------------------------------------------------------------------




--------------------------------------- Iteration      1(   4)  ---------------------------------------


    POTLOK:  cpu time   35.0119: real time   34.9924
    SETDIJ:  cpu time    0.9950: real time    0.9949
    EDDIAG:  cpu time   13.8636: real time   11.4093
  RMM-DIIS:  cpu time  121.8749: real time   66.3387
    ORTHCH:  cpu time    0.1912: real time    0.0962
       DOS:  cpu time    0.0020: real time    0.0010
    CHARGE:  cpu time   15.6833: real time   13.6401
    MIXING:  cpu time    0.0824: real time    0.0824
    --------------------------------------------
      LOOP:  cpu time  187.7043: real time  127.5550

 eigenvalue-minimisations  :  2304
 total energy-change (2. order) : 0.1397453E-03  (-0.1230609E-02)
 number of electron     122.9999989 magnetization       1.0000000
 augmentation part        3.3627754 magnetization       0.0222193

 Broyden mixing:
  rms(total) = 0.11697E-01    rms(broyden)= 0.11695E-01
  rms(prec ) = 0.11799E-01
  weight for this iteration     100.00

 eigenvalues of (default mixing * dielectric matrix)
  average eigenvalue GAMMA=   1.6016
  2.5521  1.5293  0.7234

 Free energy of the ion-electron system (eV)
  ---------------------------------------------------
  alpha Z        PSCENC =        27.64405752
  Ewald energy   TEWEN  =     37729.16552070
  -Hartree energ DENC   =    -42051.64077064
  -exchange      EXHF   =         0.00000000
  -V(xc)+E(xc)   XCENC  =       524.94870779
  PAW double counting   =     14283.32904961   -14336.37403172
  entropy T*S    EENTRO =        -0.00000000
  eigenvalues    EBANDS =     -1670.19070620
  atomic energy  EATOM  =      5106.76452789
  Solvation  Ediel_sol  =        90.27267209
  ---------------------------------------------------
  free energy    TOTEN  =      -296.08097296 eV

  energy without entropy =     -296.08097296  energy(sigma->0) =     -296.08097296


--------------------------------------------------------------------------------------------------------




--------------------------------------- Iteration      1(   5)  ---------------------------------------


    POTLOK:  cpu time   33.5693: real time   33.5526
    SETDIJ:  cpu time    1.0232: real time    1.0230
    EDDIAG:  cpu time   13.8537: real time   11.4055
  RMM-DIIS:  cpu time  121.1928: real time   66.0155
    ORTHCH:  cpu time    0.1892: real time    0.0949
       DOS:  cpu time    0.0020: real time    0.0010
    CHARGE:  cpu time   15.8461: real time   13.7226
    MIXING:  cpu time    0.0630: real time    0.0630
    --------------------------------------------
      LOOP:  cpu time  185.7394: real time  125.8780

 eigenvalue-minimisations  :  2304
 total energy-change (2. order) :-0.6742848E-03  (-0.3294069E-03)
 number of electron     122.9999989 magnetization       1.0000000
 augmentation part        3.3650910 magnetization       0.0224565

 Broyden mixing:
  rms(total) = 0.81409E-02    rms(broyden)= 0.81401E-02
  rms(prec ) = 0.83103E-02
  weight for this iteration     100.00

 eigenvalues of (default mixing * dielectric matrix)
  average eigenvalue GAMMA=   1.3316
  2.4186  1.2541  1.0003  0.6532

 Free energy of the ion-electron system (eV)
  ---------------------------------------------------
  alpha Z        PSCENC =        27.64405752
  Ewald energy   TEWEN  =     37729.16552070
  -Hartree energ DENC   =    -42051.16454533
  -exchange      EXHF   =         0.00000000
  -V(xc)+E(xc)   XCENC  =       524.95925270
  PAW double counting   =     14322.05784552   -14375.08078430
  entropy T*S    EENTRO =        -0.00000000
  eigenvalues    EBANDS =     -1670.73041668
  atomic energy  EATOM  =      5106.76452789
  Solvation  Ediel_sol  =        90.30289474
  ---------------------------------------------------
  free energy    TOTEN  =      -296.08164725 eV

  energy without entropy =     -296.08164725  energy(sigma->0) =     -296.08164725


--------------------------------------------------------------------------------------------------------




--------------------------------------- Iteration      1(   6)  ---------------------------------------


    POTLOK:  cpu time   31.5815: real time   31.5595
    SETDIJ:  cpu time    0.9883: real time    0.9882
    EDDIAG:  cpu time   13.8338: real time   11.3907
  RMM-DIIS:  cpu time  121.0201: real time   65.8577
    ORTHCH:  cpu time    0.1873: real time    0.0940
       DOS:  cpu time    0.0020: real time    0.0010
    CHARGE:  cpu time   15.6945: real time   13.6301
    MIXING:  cpu time    0.1091: real time    0.1091
    --------------------------------------------
      LOOP:  cpu time  183.4166: real time  123.6303

 eigenvalue-minimisations  :  2304
 total energy-change (2. order) :-0.9595859E-04  (-0.7195001E-04)
 number of electron     122.9999989 magnetization       1.0000000
 augmentation part        3.3636392 magnetization       0.0225439

 Broyden mixing:
  rms(total) = 0.33713E-02    rms(broyden)= 0.33712E-02
  rms(prec ) = 0.34756E-02
  weight for this iteration     100.00

 eigenvalues of (default mixing * dielectric matrix)
  average eigenvalue GAMMA=   1.4386
  2.1956  1.7319  1.7319  0.8900  0.6436

 Free energy of the ion-electron system (eV)
  ---------------------------------------------------
  alpha Z        PSCENC =        27.64405752
  Ewald energy   TEWEN  =     37729.16552070
  -Hartree energ DENC   =    -42051.66283288
  -exchange      EXHF   =         0.00000000
  -V(xc)+E(xc)   XCENC  =       524.99985931
  PAW double counting   =     14312.21685129   -14365.24742913
  entropy T*S    EENTRO =        -0.00000000
  eigenvalues    EBANDS =     -1670.18322135
  atomic energy  EATOM  =      5106.76452789
  Solvation  Ediel_sol  =        90.22092345
  ---------------------------------------------------
  free energy    TOTEN  =      -296.08174321 eV

  energy without entropy =     -296.08174321  energy(sigma->0) =     -296.08174321


--------------------------------------------------------------------------------------------------------




--------------------------------------- Iteration      1(   7)  ---------------------------------------


    POTLOK:  cpu time   32.6202: real time   32.5985
    SETDIJ:  cpu time    1.0724: real time    1.0723
    EDDIAG:  cpu time   13.9275: real time   11.4378
  RMM-DIIS:  cpu time  121.5761: real time   66.4000
    ORTHCH:  cpu time    0.1888: real time    0.0947
       DOS:  cpu time    0.0020: real time    0.0010
    CHARGE:  cpu time   15.8031: real time   13.6854
    MIXING:  cpu time    0.0838: real time    0.0837
    --------------------------------------------
      LOOP:  cpu time  185.2738: real time  125.3736

 eigenvalue-minimisations  :  2304
 total energy-change (2. order) :-0.1134144E-03  (-0.6489445E-04)
 number of electron     122.9999989 magnetization       1.0000000
 augmentation part        3.3627759 magnetization       0.0226591

 Broyden mixing:
  rms(total) = 0.24486E-02    rms(broyden)= 0.24482E-02
  rms(prec ) = 0.25340E-02
  weight for this iteration     100.00

 eigenvalues of (default mixing * dielectric matrix)
  average eigenvalue GAMMA=   1.5135
  3.0705  2.4164  1.1198  1.1198  0.7302  0.6246

 Free energy of the ion-electron system (eV)
  ---------------------------------------------------
  alpha Z        PSCENC =        27.64405752
  Ewald energy   TEWEN  =     37729.16552070
  -Hartree energ DENC   =    -42051.77450868
  -exchange      EXHF   =         0.00000000
  -V(xc)+E(xc)   XCENC  =       525.00448114
  PAW double counting   =     14308.25351837   -14361.28640113
  entropy T*S    EENTRO =        -0.00000000
  eigenvalues    EBANDS =     -1669.95056324
  atomic energy  EATOM  =      5106.76452789
  Solvation  Ediel_sol  =        90.09751082
  ---------------------------------------------------
  free energy    TOTEN  =      -296.08185662 eV

  energy without entropy =     -296.08185662  energy(sigma->0) =     -296.08185662


--------------------------------------------------------------------------------------------------------




--------------------------------------- Iteration      1(   8)  ---------------------------------------


    POTLOK:  cpu time   31.9580: real time   31.9398
    SETDIJ:  cpu time    1.0471: real time    1.0470
    EDDIAG:  cpu time   13.8027: real time   11.3874
  RMM-DIIS:  cpu time  113.4997: real time   61.7708
    ORTHCH:  cpu time    0.1897: real time    0.0952
       DOS:  cpu time    0.0020: real time    0.0010
    CHARGE:  cpu time   15.7746: real time   13.6874
    MIXING:  cpu time    0.0624: real time    0.0624
    --------------------------------------------
      LOOP:  cpu time  176.3363: real time  119.9910

 eigenvalue-minimisations  :  2115
 total energy-change (2. order) :-0.8401220E-04  (-0.1857552E-04)
 number of electron     122.9999989 magnetization       1.0000000
 augmentation part        3.3631555 magnetization       0.0226542

 Broyden mixing:
  rms(total) = 0.95351E-03    rms(broyden)= 0.95331E-03
  rms(prec ) = 0.10255E-02
  weight for this iteration     100.00

 eigenvalues of (default mixing * dielectric matrix)
  average eigenvalue GAMMA=   1.4138
  3.1017  2.3671  1.1128  0.9986  0.9986  0.6991  0.6185

 Free energy of the ion-electron system (eV)
  ---------------------------------------------------
  alpha Z        PSCENC =        27.64405752
  Ewald energy   TEWEN  =     37729.16552070
  -Hartree energ DENC   =    -42051.58870003
  -exchange      EXHF   =         0.00000000
  -V(xc)+E(xc)   XCENC  =       524.99236382
  PAW double counting   =     14309.56138282   -14362.59263525
  entropy T*S    EENTRO =        -0.00000000
  eigenvalues    EBANDS =     -1670.09665790
  atomic energy  EATOM  =      5106.76452789
  Solvation  Ediel_sol  =        90.06819980
  ---------------------------------------------------
  free energy    TOTEN  =      -296.08194063 eV

  energy without entropy =     -296.08194063  energy(sigma->0) =     -296.08194063


--------------------------------------------------------------------------------------------------------




--------------------------------------- Iteration      1(   9)  ---------------------------------------


    POTLOK:  cpu time   30.1996: real time   30.1791
    SETDIJ:  cpu time    0.9785: real time    0.9784
    EDDIAG:  cpu time   13.9009: real time   11.4253
  RMM-DIIS:  cpu time  102.3428: real time   55.3418
    ORTHCH:  cpu time    0.1873: real time    0.0940
       DOS:  cpu time    0.0020: real time    0.0010
    CHARGE:  cpu time   15.6602: real time   13.6292
    MIXING:  cpu time    0.1537: real time    0.1537
    --------------------------------------------
      LOOP:  cpu time  163.4248: real time  111.8025

 eigenvalue-minimisations  :  1790
 total energy-change (2. order) :-0.1704958E-04  (-0.6328536E-05)
 number of electron     122.9999989 magnetization       1.0000000
 augmentation part        3.3633921 magnetization       0.0226296

 Broyden mixing:
  rms(total) = 0.44193E-03    rms(broyden)= 0.44182E-03
  rms(prec ) = 0.53226E-03
  weight for this iteration     100.00

 eigenvalues of (default mixing * dielectric matrix)
  average eigenvalue GAMMA=   1.4754
  3.2067  2.4134  1.7106  1.1780  1.1780  0.8248  0.6773  0.6147

 Free energy of the ion-electron system (eV)
  ---------------------------------------------------
  alpha Z        PSCENC =        27.64405752
  Ewald energy   TEWEN  =     37729.16552070
  -Hartree energ DENC   =    -42051.50127263
  -exchange      EXHF   =         0.00000000
  -V(xc)+E(xc)   XCENC  =       524.99036193
  PAW double counting   =     14309.62381537   -14362.65488023
  entropy T*S    EENTRO =        -0.00000000
  eigenvalues    EBANDS =     -1670.16360009
  atomic energy  EATOM  =      5106.76452789
  Solvation  Ediel_sol  =        90.04951187
  ---------------------------------------------------
  free energy    TOTEN  =      -296.08195768 eV

  energy without entropy =     -296.08195768  energy(sigma->0) =     -296.08195768


--------------------------------------------------------------------------------------------------------




--------------------------------------- Iteration      1(  10)  ---------------------------------------


    POTLOK:  cpu time   31.6215: real time   31.6001
    SETDIJ:  cpu time    0.9862: real time    0.9861
    EDDIAG:  cpu time   13.8822: real time   11.4082
  RMM-DIIS:  cpu time  104.0232: real time   56.5686
    ORTHCH:  cpu time    0.1895: real time    0.0951
       DOS:  cpu time    0.0020: real time    0.0010
    CHARGE:  cpu time   15.6474: real time   13.6295
    MIXING:  cpu time    0.1000: real time    0.1000
    --------------------------------------------
      LOOP:  cpu time  166.4519: real time  114.3885

 eigenvalue-minimisations  :  1847
 total energy-change (2. order) : 0.1002854E-04  (-0.8718908E-05)
 number of electron     122.9999989 magnetization       1.0000000
 augmentation part        3.3634539 magnetization       0.0226568

 Broyden mixing:
  rms(total) = 0.22883E-03    rms(broyden)= 0.22871E-03
  rms(prec ) = 0.29529E-03
  weight for this iteration     100.00

 eigenvalues of (default mixing * dielectric matrix)
  average eigenvalue GAMMA=   1.5172
  3.6163  2.5342  2.1709  1.1963  1.1963  0.9261  0.7545  0.6517  0.6086

 Free energy of the ion-electron system (eV)
  ---------------------------------------------------
  alpha Z        PSCENC =        27.64405752
  Ewald energy   TEWEN  =     37729.16552070
  -Hartree energ DENC   =    -42051.40701201
  -exchange      EXHF   =         0.00000000
  -V(xc)+E(xc)   XCENC  =       524.98990311
  PAW double counting   =     14309.00474867   -14362.03621375
  entropy T*S    EENTRO =        -0.00000000
  eigenvalues    EBANDS =     -1670.19219109
  atomic energy  EATOM  =      5106.76452789
  Solvation  Ediel_sol  =        89.98471131
  ---------------------------------------------------
  free energy    TOTEN  =      -296.08194765 eV

  energy without entropy =     -296.08194765  energy(sigma->0) =     -296.08194765


--------------------------------------------------------------------------------------------------------




--------------------------------------- Iteration      1(  11)  ---------------------------------------


    POTLOK:  cpu time   30.1658: real time   30.1501
    SETDIJ:  cpu time    1.0163: real time    1.0162
    EDDIAG:  cpu time   13.8701: real time   11.4081
  RMM-DIIS:  cpu time  102.1096: real time   55.7349
    ORTHCH:  cpu time    0.1880: real time    0.0944
       DOS:  cpu time    0.0019: real time    0.0010
    --------------------------------------------
      LOOP:  cpu time  147.3517: real time   98.4047

 eigenvalue-minimisations  :  1788
 total energy-change (2. order) : 0.7402772E-05  (-0.6879789E-05)
 number of electron     122.9999989 magnetization       1.0000000
 augmentation part        3.3634539 magnetization       0.0226568

 Free energy of the ion-electron system (eV)
  ---------------------------------------------------
  alpha Z        PSCENC =        27.64405752
  Ewald energy   TEWEN  =     37729.16552070
  -Hartree energ DENC   =    -42051.36249979
  -exchange      EXHF   =         0.00000000
  -V(xc)+E(xc)   XCENC  =       524.98987072
  PAW double counting   =     14309.08248105   -14362.11394801
  entropy T*S    EENTRO =        -0.00000000
  eigenvalues    EBANDS =     -1670.20181759
  atomic energy  EATOM  =      5106.76452789
  Solvation  Ediel_sol  =        89.94986726
  ---------------------------------------------------
  free energy    TOTEN  =      -296.08194025 eV

  energy without entropy =     -296.08194025  energy(sigma->0) =     -296.08194025


--------------------------------------------------------------------------------------------------------




 average (electrostatic) potential at core
  the test charge radii are     0.7672  0.7089
  (the norm of the test charge is              1.0000)
       1 -38.8368       2 -38.8368       3 -38.6196       4 -38.6196       5 -38.5531
       6 -39.4132       7 -38.5531       8 -38.6196       9 -38.8368      10 -39.4132
      11 -39.4131      12 -38.8368      13 -38.7752      14 -38.8368      15 -38.5531
      16 -38.8368      17 -76.2677      18 -76.2462      19 -76.1948      20 -76.2462
      21 -76.4088      22 -76.4088      23 -76.1948      24 -76.1948      25 -76.4088
      26 -76.4087      27 -76.2462      28 -76.2677      29 -76.4087      30 -76.4088
      31 -76.2677
 
 
 
 E-fermi :  -3.0537     XC(G=0):  -1.2043     alpha+bet : -1.0027


 spin component 1

 k-point     1 :       0.1250    0.1250    0.0000
  band No.  band energies     occupation 
      1     -24.7180      1.00000
      2     -24.0308      1.00000
      3     -23.9391      1.00000
      4     -23.6450      1.00000
      5     -23.4549      1.00000
      6     -23.1991      1.00000
      7     -23.0320      1.00000
      8     -22.3076      1.00000
      9     -22.1178      1.00000
     10     -21.9599      1.00000
     11     -21.8588      1.00000
     12     -21.7710      1.00000
     13     -21.6426      1.00000
     14     -21.6222      1.00000
     15     -21.4300      1.00000
     16     -15.3238      1.00000
     17     -15.2579      1.00000
     18     -15.1386      1.00000
     19     -14.7491      1.00000
     20     -14.4532      1.00000
     21     -14.3686      1.00000
     22     -14.0375      1.00000
     23     -13.7054      1.00000
     24     -13.5461      1.00000
     25     -12.9260      1.00000
     26     -12.8289      1.00000
     27     -12.6066      1.00000
     28     -12.3099      1.00000
     29     -12.1802      1.00000
     30     -11.9162      1.00000
     31     -11.7251      1.00000
     32     -11.5446      1.00000
     33     -11.4197      1.00000
     34     -11.3847      1.00000
     35     -11.1369      1.00000
     36     -10.7828      1.00000
     37     -10.5796      1.00000
     38     -10.4582      1.00000
     39     -10.4315      1.00000
     40     -10.3355      1.00000
     41     -10.0696      1.00000
     42      -9.9953      1.00000
     43      -9.8954      1.00000
     44      -9.6842      1.00000
     45      -9.6714      1.00000
     46      -9.4829      1.00000
     47      -9.2904      1.00000
     48      -9.1286      1.00000
     49      -9.1119      1.00000
     50      -9.0256      1.00000
     51      -8.5188      1.00000
     52      -8.0469      1.00000
     53      -8.0206      1.00000
     54      -8.0162      1.00000
     55      -7.7314      1.00000
     56      -7.5337      1.00000
     57      -7.3142      1.00000
     58      -7.1976      1.00000
     59      -7.0303      1.00000
     60      -6.9784      1.00000
     61      -6.7330      1.00000
     62      -3.3972      1.00000
     63      -1.3873      0.00000
     64      -1.3072      0.00000
     65      -0.9245      0.00000
     66      -0.7887      0.00000
     67      -0.7454      0.00000
     68      -0.6355      0.00000
     69      -0.5418      0.00000
     70      -0.3784      0.00000
     71      -0.2009      0.00000
     72      -0.0895      0.00000
     73      -0.0532      0.00000
     74       0.2070      0.00000
     75       0.3128      0.00000
     76       0.4010      0.00000
     77       0.4636      0.00000
     78       0.4854      0.00000
     79       0.5724      0.00000
     80       0.8251      0.00000
     81       0.9941      0.00000
     82       1.0207      0.00000
     83       1.0887      0.00000
     84       1.1480      0.00000
     85       1.1867      0.00000
     86       1.1895      0.00000
     87       1.2247      0.00000
     88       1.2363      0.00000
     89       1.4253      0.00000
     90       1.4502      0.00000
     91       1.5494      0.00000
     92       1.5599      0.00000
     93       1.7347      0.00000
     94       1.7726      0.00000
     95       1.8423      0.00000
     96       1.9041      0.00000

 k-point     2 :       0.3750    0.1250    0.0000
  band No.  band energies     occupation 
      1     -24.5505      1.00000
      2     -24.3669      1.00000
      3     -24.0661      1.00000
      4     -23.6484      1.00000
      5     -23.1351      1.00000
      6     -22.8914      1.00000
      7     -22.7379      1.00000
      8     -22.6026      1.00000
      9     -22.4426      1.00000
     10     -22.2134      1.00000
     11     -21.9711      1.00000
     12     -21.8115      1.00000
     13     -21.6224      1.00000
     14     -21.4503      1.00000
     15     -21.2267      1.00000
     16     -15.1988      1.00000
     17     -15.0457      1.00000
     18     -14.7928      1.00000
     19     -14.6958      1.00000
     20     -14.6737      1.00000
     21     -14.3961      1.00000
     22     -14.2736      1.00000
     23     -13.9568      1.00000
     24     -13.5621      1.00000
     25     -13.3462      1.00000
     26     -13.2114      1.00000
     27     -12.6808      1.00000
     28     -12.3888      1.00000
     29     -12.3056      1.00000
     30     -11.5885      1.00000
     31     -11.4572      1.00000
     32     -11.2306      1.00000
     33     -11.1445      1.00000
     34     -10.9664      1.00000
     35     -10.9137      1.00000
     36     -10.8477      1.00000
     37     -10.6112      1.00000
     38     -10.5110      1.00000
     39     -10.5039      1.00000
     40     -10.3359      1.00000
     41     -10.2608      1.00000
     42     -10.1116      1.00000
     43      -9.9304      1.00000
     44      -9.9096      1.00000
     45      -9.5251      1.00000
     46      -9.2364      1.00000
     47      -9.2056      1.00000
     48      -8.9053      1.00000
     49      -8.8628      1.00000
     50      -8.7701      1.00000
     51      -8.6564      1.00000
     52      -8.4409      1.00000
     53      -8.2397      1.00000
     54      -8.1762      1.00000
     55      -7.9957      1.00000
     56      -7.8897      1.00000
     57      -7.5198      1.00000
     58      -7.2993      1.00000
     59      -6.9791      1.00000
     60      -6.7249      1.00000
     61      -6.4055      1.00000
     62      -3.2995      1.00000
     63      -1.5431      0.00000
     64      -1.3812      0.00000
     65      -0.9774      0.00000
     66      -0.8999      0.00000
     67      -0.7635      0.00000
     68      -0.5620      0.00000
     69      -0.4577      0.00000
     70      -0.1849      0.00000
     71      -0.1845      0.00000
     72       0.0574      0.00000
     73       0.1920      0.00000
     74       0.2575      0.00000
     75       0.3029      0.00000
     76       0.3921      0.00000
     77       0.4826      0.00000
     78       0.5059      0.00000
     79       0.5422      0.00000
     80       0.6253      0.00000
     81       0.7627      0.00000
     82       0.8738      0.00000
     83       0.9003      0.00000
     84       0.9685      0.00000
     85       1.0016      0.00000
     86       1.0320      0.00000
     87       1.1184      0.00000
     88       1.2095      0.00000
     89       1.2709      0.00000
     90       1.3078      0.00000
     91       1.3702      0.00000
     92       1.3707      0.00000
     93       1.5295      0.00000
     94       1.5568      0.00000
     95       1.6258      0.00000
     96       1.8707      0.00000

 k-point     3 :      -0.3750    0.1250    0.0000
  band No.  band energies     occupation 
      1     -24.6471      1.00000
      2     -24.2083      1.00000
      3     -24.0277      1.00000
      4     -23.6350      1.00000
      5     -23.3187      1.00000
      6     -22.9781      1.00000
      7     -22.8615      1.00000
      8     -22.5425      1.00000
      9     -22.2766      1.00000
     10     -22.0466      1.00000
     11     -21.9577      1.00000
     12     -21.7950      1.00000
     13     -21.6274      1.00000
     14     -21.5117      1.00000
     15     -21.2998      1.00000
     16     -15.2623      1.00000
     17     -15.1630      1.00000
     18     -14.9256      1.00000
     19     -14.6582      1.00000
     20     -14.5865      1.00000
     21     -14.4547      1.00000
     22     -14.2161      1.00000
     23     -13.8421      1.00000
     24     -13.4476      1.00000
     25     -13.1498      1.00000
     26     -13.0913      1.00000
     27     -12.7363      1.00000
     28     -12.3397      1.00000
     29     -12.1833      1.00000
     30     -11.8923      1.00000
     31     -11.4377      1.00000
     32     -11.3124      1.00000
     33     -11.2852      1.00000
     34     -11.2043      1.00000
     35     -11.0259      1.00000
     36     -10.7229      1.00000
     37     -10.6838      1.00000
     38     -10.5172      1.00000
     39     -10.4591      1.00000
     40     -10.2906      1.00000
     41     -10.1019      1.00000
     42      -9.9610      1.00000
     43      -9.9077      1.00000
     44      -9.9005      1.00000
     45      -9.6787      1.00000
     46      -9.4853      1.00000
     47      -9.1344      1.00000
     48      -8.9840      1.00000
     49      -8.9494      1.00000
     50      -8.8152      1.00000
     51      -8.6274      1.00000
     52      -8.4010      1.00000
     53      -8.1046      1.00000
     54      -8.0210      1.00000
     55      -7.9849      1.00000
     56      -7.6308      1.00000
     57      -7.4946      1.00000
     58      -7.2573      1.00000
     59      -6.9919      1.00000
     60      -6.8143      1.00000
     61      -6.5262      1.00000
     62      -3.3451      1.00000
     63      -1.4804      0.00000
     64      -1.3508      0.00000
     65      -0.9045      0.00000
     66      -0.8273      0.00000
     67      -0.7073      0.00000
     68      -0.6491      0.00000
     69      -0.4958      0.00000
     70      -0.3784      0.00000
     71      -0.1137      0.00000
     72       0.0145      0.00000
     73       0.0708      0.00000
     74       0.1164      0.00000
     75       0.3051      0.00000
     76       0.3595      0.00000
     77       0.3933      0.00000
     78       0.4386      0.00000
     79       0.7240      0.00000
     80       0.8162      0.00000
     81       0.8385      0.00000
     82       0.9569      0.00000
     83       0.9953      0.00000
     84       1.0631      0.00000
     85       1.0720      0.00000
     86       1.0825      0.00000
     87       1.1211      0.00000
     88       1.1839      0.00000
     89       1.3041      0.00000
     90       1.4041      0.00000
     91       1.4318      0.00000
     92       1.5582      0.00000
     93       1.5744      0.00000
     94       1.6673      0.00000
     95       1.6751      0.00000
     96       1.8639      0.00000

 k-point     4 :      -0.1250    0.1250    0.0000
  band No.  band energies     occupation 
      1     -24.7542      1.00000
      2     -23.8968      1.00000
      3     -23.7957      1.00000
      4     -23.7140      1.00000
      5     -23.5017      1.00000
      6     -23.4087      1.00000
      7     -23.1326      1.00000
      8     -22.0883      1.00000
      9     -22.0528      1.00000
     10     -21.8478      1.00000
     11     -21.8016      1.00000
     12     -21.7571      1.00000
     13     -21.7511      1.00000
     14     -21.6488      1.00000
     15     -21.5737      1.00000
     16     -15.3866      1.00000
     17     -15.2731      1.00000
     18     -15.2444      1.00000
     19     -14.8945      1.00000
     20     -14.3172      1.00000
     21     -14.1846      1.00000
     22     -13.9885      1.00000
     23     -13.6539      1.00000
     24     -13.6218      1.00000
     25     -12.8085      1.00000
     26     -12.6601      1.00000
     27     -12.4615      1.00000
     28     -12.1947      1.00000
     29     -12.1740      1.00000
     30     -12.0023      1.00000
     31     -11.8566      1.00000
     32     -11.7030      1.00000
     33     -11.5537      1.00000
     34     -11.4351      1.00000
     35     -11.2248      1.00000
     36     -10.8810      1.00000
     37     -10.8168      1.00000
     38     -10.5196      1.00000
     39     -10.2544      1.00000
     40     -10.1111      1.00000
     41     -10.0068      1.00000
     42      -9.9813      1.00000
     43      -9.9495      1.00000
     44      -9.7158      1.00000
     45      -9.5896      1.00000
     46      -9.5005      1.00000
     47      -9.3520      1.00000
     48      -9.2976      1.00000
     49      -9.1753      1.00000
     50      -9.0774      1.00000
     51      -8.5022      1.00000
     52      -7.9801      1.00000
     53      -7.9690      1.00000
     54      -7.7128      1.00000
     55      -7.6422      1.00000
     56      -7.3424      1.00000
     57      -7.2637      1.00000
     58      -7.1807      1.00000
     59      -7.1403      1.00000
     60      -7.0336      1.00000
     61      -6.9615      1.00000
     62      -3.4255      1.00000
     63      -1.3140      0.00000
     64      -1.2782      0.00000
     65      -0.9424      0.00000
     66      -0.8940      0.00000
     67      -0.8663      0.00000
     68      -0.7142      0.00000
     69      -0.3477      0.00000
     70      -0.2327      0.00000
     71      -0.1652      0.00000
     72      -0.1154      0.00000
     73      -0.0362      0.00000
     74       0.1352      0.00000
     75       0.2450      0.00000
     76       0.2502      0.00000
     77       0.4482      0.00000
     78       0.6473      0.00000
     79       0.7243      0.00000
     80       0.8548      0.00000
     81       0.9155      0.00000
     82       0.9162      0.00000
     83       0.9316      0.00000
     84       1.2921      0.00000
     85       1.3470      0.00000
     86       1.3686      0.00000
     87       1.3743      0.00000
     88       1.4859      0.00000
     89       1.5418      0.00000
     90       1.5862      0.00000
     91       1.6137      0.00000
     92       1.6214      0.00000
     93       1.6234      0.00000
     94       1.6710      0.00000
     95       1.7404      0.00000
     96       1.8475      0.00000

 k-point     5 :       0.3750    0.3750    0.0000
  band No.  band energies     occupation 
      1     -24.4777      1.00000
      2     -24.4014      1.00000
      3     -24.1996      1.00000
      4     -23.4480      1.00000
      5     -23.2363      1.00000
      6     -23.0121      1.00000
      7     -22.5403      1.00000
      8     -22.4431      1.00000
      9     -22.4416      1.00000
     10     -22.3273      1.00000
     11     -22.1941      1.00000
     12     -21.8340      1.00000
     13     -21.5241      1.00000
     14     -21.4651      1.00000
     15     -21.1926      1.00000
     16     -15.0912      1.00000
     17     -15.0595      1.00000
     18     -14.9112      1.00000
     19     -14.8619      1.00000
     20     -14.3641      1.00000
     21     -14.2788      1.00000
     22     -14.1567      1.00000
     23     -13.9792      1.00000
     24     -13.7737      1.00000
     25     -13.5245      1.00000
     26     -13.5006      1.00000
     27     -12.7371      1.00000
     28     -12.0755      1.00000
     29     -11.9743      1.00000
     30     -11.6637      1.00000
     31     -11.5753      1.00000
     32     -11.5123      1.00000
     33     -11.0368      1.00000
     34     -10.9473      1.00000
     35     -10.7504      1.00000
     36     -10.7232      1.00000
     37     -10.6347      1.00000
     38     -10.5671      1.00000
     39     -10.4666      1.00000
     40     -10.3939      1.00000
     41     -10.2888      1.00000
     42     -10.1112      1.00000
     43     -10.0374      1.00000
     44      -9.6348      1.00000
     45      -9.4816      1.00000
     46      -9.4056      1.00000
     47      -9.3293      1.00000
     48      -9.0915      1.00000
     49      -8.7973      1.00000
     50      -8.7110      1.00000
     51      -8.3371      1.00000
     52      -8.2976      1.00000
     53      -8.2289      1.00000
     54      -8.2001      1.00000
     55      -8.0473      1.00000
     56      -7.9846      1.00000
     57      -7.8544      1.00000
     58      -7.3917      1.00000
     59      -6.8258      1.00000
     60      -6.7192      1.00000
     61      -6.3579      1.00000
     62      -3.2706      1.00000
     63      -1.5198      0.00000
     64      -1.4467      0.00000
     65      -1.0341      0.00000
     66      -0.9291      0.00000
     67      -0.8884      0.00000
     68      -0.6643      0.00000
     69      -0.2993      0.00000
     70      -0.2155      0.00000
     71       0.0044      0.00000
     72       0.2620      0.00000
     73       0.3225      0.00000
     74       0.3718      0.00000
     75       0.3856      0.00000
     76       0.4431      0.00000
     77       0.4447      0.00000
     78       0.5925      0.00000
     79       0.6285      0.00000
     80       0.6770      0.00000
     81       0.6922      0.00000
     82       0.7005      0.00000
     83       0.7223      0.00000
     84       0.8083      0.00000
     85       0.8157      0.00000
     86       0.8610      0.00000
     87       0.9379      0.00000
     88       1.0604      0.00000
     89       1.2438      0.00000
     90       1.3110      0.00000
     91       1.4346      0.00000
     92       1.4469      0.00000
     93       1.4902      0.00000
     94       1.5021      0.00000
     95       1.5795      0.00000
     96       1.7528      0.00000

 k-point     6 :      -0.3750    0.3750    0.0000
  band No.  band energies     occupation 
      1     -24.6136      1.00000
      2     -24.2989      1.00000
      3     -23.9340      1.00000
      4     -23.7809      1.00000
      5     -23.1070      1.00000
      6     -23.0234      1.00000
      7     -22.7550      1.00000
      8     -22.6137      1.00000
      9     -22.4176      1.00000
     10     -22.1062      1.00000
     11     -21.8221      1.00000
     12     -21.7809      1.00000
     13     -21.7481      1.00000
     14     -21.4605      1.00000
     15     -21.2735      1.00000
     16     -15.2628      1.00000
     17     -15.0127      1.00000
     18     -14.9521      1.00000
     19     -14.6453      1.00000
     20     -14.6178      1.00000
     21     -14.3953      1.00000
     22     -14.3252      1.00000
     23     -14.0235      1.00000
     24     -13.3140      1.00000
     25     -13.1518      1.00000
     26     -13.0160      1.00000
     27     -12.7459      1.00000
     28     -12.6543      1.00000
     29     -12.2942      1.00000
     30     -11.5708      1.00000
     31     -11.5204      1.00000
     32     -11.2370      1.00000
     33     -11.2183      1.00000
     34     -11.0162      1.00000
     35     -10.9865      1.00000
     36     -10.8190      1.00000
     37     -10.7789      1.00000
     38     -10.4654      1.00000
     39     -10.4318      1.00000
     40     -10.3009      1.00000
     41     -10.1374      1.00000
     42     -10.1149      1.00000
     43     -10.0161      1.00000
     44      -9.8499      1.00000
     45      -9.5995      1.00000
     46      -9.2252      1.00000
     47      -9.1693      1.00000
     48      -9.0501      1.00000
     49      -8.8535      1.00000
     50      -8.7740      1.00000
     51      -8.6541      1.00000
     52      -8.4786      1.00000
     53      -8.2291      1.00000
     54      -8.1052      1.00000
     55      -8.0135      1.00000
     56      -7.7240      1.00000
     57      -7.2943      1.00000
     58      -7.1975      1.00000
     59      -7.1932      1.00000
     60      -6.7592      1.00000
     61      -6.4749      1.00000
     62      -3.3303      1.00000
     63      -1.5230      0.00000
     64      -1.3450      0.00000
     65      -0.8915      0.00000
     66      -0.8576      0.00000
     67      -0.6938      0.00000
     68      -0.5849      0.00000
     69      -0.5146      0.00000
     70      -0.3086      0.00000
     71      -0.1422      0.00000
     72      -0.0664      0.00000
     73       0.0553      0.00000
     74       0.1334      0.00000
     75       0.2542      0.00000
     76       0.4135      0.00000
     77       0.5006      0.00000
     78       0.5719      0.00000
     79       0.6132      0.00000
     80       0.6301      0.00000
     81       0.7186      0.00000
     82       0.8843      0.00000
     83       0.9978      0.00000
     84       1.0066      0.00000
     85       1.1830      0.00000
     86       1.2081      0.00000
     87       1.2344      0.00000
     88       1.2550      0.00000
     89       1.2721      0.00000
     90       1.3735      0.00000
     91       1.3758      0.00000
     92       1.4785      0.00000
     93       1.5613      0.00000
     94       1.6029      0.00000
     95       1.6818      0.00000
     96       1.8592      0.00000

 spin component 2

 k-point     1 :       0.1250    0.1250    0.0000
  band No.  band energies     occupation 
      1     -24.7037      1.00000
      2     -24.0196      1.00000
      3     -23.9207      1.00000
      4     -23.6285      1.00000
      5     -23.4430      1.00000
      6     -23.1902      1.00000
      7     -23.0126      1.00000
      8     -22.2982      1.00000
      9     -22.1099      1.00000
     10     -21.9515      1.00000
     11     -21.8487      1.00000
     12     -21.7618      1.00000
     13     -21.6373      1.00000
     14     -21.6182      1.00000
     15     -21.4215      1.00000
     16     -15.2969      1.00000
     17     -15.2069      1.00000
     18     -15.1144      1.00000
     19     -14.6837      1.00000
     20     -14.4297      1.00000
     21     -14.3445      1.00000
     22     -14.0149      1.00000
     23     -13.6799      1.00000
     24     -13.5031      1.00000
     25     -12.8950      1.00000
     26     -12.7777      1.00000
     27     -12.5874      1.00000
     28     -12.2844      1.00000
     29     -12.1619      1.00000
     30     -11.8762      1.00000
     31     -11.7105      1.00000
     32     -11.5266      1.00000
     33     -11.3971      1.00000
     34     -11.3224      1.00000
     35     -11.1199      1.00000
     36     -10.7452      1.00000
     37     -10.5629      1.00000
     38     -10.4436      1.00000
     39     -10.3907      1.00000
     40     -10.2514      1.00000
     41     -10.0520      1.00000
     42      -9.9833      1.00000
     43      -9.8299      1.00000
     44      -9.6638      1.00000
     45      -9.6231      1.00000
     46      -9.4710      1.00000
     47      -9.2559      1.00000
     48      -9.1108      1.00000
     49      -9.0163      1.00000
     50      -8.9944      1.00000
     51      -8.3449      1.00000
     52      -8.0086      1.00000
     53      -8.0004      1.00000
     54      -7.9035      1.00000
     55      -7.6880      1.00000
     56      -7.4959      1.00000
     57      -7.2775      1.00000
     58      -7.1599      1.00000
     59      -7.0030      1.00000
     60      -6.9553      1.00000
     61      -6.7064      1.00000
     62      -2.5625      0.00000
     63      -1.1199      0.00000
     64      -1.0267      0.00000
     65      -0.7511      0.00000
     66      -0.7207      0.00000
     67      -0.5558      0.00000
     68      -0.4872      0.00000
     69      -0.3945      0.00000
     70      -0.1350      0.00000
     71      -0.1082      0.00000
     72      -0.0666      0.00000
     73       0.0165      0.00000
     74       0.2027      0.00000
     75       0.3029      0.00000
     76       0.4899      0.00000
     77       0.5506      0.00000
     78       0.6166      0.00000
     79       0.7377      0.00000
     80       0.8391      0.00000
     81       0.9795      0.00000
     82       1.0586      0.00000
     83       1.0912      0.00000
     84       1.1723      0.00000
     85       1.1759      0.00000
     86       1.2035      0.00000
     87       1.2627      0.00000
     88       1.3338      0.00000
     89       1.4148      0.00000
     90       1.4915      0.00000
     91       1.5386      0.00000
     92       1.5544      0.00000
     93       1.7556      0.00000
     94       1.7893      0.00000
     95       1.8710      0.00000
     96       1.9625      0.00000

 k-point     2 :       0.3750    0.1250    0.0000
  band No.  band energies     occupation 
      1     -24.5379      1.00000
      2     -24.3525      1.00000
      3     -24.0484      1.00000
      4     -23.6320      1.00000
      5     -23.1211      1.00000
      6     -22.8799      1.00000
      7     -22.7267      1.00000
      8     -22.5922      1.00000
      9     -22.4355      1.00000
     10     -22.1996      1.00000
     11     -21.9639      1.00000
     12     -21.8012      1.00000
     13     -21.6176      1.00000
     14     -21.4454      1.00000
     15     -21.2190      1.00000
     16     -15.1439      1.00000
     17     -15.0132      1.00000
     18     -14.7633      1.00000
     19     -14.6643      1.00000
     20     -14.6421      1.00000
     21     -14.3779      1.00000
     22     -14.2513      1.00000
     23     -13.9072      1.00000
     24     -13.5249      1.00000
     25     -13.3200      1.00000
     26     -13.1768      1.00000
     27     -12.6513      1.00000
     28     -12.3577      1.00000
     29     -12.2757      1.00000
     30     -11.5709      1.00000
     31     -11.4200      1.00000
     32     -11.2063      1.00000
     33     -11.0937      1.00000
     34     -10.9543      1.00000
     35     -10.8484      1.00000
     36     -10.8332      1.00000
     37     -10.5962      1.00000
     38     -10.4847      1.00000
     39     -10.4316      1.00000
     40     -10.2949      1.00000
     41     -10.2498      1.00000
     42     -10.1015      1.00000
     43      -9.8918      1.00000
     44      -9.8576      1.00000
     45      -9.4837      1.00000
[...]
  0.000   0.000  -0.000  -2.419   0.000  -0.000  -4.157   0.000
  0.001   0.001  -0.000   0.000  -2.422  -0.000   0.000  -4.168
 -0.001  -0.001  -4.170  -0.000  -0.000  -6.972  -0.000  -0.001
  0.000   0.000  -0.000  -4.157   0.000  -0.000  -6.941   0.000
  0.001   0.002  -0.000   0.000  -4.168  -0.001   0.000  -6.968
 total augmentation occupancy for first ion, spin component:           1
  4.344  -1.307   0.108   0.000  -0.060  -0.037   0.000   0.020
 -1.307   0.420  -0.033   0.000   0.017   0.012  -0.000  -0.006
  0.108  -0.033   4.994   0.000   0.031  -1.541   0.000  -0.006
  0.000   0.000   0.000   1.616   0.000   0.000  -0.422  -0.000
 -0.060   0.017   0.031   0.000   4.886  -0.006   0.000  -1.513
 -0.037   0.012  -1.541   0.000  -0.006   0.490   0.000   0.001
  0.000  -0.000   0.000  -0.422   0.000   0.000   0.111   0.000
  0.020  -0.006  -0.006  -0.000  -1.513   0.001   0.000   0.482
 total augmentation occupancy for first ion, spin component:           2
  0.003  -0.001  -0.001   0.000   0.001   0.000   0.000  -0.000
 -0.001   0.000   0.000   0.000  -0.001  -0.000  -0.000   0.000
 -0.001   0.000  -0.001  -0.000   0.000   0.000   0.000   0.000
  0.000   0.000  -0.000   0.015   0.000   0.000  -0.002   0.000
  0.001  -0.001   0.000   0.000  -0.001   0.000   0.000   0.000
  0.000  -0.000   0.000   0.000   0.000  -0.000  -0.000  -0.000
  0.000  -0.000   0.000  -0.002   0.000  -0.000   0.000   0.000
 -0.000   0.000   0.000   0.000   0.000  -0.000   0.000  -0.000


------------------------ aborting loop because EDIFF is reached ----------------------------------------


 


 total charge     
 
# of ion       s       p       d       tot
------------------------------------------
    1        0.731   1.354   0.000   2.085
    2        0.730   1.355   0.000   2.085
    3        0.743   1.393   0.000   2.136
    4        0.743   1.395   0.000   2.138
    5        0.750   1.418   0.000   2.169
    6        0.678   1.172   0.000   1.851
    7        0.750   1.417   0.000   2.168
    8        0.743   1.396   0.000   2.140
    9        0.732   1.353   0.000   2.085
   10        0.679   1.172   0.000   1.851
   11        0.680   1.171   0.000   1.851
   12        0.732   1.354   0.000   2.086
   13        0.736   1.368   0.000   2.104
   14        0.730   1.355   0.000   2.086
   15        0.750   1.416   0.000   2.167
   16        0.731   1.355   0.000   2.086
   17        1.237   2.816   0.000   4.053
   18        1.234   2.807   0.000   4.041
   19        1.238   2.824   0.000   4.061
   20        1.235   2.805   0.000   4.039
   21        1.236   2.793   0.000   4.029
   22        1.236   2.795   0.000   4.030
   23        1.238   2.824   0.000   4.061
   24        1.238   2.824   0.000   4.061
   25        1.237   2.791   0.000   4.027
   26        1.237   2.791   0.000   4.027
   27        1.235   2.802   0.000   4.037
   28        1.237   2.816   0.000   4.053
   29        1.236   2.795   0.000   4.030
   30        1.236   2.793   0.000   4.029
   31        1.237   2.816   0.000   4.053
--------------------------------------------------
tot         30.188  63.532   0.000  93.720
 


 magnetization (x)
 
# of ion       s       p       d       tot
------------------------------------------
    1        0.000   0.003   0.000   0.003
    2        0.000   0.003   0.000   0.004
    3        0.001   0.005   0.000   0.006
    4        0.001   0.008   0.000   0.009
    5        0.003   0.028   0.000   0.031
    6        0.005   0.081   0.000   0.086
    7        0.003   0.027   0.000   0.029
    8        0.001   0.011   0.000   0.012
    9        0.000   0.003   0.000   0.003
   10        0.005   0.081   0.000   0.086
   11        0.005   0.080   0.000   0.085
   12        0.000   0.004   0.000   0.004
   13        0.000   0.003   0.000   0.003
   14        0.000   0.004   0.000   0.004
   15        0.003   0.025   0.000   0.028
   16        0.000   0.004   0.000   0.005
   17        0.000   0.003   0.000   0.003
   18       -0.000  -0.003   0.000  -0.003
   19       -0.000  -0.000   0.000  -0.000
   20       -0.000  -0.003   0.000  -0.003
   21       -0.000  -0.002   0.000  -0.002
   22       -0.000  -0.002   0.000  -0.002
   23       -0.000  -0.001   0.000  -0.001
   24       -0.000  -0.002   0.000  -0.002
   25       -0.000  -0.002   0.000  -0.002
   26       -0.000  -0.002   0.000  -0.002
   27       -0.000  -0.003   0.000  -0.003
   28        0.000   0.002   0.000   0.002
   29       -0.000  -0.002   0.000  -0.002
   30       -0.000  -0.002   0.000  -0.002
   31        0.000   0.001   0.000   0.001
--------------------------------------------------
tot          0.023   0.355   0.000   0.378
 
    CHARGE:  cpu time    2.2720: real time    1.6276
    FORLOC:  cpu time    0.1111: real time    0.1112
    FORNL :  cpu time    8.8053: real time    4.4343
    STRESS:  cpu time  209.7961: real time  188.1066
    FORCOR:  cpu time    2.3217: real time    2.3213
    FORHAR:  cpu time    0.2547: real time    0.2546
    MIXING:  cpu time    0.1226: real time    0.1226
    OFIELD:  cpu time    0.0001: real time    0.0001

  FORCE on cell =-STRESS in cart. coord.  units (eV):
  Direction    XX          YY          ZZ          XY          YZ          ZX
  --------------------------------------------------------------------------------------
  Alpha Z    27.64406    27.64406    27.64406
  Ewald   41769.79670 41769.79180-45803.45303    -0.00000     0.00000     0.00000
  Hartree 41546.38444 41546.38489-41036.13796     0.00010     0.00000    -0.00000
  E(xc)    -487.80036  -487.80036  -492.01277     0.01239     0.00003    -0.00000
  Local  -84606.38079-84606.38777 85314.15712     0.00171     0.00001    -0.00001
  n-local  -220.66890  -220.66811  -223.33441     0.01431    -0.00001    -0.00000
  augment    15.88037    15.88065    18.81717     0.00002    -0.00000    -0.00000
  Kinetic  1930.29645  1930.29273  2194.05216     0.34706     0.00003     0.00004
  Fock        0.00000     0.00000     0.00000     0.00000     0.00000     0.00000
  -------------------------------------------------------------------------------------
  Total     -24.85496   -24.85518    -0.26766    -0.00000    -0.00000     0.00000
  in kB     -12.96821   -12.96832    -0.13965    -0.00000    -0.00000     0.00000
  external pressure =       -8.69 kB  Pullay stress =        0.00 kB


 VOLUME and BASIS-vectors are now :
 -----------------------------------------------------------------------------
  energy-cutoff  :      550.00
  volume of cell :     3070.74
      direct lattice vectors                 reciprocal lattice vectors
     5.024366704 -8.702497373  0.000000000     0.099515029 -0.057454772  0.000000000
     5.024366704  8.702497373  0.000000000     0.099515029  0.057454772  0.000000000
     0.000000000  0.000000000 35.114664386     0.000000000  0.000000000  0.028478131

  length of vectors
    10.048767154 10.048767154 35.114664386     0.114909929  0.114909929  0.028478131


 FORCES acting on ions
    electron-ion (+dipol)            ewald-force                    non-local-force                 convergence-correction
 -----------------------------------------------------------------------------------------------
   -.957E+01 0.484E+01 -.398E-04   0.947E+01 -.452E+01 -.204E-18   0.265E+00 -.333E+00 -.529E-22   0.121E-02 -.130E-03 -.664E-08
   -.897E+01 0.587E+01 0.842E-04   0.865E+01 -.594E+01 -.592E-19   0.420E+00 -.629E-01 0.265E-22   0.719E-03 -.985E-03 0.126E-07
   0.248E+01 0.143E+01 0.273E-04   -.248E+01 -.143E+01 0.450E-18   0.455E-03 0.263E-03 0.000E+00   0.947E-03 0.547E-03 0.722E-08
   0.145E-03 -.286E+01 -.374E-04   -.154E-10 0.286E+01 0.264E-18   -.501E-18 -.525E-03 0.000E+00   0.498E-07 -.109E-02 -.171E-07
   -.118E+02 -.680E+01 0.404E-04   0.121E+02 0.696E+01 -.100E-18   -.289E-01 -.167E-01 0.000E+00   -.179E-02 -.103E-02 0.111E-07
   -.825E+02 0.477E+02 0.136E-03   0.802E+02 -.463E+02 -.869E-19   0.236E+01 -.137E+01 -.529E-22   -.516E-02 0.298E-02 0.138E-08
   0.137E-03 0.136E+02 -.822E-04   -.109E-10 -.139E+02 0.342E-18   -.651E-18 0.334E-01 0.000E+00   -.829E-08 0.207E-02 -.150E-07
   -.248E+01 0.143E+01 0.106E-04   0.248E+01 -.143E+01 0.401E-18   -.455E-03 0.263E-03 -.199E-22   -.947E-03 0.547E-03 0.993E-08
   -.594E+00 -.107E+02 0.327E-04   0.819E+00 0.105E+02 -.214E-18   -.156E+00 0.396E+00 0.000E+00   0.494E-03 0.112E-02 -.545E-09
   0.327E-03 -.953E+02 -.193E-03   0.209E-10 0.926E+02 -.186E-18   0.000E+00 0.273E+01 0.000E+00   -.106E-06 -.595E-02 -.418E-08
   0.825E+02 0.477E+02 0.601E-04   -.802E+02 -.463E+02 0.243E-19   -.236E+01 -.137E+01 -.212E-21   0.516E-02 0.298E-02 0.274E-08
   0.897E+01 0.587E+01 -.935E-05   -.865E+01 -.594E+01 -.616E-19   -.420E+00 -.629E-01 0.000E+00   -.719E-03 -.985E-03 0.222E-07
   0.109E-03 -.441E-03 -.838E-06   -.107E-11 0.723E-03 -.362E-18   -.506E-18 -.205E-17 0.000E+00   0.208E-06 0.246E-06 -.683E-10
   0.595E+00 -.107E+02 -.726E-04   -.819E+00 0.105E+02 -.250E-18   0.156E+00 0.396E+00 0.000E+00   -.494E-03 0.111E-02 -.914E-08
   0.118E+02 -.680E+01 0.421E-04   -.121E+02 0.696E+01 0.579E-19   0.289E-01 -.167E-01 0.000E+00   0.179E-02 -.103E-02 0.392E-08
   0.957E+01 0.484E+01 0.143E-05   -.947E+01 -.452E+01 -.175E-18   -.265E+00 -.333E+00 -.993E-23   -.121E-02 -.130E-03 -.184E-07
   -.588E+01 0.339E+01 -.469E-04   0.575E+01 -.332E+01 -.430E-18   0.303E+00 -.175E+00 0.000E+00   0.161E-01 -.928E-02 0.176E-07
   0.401E+01 0.231E+01 0.112E-03   -.424E+01 -.245E+01 0.268E-18   0.269E+00 0.155E+00 0.000E+00   0.124E-01 0.718E-02 0.271E-07
   0.785E+01 -.453E+01 -.517E-04   -.775E+01 0.447E+01 0.506E-18   -.247E+00 0.143E+00 -.212E-21   0.124E-01 -.717E-02 0.115E-07
   -.138E-02 -.463E+01 -.991E-04   -.444E-11 0.490E+01 -.191E-18   0.173E-17 -.311E+00 0.000E+00   0.321E-06 -.144E-01 -.109E-06
   -.406E+02 -.853E+01 -.762E-04   0.406E+02 0.885E+01 -.182E-18   0.680E+00 -.328E+00 0.000E+00   -.532E-02 0.616E-02 0.120E-07
   -.129E+02 0.395E+02 -.327E-04   0.126E+02 -.395E+02 0.235E-18   0.624E+00 -.425E+00 0.000E+00   -.800E-02 0.153E-02 0.166E-07
   -.137E-02 0.907E+01 -.325E-04   0.179E-10 -.895E+01 0.896E-18   0.867E-18 -.285E+00 0.529E-22   0.127E-06 0.143E-01 -.353E-07
   -.785E+01 -.453E+01 0.841E-04   0.775E+01 0.447E+01 0.304E-18   0.247E+00 0.143E+00 0.000E+00   -.124E-01 -.717E-02 0.238E-07
   -.277E+02 -.309E+02 0.698E-04   0.279E+02 0.307E+02 -.314E-18   0.563E-01 0.753E+00 0.000E+00   0.268E-02 -.769E-02 -.221E-08
   0.129E+02 0.395E+02 0.101E-03   -.126E+02 -.395E+02 0.214E-18   -.624E+00 -.425E+00 -.106E-21   0.800E-02 0.153E-02 -.136E-07
   -.401E+01 0.231E+01 -.134E-04   0.424E+01 -.245E+01 0.135E-18   -.269E+00 0.155E+00 0.238E-21   -.124E-01 0.718E-02 0.821E-07
   -.136E-02 -.679E+01 -.420E-04   -.333E-11 0.664E+01 -.495E-18   0.000E+00 0.350E+00 0.000E+00   0.448E-07 0.186E-01 -.332E-07
   0.277E+02 -.309E+02 0.502E-04   -.279E+02 0.307E+02 -.257E-18   -.563E-01 0.753E+00 -.847E-21   -.268E-02 -.769E-02 -.354E-07
   0.406E+02 -.853E+01 -.111E-03   -.406E+02 0.885E+01 -.221E-18   -.680E+00 -.328E+00 0.000E+00   0.532E-02 0.616E-02 0.228E-07
   0.588E+01 0.339E+01 0.886E-04   -.575E+01 -.332E+01 -.310E-18   -.303E+00 -.175E+00 0.000E+00   -.161E-01 -.928E-02 0.156E-07
 -----------------------------------------------------------------------------------------------
   -.233E-01 -.146E-01 -.769E-06   0.222E-13 0.107E-12 0.000E+00   -.611E-15 -.555E-16 -.119E-20   0.178E-06 0.370E-06 -.164E-09
 
 
 POSITION                                       TOTAL-FORCE (eV/Angst)
 -----------------------------------------------------------------------------------
      1.27441     -0.72895     17.55733         0.013800     -0.002707      0.000000
      2.52459      1.43642     17.55733         0.009244     -0.010598     -0.000000
      3.76922      3.62658     17.55733         0.001361      0.000786      0.000000
      5.02437      5.80058     17.55733         0.000000     -0.001572     -0.000000
      2.50904     -2.90265     17.55733         0.006592      0.003806      0.000000
      3.84063     -0.76698     17.55733        -0.008239      0.004757     -0.000000
      5.02437      1.45406     17.55733         0.000000     -0.007611      0.000000
      6.27953      3.62658     17.55733        -0.001361      0.000786      0.000000
      3.77420     -5.05872     17.55733         0.004556      0.013305      0.000000
      5.02437     -2.81729     17.55733         0.000000     -0.009513     -0.000000
      6.20812     -0.76698     17.55733         0.008239      0.004757     -0.000000
      7.52416      1.43642     17.55733        -0.009244     -0.010598      0.000000
      5.02437     -7.25208     17.55733         0.000000     -0.000000      0.000000
      6.27454     -5.05872     17.55733        -0.004556      0.013305      0.000000
      7.53971     -2.90265     17.55733        -0.006592      0.003806      0.000000
      8.77433     -0.72895     17.55733        -0.013800     -0.002707      0.000000
      1.26344      0.72097     17.55733        -0.012478      0.007204     -0.000000
      2.51240      2.90095     17.55733        -0.004293     -0.002479      0.000000
      3.76820      5.07650     17.55733         0.006658     -0.003844      0.000000
      5.02437      7.25184     17.55733         0.000000      0.004957      0.000000
      2.55688     -1.46084     17.55733        -0.000320      0.000904      0.000000
      3.79966      0.69172     17.55733        -0.000943     -0.000175      0.000000
      5.02437      2.90074     17.55733         0.000000      0.007688     -0.000000
      6.28054      5.07650     17.55733        -0.006658     -0.003844      0.000000
      3.78160     -3.58212     17.55733         0.000623     -0.000729      0.000000
      6.24909      0.69172     17.55733         0.000943     -0.000175      0.000000
      7.53635      2.90095     17.55733         0.004293     -0.002479      0.000000
      5.02437     -5.79318     17.55733         0.000000     -0.014409      0.000000
      6.26715     -3.58212     17.55733        -0.000623     -0.000729     -0.000000
      7.49186     -1.46084     17.55733         0.000320      0.000904      0.000000
      8.78530      0.72097     17.55733         0.012478      0.007204      0.000000
 -----------------------------------------------------------------------------------
    total drift:                               -0.023328     -0.014616     -0.000001


--------------------------------------------------------------------------------------------------------



  FREE ENERGIE OF THE ION-ELECTRON SYSTEM (eV)
  ---------------------------------------------------
  free  energy   TOTEN  =      -296.08982549 eV

  energy  without entropy=     -296.08982549  energy(sigma->0) =     -296.08982549
 
 d Force = 0.1886348E-03[-0.503E-04, 0.428E-03]  d Energy = 0.1847694E-03 0.387E-05
 d Force =-0.4483628E+00[-0.450E+00,-0.446E+00]  d Ewald  =-0.4483627E+00-0.324E-07


--------------------------------------------------------------------------------------------------------


    POTLOK:  cpu time   31.6684: real time   31.6605


--------------------------------------------------------------------------------------------------------


 Conjugate gradient step on ions:
 trial-energy change:   -0.000185  1 .order   -0.000189   -0.000428    0.000050
  (g-gl).g = 0.937E-03      g.g   = 0.850E-03  gl.gl    = 0.285E-02
 g(Force)  = 0.850E-03   g(Stress)= 0.000E+00 ortho     = 0.332E-04
 gamma     =   0.32863
 trial     =   0.49633
 opt step  =   0.44411  (harmonic =   0.44411) maximal distance =0.00089423
 next E    =  -296.089832   (d E  =  -0.00019)


--------------------------------------------------------------------------------------------------------


  
 reached required accuracy - stopping structural energy minimisation
 writing wavefunctions
     LOOP+:  cpu time  763.6983: real time  589.6449
    4ORBIT:  cpu time    0.0000: real time    0.0000
 


 total charge     
 
# of ion       s       p       d       tot
------------------------------------------
    1        0.731   1.354   0.000   2.085
    2        0.730   1.355   0.000   2.085
    3        0.743   1.393   0.000   2.136
    4        0.743   1.395   0.000   2.138
    5        0.750   1.418   0.000   2.169
    6        0.678   1.172   0.000   1.851
    7        0.750   1.417   0.000   2.168
    8        0.743   1.396   0.000   2.140
    9        0.732   1.353   0.000   2.085
   10        0.679   1.172   0.000   1.851
   11        0.680   1.171   0.000   1.851
   12        0.732   1.354   0.000   2.086
   13        0.736   1.368   0.000   2.104
   14        0.730   1.355   0.000   2.086
   15        0.750   1.416   0.000   2.167
   16        0.731   1.355   0.000   2.086
   17        1.237   2.816   0.000   4.053
   18        1.234   2.807   0.000   4.041
   19        1.238   2.824   0.000   4.061
   20        1.235   2.805   0.000   4.039
   21        1.236   2.793   0.000   4.029
   22        1.236   2.795   0.000   4.030
   23        1.238   2.824   0.000   4.061
   24        1.238   2.824   0.000   4.061
   25        1.237   2.791   0.000   4.027
   26        1.237   2.791   0.000   4.027
   27        1.235   2.802   0.000   4.037
   28        1.237   2.816   0.000   4.053
   29        1.236   2.795   0.000   4.030
   30        1.236   2.793   0.000   4.029
   31        1.237   2.816   0.000   4.053
--------------------------------------------------
tot         30.188  63.532   0.000  93.720
 


 magnetization (x)
 
# of ion       s       p       d       tot
------------------------------------------
    1        0.000   0.003   0.000   0.003
    2        0.000   0.003   0.000   0.004
    3        0.001   0.005   0.000   0.006
    4        0.001   0.008   0.000   0.009
    5        0.003   0.028   0.000   0.031
    6        0.005   0.081   0.000   0.086
    7        0.003   0.027   0.000   0.029
    8        0.001   0.011   0.000   0.012
    9        0.000   0.003   0.000   0.003
   10        0.005   0.081   0.000   0.086
   11        0.005   0.080   0.000   0.085
   12        0.000   0.004   0.000   0.004
   13        0.000   0.003   0.000   0.003
   14        0.000   0.004   0.000   0.004
   15        0.003   0.025   0.000   0.028
   16        0.000   0.004   0.000   0.005
   17        0.000   0.003   0.000   0.003
   18       -0.000  -0.003   0.000  -0.003
   19       -0.000  -0.000   0.000  -0.000
   20       -0.000  -0.003   0.000  -0.003
   21       -0.000  -0.002   0.000  -0.002
   22       -0.000  -0.002   0.000  -0.002
   23       -0.000  -0.001   0.000  -0.001
   24       -0.000  -0.002   0.000  -0.002
   25       -0.000  -0.002   0.000  -0.002
   26       -0.000  -0.002   0.000  -0.002
   27       -0.000  -0.003   0.000  -0.003
   28        0.000   0.002   0.000   0.002
   29       -0.000  -0.002   0.000  -0.002
   30       -0.000  -0.002   0.000  -0.002
   31        0.000   0.001   0.000   0.001
--------------------------------------------------
tot          0.023   0.355   0.000   0.378
 

 total amount of memory used by VASP MPI-rank0   235798. kBytes
=======================================================================

   base      :      30000. kBytes
   nonlr-proj:       5544. kBytes
   fftplans  :      29093. kBytes
   grid      :     101821. kBytes
   one-center:         36. kBytes
   wavefun   :      69304. kBytes
 
  
  
 General timing and accounting informations for this job:
 ========================================================
  
                  Total CPU time used (sec):    10466.857
                            User time (sec):     9793.674
                          System time (sec):      673.183
                         Elapsed time (sec):     7716.037
  
                   Maximum memory used (kb):     1029340.
                   Average memory used (kb):           0.
  
                          Minor page faults:     15451303
                          Major page faults:           20
                 Voluntary context switches:        59958
