 vasp.5.4.4.18Apr17-6-g9f103f2a35 (build May 01 2020 14:57:12) complex          
  
 executed on             LinuxIFC date 2020.10.11  08:01:32
 running on   72 total cores
 distrk:  each k-point on   24 cores,    3 groups
 distr:  one band on NCORES_PER_BAND=   1 cores,   24 groups


--------------------------------------------------------------------------------------------------------


 INCAR:
 POTCAR:    PAW_PBE B 06Sep2000                   
 POTCAR:    PAW_PBE N 08Apr2002                   
 POTCAR:    PAW_PBE C 08Apr2002                   
 POTCAR:    PAW_PBE F 08Apr2002                   
 POTCAR:    PAW_PBE O 08Apr2002                   

 ----------------------------------------------------------------------------- 
|                                                                             |
|           W    W    AA    RRRRR   N    N  II  N    N   GGGG   !!!           |
|           W    W   A  A   R    R  NN   N  II  NN   N  G    G  !!!           |
|           W    W  A    A  R    R  N N  N  II  N N  N  G       !!!           |
|           W WW W  AAAAAA  RRRRR   N  N N  II  N  N N  G  GGG   !            |
|           WW  WW  A    A  R   R   N   NN  II  N   NN  G    G                |
|           W    W  A    A  R    R  N    N  II  N    N   GGGG   !!!           |
|                                                                             |
|      For optimal performance we recommend to set                            |
|        NCORE= 4 - approx SQRT( number of cores)                             |
|      NCORE specifies how many cores store one orbital (NPAR=cpu/NCORE).     |
|      This setting can  greatly improve the performance of VASP for DFT.     |
|      The default,   NCORE=1            might be grossly inefficient         |
|      on modern multi-core architectures or massively parallel machines.     |
|      Do your own testing !!!!                                               |
|      Unfortunately you need to use the default for GW and RPA calculations. |
|      (for HF NCORE is supported but not extensively tested yet)             |
|                                                                             |
 ----------------------------------------------------------------------------- 


 ----------------------------------------------------------------------------- 
|                                                                             |
|           W    W    AA    RRRRR   N    N  II  N    N   GGGG   !!!           |
|           W    W   A  A   R    R  NN   N  II  NN   N  G    G  !!!           |
|           W    W  A    A  R    R  N N  N  II  N N  N  G       !!!           |
|           W WW W  AAAAAA  RRRRR   N  N N  II  N  N N  G  GGG   !            |
|           WW  WW  A    A  R   R   N   NN  II  N   NN  G    G                |
|           W    W  A    A  R    R  N    N  II  N    N   GGGG   !!!           |
|                                                                             |
|      You have enabled k-point parallelism (KPAR>1).                         |
|      This developmental code was originally  written by Paul Kent at ORNL,  |
|      and carefully double checked in Vienna.                                |
|      GW as well as linear response parallelism added by Martijn Marsman     |
|      and Georg Kresse.                                                      |
|      Carefully verify results versus KPAR=1.                                |
|      Report problems to Paul Kent and Vienna.                               |
|                                                                             |
 ----------------------------------------------------------------------------- 

 POTCAR:    PAW_PBE B 06Sep2000                   
   VRHFIN =B: s2p1                                                              
   LEXCH  = PE                                                                  
   EATOM  =    71.1703 eV,    5.2309 Ry                                         
                                                                                
   TITEL  = PAW_PBE B 06Sep2000                                                 
   LULTRA =        F    use ultrasoft PP ?                                      
   IUNSCR =        1    unscreen: 0-lin 1-nonlin 2-no                           
   RPACOR =    1.200    partial core radius                                     
   POMASS =   10.811; ZVAL   =    3.000    mass and valenz                      
   RCORE  =    1.700    outmost cutoff radius                                   
   RWIGS  =    1.710; RWIGS  =    0.905    wigner-seitz radius (au A)           
   ENMAX  =  318.614; ENMIN  =  238.960 eV                                      
   ICORE  =        2    local potential                                         
   LCOR   =        T    correct aug charges                                     
   LPAW   =        T    paw PP                                                  
   EAUG   =  535.514                                                            
   DEXC   =    0.000                                                            
   RMAX   =    1.732    core radius for proj-oper                               
   RAUG   =    1.300    factor for augmentation sphere                          
   RDEP   =    1.757    radius for radial grids                                 
   RDEPT  =    1.436    core radius for aug-charge                              
                                                                                
   Atomic configuration                                                         
    4 entries                                                                   
     n  l   j            E        occ.                                          
     1  0  0.50      -180.5896   2.0000                                         
     2  0  0.50        -9.4431   2.0000                                         
     2  1  0.50        -3.6068   1.0000                                         
     3  2  1.50        -4.0817   0.0000                                         
   Description                                                                  
     l       E           TYP  RCUT    TYP  RCUT                                 
     0     -9.4430752     23  1.500                                             
     0      0.8675899     23  1.500                                             
     1     -3.6067955     23  1.700                                             
     1      6.1086146     23  1.700                                             
     2     -4.0817478      7  1.700                                             
  local pseudopotential read in
  partial core-charges read in
  partial kinetic energy density read in
  atomic valenz-charges read in
  non local Contribution for L=           0  read in
    real space projection operators read in
  non local Contribution for L=           0  read in
    real space projection operators read in
  non local Contribution for L=           1  read in
    real space projection operators read in
  non local Contribution for L=           1  read in
    real space projection operators read in
    PAW grid and wavefunctions read in
 
   number of l-projection  operators is LMAX  =           4
   number of lm-projection operators is LMMAX =           8
 
 POTCAR:    PAW_PBE N 08Apr2002                   
   VRHFIN =N: s2p3                                                              
   LEXCH  = PE                                                                  
   EATOM  =   264.5486 eV,   19.4438 Ry                                         
                                                                                
   TITEL  = PAW_PBE N 08Apr2002                                                 
   LULTRA =        F    use ultrasoft PP ?                                      
   IUNSCR =        1    unscreen: 0-lin 1-nonlin 2-no                           
   RPACOR =    1.200    partial core radius                                     
   POMASS =   14.001; ZVAL   =    5.000    mass and valenz                      
   RCORE  =    1.500    outmost cutoff radius                                   
   RWIGS  =    1.400; RWIGS  =    0.741    wigner-seitz radius (au A)           
   ENMAX  =  400.000; ENMIN  =  300.000 eV                                      
   ICORE  =        2    local potential                                         
   LCOR   =        T    correct aug charges                                     
   LPAW   =        T    paw PP                                                  
   EAUG   =  627.112                                                            
   DEXC   =    0.000                                                            
   RMAX   =    1.529    core radius for proj-oper                               
   RAUG   =    1.300    factor for augmentation sphere                          
   RDEP   =    1.514    radius for radial grids                                 
   RDEPT  =    1.338    core radius for aug-charge                              
                                                                                
   Atomic configuration                                                         
    4 entries                                                                   
     n  l   j            E        occ.                                          
     1  0  0.50      -384.7179   2.0000                                         
     2  0  0.50       -18.5828   2.0000                                         
     2  1  0.50        -7.0898   3.0000                                         
     3  2  1.50        -6.8029   0.0000                                         
   Description                                                                  
     l       E           TYP  RCUT    TYP  RCUT                                 
     0    -18.5828119     23  1.200                                             
     0    -13.5018863     23  1.200                                             
     1     -7.0897853     23  1.500                                             
     1      9.5240782     23  1.500                                             
     2     -6.8029130      7  1.500                                             
  local pseudopotential read in
  partial core-charges read in
  partial kinetic energy density read in
  atomic valenz-charges read in
  non local Contribution for L=           0  read in
    real space projection operators read in
  non local Contribution for L=           0  read in
    real space projection operators read in
  non local Contribution for L=           1  read in
    real space projection operators read in
  non local Contribution for L=           1  read in
    real space projection operators read in
    PAW grid and wavefunctions read in
 
   number of l-projection  operators is LMAX  =           4
   number of lm-projection operators is LMMAX =           8
 
 POTCAR:    PAW_PBE C 08Apr2002                   
   VRHFIN =C: s2p2                                                              
   LEXCH  = PE                                                                  
   EATOM  =   147.1560 eV,   10.8157 Ry                                         
                                                                                
   TITEL  = PAW_PBE C 08Apr2002                                                 
   LULTRA =        F    use ultrasoft PP ?                                      
   IUNSCR =        1    unscreen: 0-lin 1-nonlin 2-no                           
   RPACOR =    1.200    partial core radius                                     
   POMASS =   12.011; ZVAL   =    4.000    mass and valenz                      
   RCORE  =    1.500    outmost cutoff radius                                   
   RWIGS  =    1.630; RWIGS  =    0.863    wigner-seitz radius (au A)           
   ENMAX  =  400.000; ENMIN  =  300.000 eV                                      
   ICORE  =        2    local potential                                         
   LCOR   =        T    correct aug charges                                     
   LPAW   =        T    paw PP                                                  
   EAUG   =  644.873                                                            
   DEXC   =    0.000                                                            
   RMAX   =    1.529    core radius for proj-oper                               
   RAUG   =    1.300    factor for augmentation sphere                          
   RDEP   =    1.501    radius for radial grids                                 
   RDEPT  =    1.300    core radius for aug-charge                              
                                                                                
   Atomic configuration                                                         
    4 entries                                                                   
     n  l   j            E        occ.                                          
     1  0  0.50      -273.3789   2.0000                                         
     2  0  0.50       -13.7508   2.0000                                         
     2  1  0.50        -5.2854   2.0000                                         
     3  2  1.50        -5.4423   0.0000                                         
   Description                                                                  
     l       E           TYP  RCUT    TYP  RCUT                                 
     0    -13.7508458     23  1.200                                             
     0     -8.2022199     23  1.200                                             
     1     -5.2854383     23  1.500                                             
     1     34.0145650     23  1.500                                             
     2     -5.4423304      7  1.500                                             
  local pseudopotential read in
  partial core-charges read in
  partial kinetic energy density read in
  atomic valenz-charges read in
  non local Contribution for L=           0  read in
    real space projection operators read in
  non local Contribution for L=           0  read in
    real space projection operators read in
  non local Contribution for L=           1  read in
    real space projection operators read in
  non local Contribution for L=           1  read in
    real space projection operators read in
    PAW grid and wavefunctions read in
 
   number of l-projection  operators is LMAX  =           4
   number of lm-projection operators is LMMAX =           8
 
 POTCAR:    PAW_PBE F 08Apr2002                   
   VRHFIN =F: s2p5                                                              
   LEXCH  = PE                                                                  
   EATOM  =   659.6475 eV,   48.4827 Ry                                         
                                                                                
   TITEL  = PAW_PBE F 08Apr2002                                                 
   LULTRA =        F    use ultrasoft PP ?                                      
   IUNSCR =        1    unscreen: 0-lin 1-nonlin 2-no                           
   RPACOR =    1.200    partial core radius                                     
   POMASS =   18.998; ZVAL   =    7.000    mass and valenz                      
   RCORE  =    1.520    outmost cutoff radius                                   
   RWIGS  =    1.500; RWIGS  =    0.794    wigner-seitz radius (au A)           
   ENMAX  =  400.000; ENMIN  =  300.000 eV                                      
   ICORE  =        2    local potential                                         
   LCOR   =        T    correct aug charges                                     
   LPAW   =        T    paw PP                                                  
   EAUG   =  613.614                                                            
   RMAX   =    1.555    core radius for proj-oper                               
   RAUG   =    1.300    factor for augmentation sphere                          
   RDEP   =    1.539    radius for radial grids                                 
   RDEPT  =    1.299    core radius for aug-charge                              
                                                                                
   Atomic configuration                                                         
    4 entries                                                                   
     n  l   j            E        occ.                                          
     1  0  0.50      -663.3661   2.0000                                         
     2  0  0.50       -29.8995   2.0000                                         
     2  1  0.50       -11.1114   5.0000                                         
     3  2  1.50       -10.8847   0.0000                                         
   Description                                                                  
     l       E           TYP  RCUT    TYP  RCUT                                 
     0    -29.8995018     23  1.200                                             
     0     -9.5240782     23  1.200                                             
     1    -11.1113914     23  1.520                                             
     1      1.3605826     23  1.520                                             
     2    -10.8846608      7  1.500                                             
  local pseudopotential read in
  partial core-charges read in
  partial kinetic energy density read in
  atomic valenz-charges read in
  non local Contribution for L=           0  read in
    real space projection operators read in
  non local Contribution for L=           0  read in
    real space projection operators read in
  non local Contribution for L=           1  read in
    real space projection operators read in
  non local Contribution for L=           1  read in
    real space projection operators read in
    PAW grid and wavefunctions read in
 
   number of l-projection  operators is LMAX  =           4
   number of lm-projection operators is LMMAX =           8
 
 POTCAR:    PAW_PBE O 08Apr2002                   
   VRHFIN =O: s2p4                                                              
   LEXCH  = PE                                                                  
   EATOM  =   432.3788 eV,   31.7789 Ry                                         
                                                                                
   TITEL  = PAW_PBE O 08Apr2002                                                 
   LULTRA =        F    use ultrasoft PP ?                                      
   IUNSCR =        1    unscreen: 0-lin 1-nonlin 2-no                           
   RPACOR =    1.200    partial core radius                                     
   POMASS =   16.000; ZVAL   =    6.000    mass and valenz                      
   RCORE  =    1.520    outmost cutoff radius                                   
   RWIGS  =    1.550; RWIGS  =    0.820    wigner-seitz radius (au A)           
   ENMAX  =  400.000; ENMIN  =  300.000 eV                                      
   ICORE  =        2    local potential                                         
   LCOR   =        T    correct aug charges                                     
   LPAW   =        T    paw PP                                                  
   EAUG   =  605.392                                                            
   DEXC   =    0.000                                                            
   RMAX   =    1.553    core radius for proj-oper                               
   RAUG   =    1.300    factor for augmentation sphere                          
   RDEP   =    1.550    radius for radial grids                                 
   RDEPT  =    1.329    core radius for aug-charge                              
                                                                                
   Atomic configuration                                                         
    4 entries                                                                   
     n  l   j            E        occ.                                          
     1  0  0.50      -514.6923   2.0000                                         
     2  0  0.50       -23.9615   2.0000                                         
     2  1  0.50        -9.0305   4.0000                                         
     3  2  1.50        -9.5241   0.0000                                         
   Description                                                                  
     l       E           TYP  RCUT    TYP  RCUT                                 
     0    -23.9615318     23  1.200                                             
     0     -9.5240782     23  1.200                                             
     1     -9.0304911     23  1.520                                             
     1      8.1634956     23  1.520                                             
     2     -9.5240782      7  1.500                                             
  local pseudopotential read in
  partial core-charges read in
  partial kinetic energy density read in
  kinetic energy density of atom read in
  atomic valenz-charges read in
  non local Contribution for L=           0  read in
    real space projection operators read in
  non local Contribution for L=           0  read in
    real space projection operators read in
  non local Contribution for L=           1  read in
    real space projection operators read in
  non local Contribution for L=           1  read in
    real space projection operators read in
    PAW grid and wavefunctions read in
 
   number of l-projection  operators is LMAX  =           4
   number of lm-projection operators is LMMAX =           8
 
 Optimization of the real space projectors (new method)

 maximal supplied QI-value         = 22.11
 optimisation between [QCUT,QGAM] = [ 11.94, 23.88] = [ 39.92,159.67] Ry 
 Optimized for a Real-space Cutoff    1.18 Angstroem

   l    n(q)    QCUT    max X(q) W(low)/X(q) W(high)/X(q)  e(spline) 
   0      8    11.939    53.033    0.11E-03    0.34E-03    0.60E-07
   0      8    11.939    34.740    0.11E-03    0.34E-03    0.59E-07
   1      8    11.939    30.949    0.22E-03    0.20E-03    0.17E-06
   1      8    11.939    19.518    0.20E-03    0.18E-03    0.16E-06
 Optimization of the real space projectors (new method)

 maximal supplied QI-value         = 25.13
 optimisation between [QCUT,QGAM] = [ 11.81, 23.88] = [ 39.08,159.64] Ry 
 Optimized for a Real-space Cutoff    1.41 Angstroem

   l    n(q)    QCUT    max X(q) W(low)/X(q) W(high)/X(q)  e(spline) 
   0     10    11.813    79.467    0.48E-04    0.30E-04    0.67E-06
   0     10    11.813    66.151    0.47E-04    0.30E-04    0.67E-06
   1     10    11.813    20.169    0.11E-03    0.17E-03    0.11E-05
   1     10    11.813    14.454    0.11E-03    0.17E-03    0.11E-05
 Optimization of the real space projectors (new method)

 maximal supplied QI-value         = 25.13
 optimisation between [QCUT,QGAM] = [ 11.81, 23.88] = [ 39.08,159.64] Ry 
 Optimized for a Real-space Cutoff    1.18 Angstroem

   l    n(q)    QCUT    max X(q) W(low)/X(q) W(high)/X(q)  e(spline) 
   0      8    11.813   115.676    0.10E-03    0.16E-03    0.35E-06
   0      8    11.813    87.132    0.10E-03    0.16E-03    0.35E-06
   1      8    11.813     4.429    0.16E-03    0.13E-04    0.22E-06
   1      8    11.813     2.733    0.13E-03    0.10E-04    0.18E-06
 Optimization of the real space projectors (new method)

 maximal supplied QI-value         = 24.76
 optimisation between [QCUT,QGAM] = [ 11.88, 24.01] = [ 39.54,161.47] Ry 
 Optimized for a Real-space Cutoff    1.18 Angstroem

   l    n(q)    QCUT    max X(q) W(low)/X(q) W(high)/X(q)  e(spline) 
   0      8    11.883    14.049    0.56E-04    0.86E-04    0.22E-06
   0      8    11.883     8.945    0.81E-04    0.11E-03    0.30E-06
   1      8    11.883     7.086    0.16E-03    0.15E-04    0.31E-06
   1      8    11.883     6.747    0.15E-03    0.14E-04    0.28E-06
 Optimization of the real space projectors (new method)

 maximal supplied QI-value         = 24.76
 optimisation between [QCUT,QGAM] = [ 11.88, 24.01] = [ 39.54,161.47] Ry 
 Optimized for a Real-space Cutoff    1.18 Angstroem

   l    n(q)    QCUT    max X(q) W(low)/X(q) W(high)/X(q)  e(spline) 
   0      8    11.883    20.381    0.86E-04    0.11E-03    0.31E-06
   0      8    11.883    15.268    0.94E-04    0.12E-03    0.33E-06
   1      8    11.883     5.964    0.19E-03    0.18E-04    0.33E-06
   1      8    11.883     5.382    0.17E-03    0.20E-04    0.29E-06
  PAW_PBE B 06Sep2000                   :
 energy of atom  1       EATOM=  -71.1703
 kinetic energy error for atom=    0.0009 (will be added to EATOM!!)
  PAW_PBE N 08Apr2002                   :
 energy of atom  2       EATOM= -264.5486
 kinetic energy error for atom=    0.0116 (will be added to EATOM!!)
  PAW_PBE C 08Apr2002                   :
 energy of atom  3       EATOM= -147.1560
 kinetic energy error for atom=    0.0066 (will be added to EATOM!!)
  PAW_PBE F 08Apr2002                   :
 energy of atom  4       EATOM= -659.6475
 kinetic energy error for atom=    0.0296 (will be added to EATOM!!)
  PAW_PBE O 08Apr2002                   :
 energy of atom  5       EATOM= -432.3788
 kinetic energy error for atom=    0.0194 (will be added to EATOM!!)
 
 
 POSCAR: B N C F O                               
  positions in direct lattice
  velocities in cartesian coordinates

 METAGGA = SCAN     LMAXTAU =  6    LMIXTAU =  F

 exchange correlation table for  LEXCH =        8
   RHO(1)=    0.500       N(1)  =     2000
   RHO(2)=  100.500       N(2)  =     4000
 


--------------------------------------------------------------------------------------------------------


 ion  position               nearest neighbor table
   1  0.083  0.042  0.502-  72 1.45  65 1.45  73 1.45
   2  0.083  0.167  0.502-  65 1.45  66 1.45  74 1.45
   3  0.083  0.292  0.502-  67 1.45  66 1.45  75 1.45
   4  0.083  0.417  0.502-  68 1.45  67 1.45  76 1.45
   5  0.083  0.542  0.502-  69 1.45  68 1.45  77 1.45
   6  0.083  0.667  0.502-  70 1.45  78 1.45  69 1.45
   7  0.083  0.792  0.502-  70 1.45  71 1.45  79 1.45
   8  0.083  0.917  0.502-  71 1.45  72 1.45  80 1.45
   9  0.208  0.042  0.502-  80 1.45  81 1.45  73 1.45
  10  0.208  0.167  0.502-  73 1.45  82 1.45  74 1.45
  11  0.208  0.292  0.502-  74 1.45  75 1.45  83 1.45
  12  0.208  0.417  0.502-  76 1.45  84 1.45  75 1.45
  13  0.208  0.542  0.502-  77 1.45  85 1.45  76 1.45
  14  0.208  0.667  0.502-  78 1.45  86 1.45  77 1.45
  15  0.208  0.792  0.502-  79 1.45  87 1.45  78 1.45
  16  0.208  0.917  0.502-  79 1.45  88 1.45  80 1.45
  17  0.333  0.042  0.502-  88 1.45  89 1.45  81 1.45
  18  0.333  0.167  0.502-  81 1.45  90 1.45  82 1.45
  19  0.333  0.292  0.502-  91 1.45  82 1.45  83 1.45
  20  0.333  0.417  0.502-  92 1.45  84 1.45  83 1.45
  21  0.333  0.542  0.502-  93 1.45  85 1.45  84 1.45
  22  0.333  0.667  0.502-  86 1.45  94 1.45  85 1.45
  23  0.333  0.792  0.502-  87 1.45  95 1.45  86 1.45
  24  0.333  0.917  0.502-  87 1.45  96 1.45  88 1.45
  25  0.458  0.042  0.502-  96 1.45  97 1.45  89 1.45
  26  0.458  0.167  0.502-  89 1.45  98 1.45  90 1.45
  27  0.458  0.292  0.502-  99 1.45  90 1.45  91 1.45
  28  0.458  0.417  0.502- 100 1.45  92 1.45  91 1.45
  29  0.458  0.542  0.502- 101 1.45  93 1.45  92 1.45
  30  0.458  0.667  0.502-  94 1.45 102 1.45  93 1.45
  31  0.458  0.792  0.502-  95 1.45 103 1.45  94 1.45
  32  0.458  0.917  0.502- 104 1.45  95 1.45  96 1.45
  33  0.583  0.042  0.502- 105 1.45 104 1.45  97 1.45
  34  0.583  0.167  0.502-  97 1.45 106 1.45  98 1.45
  35  0.583  0.292  0.502- 107 1.45  98 1.45  99 1.45
  36  0.583  0.417  0.502- 108 1.45  99 1.45 100 1.45
  37  0.583  0.542  0.502- 109 1.45 101 1.45 100 1.45
  38  0.583  0.667  0.502- 102 1.45 110 1.45 101 1.45
  39  0.583  0.792  0.502- 103 1.45 111 1.45 102 1.45
  40  0.583  0.917  0.502- 112 1.45 103 1.45 104 1.45
  41  0.708  0.042  0.502- 105 1.45 112 1.45 113 1.45
  42  0.708  0.167  0.502- 105 1.45 106 1.45 114 1.45
  43  0.708  0.292  0.502- 106 1.45 107 1.45 115 1.45
  44  0.708  0.417  0.502- 107 1.45 108 1.45 116 1.45
  45  0.708  0.542  0.502- 109 1.45 117 1.45 108 1.45
  46  0.708  0.667  0.502- 110 1.45 118 1.45 109 1.45
  47  0.708  0.792  0.502- 119 1.45 111 1.45 110 1.45
  48  0.708  0.917  0.502- 112 1.45 111 1.45 120 1.45
  49  0.833  0.042  0.502- 113 1.45 120 1.45 121 1.45
  50  0.833  0.167  0.502- 114 1.45 113 1.45 122 1.45
  51  0.833  0.292  0.502- 115 1.45 114 1.45 123 1.45
  52  0.833  0.417  0.502- 116 1.45 115 1.45 124 1.45
  53  0.833  0.542  0.502- 117 1.45 116 1.45 125 1.45
  54  0.833  0.667  0.502- 118 1.45 117 1.45 126 1.45
  55  0.833  0.792  0.502- 119 1.45 118 1.45 127 1.45
  56  0.833  0.917  0.502- 120 1.45 119 1.45 128 1.45
  57  0.958  0.042  0.502- 121 1.45 128 1.45  65 1.45
  58  0.958  0.167  0.502- 122 1.45 121 1.45  66 1.45
  59  0.958  0.292  0.502- 123 1.45 122 1.45  67 1.45
  60  0.958  0.417  0.502- 124 1.45 123 1.45  68 1.45
  61  0.958  0.542  0.502- 125 1.45 124 1.45  69 1.45
  62  0.958  0.667  0.502- 126 1.45 125 1.45  70 1.45
  63  0.958  0.792  0.502- 127 1.45 126 1.45  71 1.45
  64  0.958  0.917  0.502- 127 1.45 128 1.45  72 1.45
  65  0.042  0.083  0.502-   2 1.45   1 1.45  57 1.45
  66  0.042  0.208  0.502-   2 1.45   3 1.45  58 1.45
  67  0.042  0.333  0.502-   3 1.45   4 1.45  59 1.45
  68  0.042  0.458  0.502-   4 1.45   5 1.45  60 1.45
  69  0.042  0.583  0.502-   5 1.45  61 1.45   6 1.45
  70  0.042  0.708  0.502-   6 1.45   7 1.45  62 1.45
  71  0.042  0.833  0.502-   8 1.45   7 1.45  63 1.45
  72  0.042  0.958  0.502-   1 1.45   8 1.45  64 1.45
  73  0.167  0.083  0.502-  10 1.45   9 1.45   1 1.45
  74  0.167  0.208  0.502-  11 1.45  10 1.45   2 1.45
  75  0.167  0.333  0.502-  11 1.45  12 1.45   3 1.45
  76  0.167  0.458  0.502-  12 1.45  13 1.45   4 1.45
  77  0.167  0.583  0.502-  13 1.45   5 1.45  14 1.45
  78  0.167  0.708  0.502-  14 1.45   6 1.45  15 1.45
  79  0.167  0.833  0.502-  16 1.45  15 1.45   7 1.45
  80  0.167  0.958  0.502-   9 1.45   8 1.45  16 1.45
  81  0.292  0.083  0.502-  18 1.45   9 1.45  17 1.45
  82  0.292  0.208  0.502-  19 1.45  10 1.45  18 1.45
  83  0.292  0.333  0.502-  11 1.45  20 1.45  19 1.45
  84  0.292  0.458  0.502-  20 1.45  12 1.45  21 1.45
  85  0.292  0.583  0.502-  21 1.45  13 1.45  22 1.45
  86  0.292  0.708  0.502-  22 1.45  14 1.45  23 1.45
  87  0.292  0.833  0.502-  23 1.45  24 1.45  15 1.45
  88  0.292  0.958  0.502-  17 1.45  16 1.45  24 1.45
  89  0.417  0.083  0.502-  26 1.45  17 1.45  25 1.45
  90  0.417  0.208  0.502-  18 1.45  27 1.45  26 1.45
  91  0.417  0.333  0.502-  19 1.45  28 1.45  27 1.45
  92  0.417  0.458  0.502-  20 1.45  28 1.45  29 1.45
  93  0.417  0.583  0.502-  21 1.45  29 1.45  30 1.45
  94  0.417  0.708  0.502-  22 1.45  30 1.45  31 1.45
  95  0.417  0.833  0.502-  31 1.45  23 1.45  32 1.45
  96  0.417  0.958  0.502-  25 1.45  24 1.45  32 1.45
  97  0.542  0.083  0.502-  34 1.45  25 1.45  33 1.45
  98  0.542  0.208  0.502-  26 1.45  35 1.45  34 1.45
  99  0.542  0.333  0.502-  27 1.45  36 1.45  35 1.45
 100  0.542  0.458  0.502-  28 1.45  36 1.45  37 1.45
 101  0.542  0.583  0.502-  29 1.45  37 1.45  38 1.45
 102  0.542  0.708  0.502-  30 1.45  38 1.45  39 1.45
 103  0.542  0.833  0.502-  39 1.45  31 1.45  40 1.45
 104  0.542  0.958  0.502-  32 1.45  33 1.45  40 1.45
 105  0.667  0.083  0.502-  41 1.45  42 1.45  33 1.45
 106  0.667  0.208  0.502-  42 1.45  43 1.45  34 1.45
 107  0.667  0.333  0.502-  35 1.45  43 1.45  44 1.45
 108  0.667  0.458  0.502-  36 1.45  44 1.45  45 1.45
 109  0.667  0.583  0.502-  37 1.45  45 1.45  46 1.45
 110  0.667  0.708  0.502-  38 1.45  46 1.45  47 1.45
 111  0.667  0.833  0.502-  39 1.45  48 1.45  47 1.45
 112  0.667  0.958  0.502-  40 1.45  48 1.45  41 1.45
 113  0.792  0.083  0.502-  49 1.45  50 1.45  41 1.45
 114  0.792  0.208  0.502-  50 1.45  51 1.45  42 1.45
 115  0.792  0.333  0.502-  51 1.45  52 1.45  43 1.45
 116  0.792  0.458  0.502-  52 1.45  53 1.45  44 1.45
 117  0.792  0.583  0.502-  53 1.45  54 1.45  45 1.45
 118  0.792  0.708  0.502-  54 1.45  55 1.45  46 1.45
 119  0.792  0.833  0.502-  55 1.45  56 1.45  47 1.45
 120  0.792  0.958  0.502-  56 1.45  49 1.45  48 1.45
 121  0.917  0.083  0.502-  57 1.45  58 1.45  49 1.45
 122  0.917  0.208  0.502-  58 1.45  59 1.45  50 1.45
 123  0.917  0.333  0.502-  59 1.45  60 1.45  51 1.45
 124  0.917  0.458  0.502-  60 1.45  61 1.45  52 1.45
 125  0.917  0.583  0.502-  61 1.45  62 1.45  53 1.45
 126  0.917  0.708  0.502-  62 1.45  63 1.45  54 1.45
 127  0.917  0.833  0.502-  64 1.45  63 1.45  55 1.45
 128  0.917  0.958  0.502-  57 1.45  64 1.45  56 1.45
 129  0.283  0.225  0.664- 132 1.34 134 1.34 133 1.35 130 1.51
 130  0.270  0.204  0.623- 136 1.33 135 1.33 129 1.51
 131  0.237  0.388  0.611- 137 1.16 138 1.16
 132  0.350  0.290  0.669- 129 1.34
 133  0.284  0.170  0.686- 129 1.35
 134  0.226  0.237  0.677- 129 1.34
 135  0.327  0.197  0.607- 130 1.33
 136  0.202  0.144  0.615- 130 1.33
 137  0.303  0.429  0.610- 131 1.16
 138  0.171  0.346  0.613- 131 1.16
 

IMPORTANT INFORMATION: All symmetrisations will be switched off!
NOSYMM: (Re-)initialisation of all symmetry stuff for point group C_1.

 
 
 KPOINTS: K-Point Grid                            

Automatic generation of k-mesh.
Space group operators:
 irot       det(A)        alpha          n_x          n_y          n_z        tau_x        tau_y        tau_z
    1     1.000000     0.000001     1.000000     0.000000     0.000000     0.000000     0.000000     0.000000
 
 Subroutine IBZKPT returns following result:
 ===========================================
 
 Found      6 irreducible k-points:
 
 Following reciprocal coordinates:
            Coordinates               Weight
  0.250000  0.250000  0.000000     16.000000
  0.500000 -0.250000  0.000000     16.000000
  0.250000  0.500000  0.000000     16.000000
 -0.250000  0.250000  0.000000     16.000000
 -0.000000  0.250000  0.000000     16.000000
  0.250000 -0.000000  0.000000     16.000000
 
 Following cartesian coordinates:
            Coordinates               Weight
  0.024879  0.000000  0.000000     16.000000
  0.012439 -0.021546  0.000000     16.000000
  0.037318  0.007182  0.000000     16.000000
  0.000000  0.014364  0.000000     16.000000
  0.012439  0.007182  0.000000     16.000000
  0.012439 -0.007182  0.000000     16.000000
 


--------------------------------------------------------------------------------------------------------




 Dimension of arrays:
   k-points           NKPTS =      6   k-points in BZ     NKDIM =      6   number of bands    NBANDS=    432
   number of dos      NEDOS =   1200   number of ions     NIONS =    138
   non local maximal  LDIM  =      4   non local SUM 2l+1 LMDIM =      8
   total plane-waves  NPLWV = ******
   max r-space proj   IRMAX =   6620   max aug-charges    IRDMAX=   9003
   dimension x,y,z NGX =   160 NGY =  160 NGZ =  270
   dimension x,y,z NGXF=   320 NGYF=  320 NGZF=  540
   support grid    NGXF=   320 NGYF=  320 NGZF=  540
   ions per type =              64  64   3   5   2
   NGX,Y,Z   is equivalent  to a cutoff of  13.24, 13.24, 12.82 a.u.
   NGXF,Y,Z  is equivalent  to a cutoff of  26.47, 26.47, 25.65 a.u.

 SYSTEM =  hBN                                     
 POSCAR =  B N C F O                               

 Startparameter for this run:
   NWRITE =      2    write-flag & timer
   PREC   = accura    normal or accurate (medium, high low for compatibility)
   ISTART =      1    job   : 0-new  1-cont  2-samecut
   ICHARG =      0    charge: 1-file 2-atom 10-const
   ISPIN  =      2    spin polarized calculation?
   LNONCOLLINEAR =      F non collinear calculations
   LSORBIT =      F    spin-orbit coupling
   INIWAV =      1    electr: 0-lowe 1-rand  2-diag
   LASPH  =      T    aspherical Exc in radial PAW
   METAGGA=      F    non-selfconsistent MetaGGA calc.

 Electronic Relaxation 1
   ENCUT  =  550.0 eV  40.42 Ry    6.36 a.u.  38.43 38.43 66.93*2*pi/ulx,y,z
   ENINI  =  550.0     initial cutoff
   ENAUG  =  644.9 eV  augmentation charge cutoff
   NELM   =    100;   NELMIN=  2; NELMDL=  0     # of ELM steps 
   EDIFF  = 0.1E-04   stopping-criterion for ELM
   LREAL  =      T    real-space projection
   NLSPLINE    = F    spline interpolate recip. space projectors
   LCOMPAT=      F    compatible to vasp.4.4
   GGA_COMPAT  = T    GGA compatible to vasp.4.4-vasp.4.6
   LMAXPAW     = -100 max onsite density
   LMAXMIX     =    2 max onsite mixed and CHGCAR
   VOSKOWN=      0    Vosko Wilk Nusair interpolation
   ROPT   =   -0.00025  -0.00025  -0.00025  -0.00025
   ROPT   =   -0.00025
 Ionic relaxation
   EDIFFG = -.2E-01   stopping-criterion for IOM
   NSW    =      0    number of steps for IOM
   NBLOCK =      1;   KBLOCK =      1    inner block; outer block 
   IBRION =     -1    ionic relax: 0-MD 1-quasi-New 2-CG
   NFREE  =      1    steps in history (QN), initial steepest desc. (CG)
   ISIF   =      2    stress and relaxation
   IWAVPR =     10    prediction:  0-non 1-charg 2-wave 3-comb
   ISYM   =      0    0-nonsym 1-usesym 2-fastsym
   LCORR  =      T    Harris-Foulkes like correction to forces

   POTIM  = 0.5000    time-step for ionic-motion
   TEIN   =    0.0    initial temperature
   TEBEG  =    0.0;   TEEND  =   0.0 temperature during run
   SMASS  =  -3.00    Nose mass-parameter (am)
   estimated Nose-frequenzy (Omega)   =  0.10E-29 period in steps =****** mass=  -0.923E-26a.u.
   SCALEE = 1.0000    scale energy and forces
   NPACO  =    256;   APACO  = 16.0  distance and # of slots for P.C.
   PSTRESS=    0.0 pullay stress

  Mass of Ions in am
   POMASS =  10.81 14.00 12.01 19.00 16.00
  Ionic Valenz
   ZVAL   =   3.00  5.00  4.00  7.00  6.00
  Atomic Wigner-Seitz radii
   RWIGS  =  -1.00 -1.00 -1.00 -1.00 -1.00
  virtual crystal weights 
   VCA    =   1.00  1.00  1.00  1.00  1.00
   NELECT =     570.0000    total number of electrons
   NUPDOWN=      -1.0000    fix difference up-down

 DOS related values:
   EMIN   = -10.00;   EMAX   =  5.00  energy-range for DOS
   EFERMI =   0.00
   ISMEAR =     0;   SIGMA  =   0.05  broadening in eV -4-tet -1-fermi 0-gaus

 Electronic relaxation 2 (details)
   IALGO  =     68    algorithm
   LDIAG  =      T    sub-space diagonalisation (order eigenvalues)
   LSUBROT=      F    optimize rotation matrix (better conditioning)
   TURBO    =      0    0=normal 1=particle mesh
   IRESTART =      0    0=no restart 2=restart with 2 vectors
   NREBOOT  =      0    no. of reboots
   NMIN     =      0    reboot dimension
   EREF     =   0.00    reference energy to select bands
   IMIX   =      4    mixing-type and parameters
     AMIX     =   0.40;   BMIX     =  1.00
     AMIX_MAG =   1.60;   BMIX_MAG =  1.00
     AMIN     =   0.10
     WC   =   100.;   INIMIX=   1;  MIXPRE=   1;  MAXMIX= -45

 Intra band minimization:
   WEIMIN = 0.0000     energy-eigenvalue tresh-hold
   EBREAK =  0.58E-08  absolut break condition
   DEPER  =   0.30     relativ break condition  

   TIME   =   0.40     timestep for ELM

  volume/ion in A,a.u.               =      88.72       598.69
  Fermi-wavevector in a.u.,A,eV,Ry     =   0.588942  1.112939  4.719216  0.346853
  Thomas-Fermi vector in A             =   1.636402
 
 Write flags
   LWAVE        =      T    write WAVECAR
   LDOWNSAMPLE  =      F    k-point downsampling of WAVECAR
   LCHARG       =      T    write CHGCAR
   LVTOT        =      F    write LOCPOT, total local potential
   LVHAR        =      T    write LOCPOT, Hartree potential only
   LELF         =      F    write electronic localiz. function (ELF)
   LORBIT       =     11    0 simple, 1 ext, 2 COOP (PROOUT), +10 PAW based schemes


 Dipole corrections
   LMONO  =      F    monopole corrections only (constant potential shift)
   LDIPOL =      F    correct potential (dipole corrections)
   IDIPOL =      0    1-x, 2-y, 3-z, 4-all directions 
   EPSILON=  1.0000000 bulk dielectric constant

 Exchange correlation treatment:
   GGA     =    --    GGA type
   LEXCH   =     8    internal setting for exchange type
   VOSKOWN=      0    Vosko Wilk Nusair interpolation
   LHFCALC =     F    Hartree Fock is set to
   LHFONE  =     F    Hartree Fock one center treatment
   AEXX    =    0.0000 exact exchange contribution

 Linear response parameters
   LEPSILON=     F    determine dielectric tensor
   LRPA    =     F    only Hartree local field effects (RPA)
   LNABLA  =     F    use nabla operator in PAW spheres
   LVEL    =     F    velocity operator in full k-point grid
   LINTERFAST=   F  fast interpolation
   KINTER  =     0    interpolate to denser k-point grid
   CSHIFT  =0.1000    complex shift for real part using Kramers Kronig
   OMEGAMAX=  -1.0    maximum frequency
   DEG_THRESHOLD= 0.2000000E-02 threshold for treating states as degnerate
   RTIME   =   -0.100 relaxation time in fs
  (WPLASMAI=    0.000 imaginary part of plasma frequency in eV, 0.658/RTIME)
   DFIELD  = 0.0000000 0.0000000 0.0000000 field for delta impulse in time
 
 Orbital magnetization related:
   ORBITALMAG=     F  switch on orbital magnetization
   LCHIMAG   =     F  perturbation theory with respect to B field
   DQ        =  0.001000  dq finite difference perturbation B field
   LLRAUG    =     F  two centre corrections for induced B field

 Solvation model:
   LSOL    =     T         switch on solvation model
   EB_K    = 78.400000     relative permittivity of the bulk solvent
   SIGMA_K =  0.600000     width of the dielectric cavity
   NC_K    =  0.002500     cutoff charge density
   TAU     =  0.000000     cavity surface tension
   LAMBDA_D_K    =  3.040000     Debye length in Angstroms
   LRHOB     =     F     write boundcharge  density
   LRHOION     =     F     write ioniccharge density



--------------------------------------------------------------------------------------------------------


 Static calculation
 charge density and potential will be updated during run
 spin polarized calculation
 RMM-DIIS sequential band-by-band and
  variant of blocked Davidson during initial phase
 perform sub-space diagonalisation
    before iterative eigenvector-optimisation
 modified Broyden-mixing scheme, WC =      100.0
 initial mixing is a Kerker type mixing with AMIX =  0.4000 and BMIX =      1.0000
 Hartree-type preconditioning will be used
 using additional bands          147
 real space projection scheme for non local part
 use partial core corrections
 calculate Harris-corrections to forces 
   (improved forces if not selfconsistent)
 use gradient corrections 
 use of overlap-Matrix (Vanderbilt PP)
 Gauss-broadening in eV      SIGMA  =   0.05


--------------------------------------------------------------------------------------------------------


  energy-cutoff  :      550.00
  volume of cell :    12242.83
      direct lattice vectors                 reciprocal lattice vectors
    10.048700000-17.405000000  0.000000000     0.049757680 -0.028727377  0.000000000
    10.048700000 17.405000000  0.000000000     0.049757680  0.028727377  0.000000000
     0.000000000  0.000000000 35.000000000     0.000000000  0.000000000  0.028571429

  length of vectors
    20.097522153 20.097522153 35.000000000     0.057455104  0.057455104  0.028571429


 
 old parameters found on file WAVECAR:
  energy-cutoff  :      550.00
  volume of cell :    12242.83
      direct lattice vectors                 reciprocal lattice vectors
    10.048700000-17.405000000  0.000000000     0.049757680 -0.028727377  0.000000000
    10.048700000 17.405000000  0.000000000     0.049757680  0.028727377  0.000000000
     0.000000000  0.000000000 35.000000000     0.000000000  0.000000000  0.028571429

  length of vectors

 
 k-points in units of 2pi/SCALE and weight: K-Point Grid                            
   0.02487884  0.00000000  0.00000000       0.167
   0.01243942 -0.02154553  0.00000000       0.167
   0.03731826  0.00718184  0.00000000       0.167
   0.00000000  0.01436369  0.00000000       0.167
   0.01243942  0.00718184  0.00000000       0.167
   0.01243942 -0.00718184  0.00000000       0.167
 
 k-points in reciprocal lattice and weights: K-Point Grid                            
   0.25000000  0.25000000  0.00000000       0.167
   0.50000000 -0.25000000  0.00000000       0.167
   0.25000000  0.50000000  0.00000000       0.167
  -0.25000000  0.25000000  0.00000000       0.167
  -0.00000000  0.25000000  0.00000000       0.167
   0.25000000 -0.00000000  0.00000000       0.167
 
 position of ions in fractional coordinates (direct lattice) 
   0.08329137  0.04167863  0.50169759
   0.08328247  0.16667614  0.50171014
   0.08328711  0.29168121  0.50168889
   0.08329606  0.41668392  0.50165003
   0.08330594  0.54168610  0.50164050
   0.08330818  0.66668521  0.50164062
   0.08330726  0.79168446  0.50164224
   0.08330199  0.91668311  0.50166141
   0.20829908  0.04167943  0.50171709
   0.20829149  0.16667327  0.50173439
   0.20828873  0.29167603  0.50169159
   0.20829987  0.41669596  0.50159575
   0.20830959  0.54169509  0.50163671
   0.20830819  0.66668985  0.50164378
   0.20830755  0.79168686  0.50164284
   0.20830495  0.91668475  0.50166344
   0.33330565  0.04168319  0.50170002
   0.33330308  0.16668110  0.50175418
   0.33331002  0.29168504  0.50176071
   0.33331992  0.41670568  0.50168692
   0.33331204  0.54170053  0.50166437
   0.33331016  0.66669425  0.50165467
   0.33330853  0.79168902  0.50164345
   0.33330701  0.91668635  0.50164843
   0.45830621  0.04168403  0.50165273
   0.45830326  0.16668142  0.50169975
   0.45830415  0.29168325  0.50172616
   0.45830761  0.41669025  0.50170537
   0.45830841  0.54169494  0.50167762
   0.45830825  0.66669212  0.50166247
   0.45830863  0.79168922  0.50164613
   0.45830960  0.91668651  0.50163869
   0.58330725  0.04168413  0.50163628
   0.58330363  0.16668289  0.50164595
   0.58330236  0.29168240  0.50166392
   0.58330282  0.41668357  0.50166443
   0.58330415  0.54168610  0.50165380
   0.58330595  0.66668650  0.50164958
   0.58330672  0.79168553  0.50164381
   0.58330933  0.91668498  0.50163832
   0.70830504  0.04168217  0.50163872
   0.70830366  0.16668221  0.50163966
   0.70830329  0.29168180  0.50164007
   0.70830366  0.41668141  0.50164029
   0.70830435  0.54168152  0.50163822
   0.70830544  0.66668209  0.50163856
   0.70830667  0.79168230  0.50163942
   0.70830596  0.91668238  0.50163805
   0.83330188  0.04168144  0.50164612
   0.83329925  0.16668179  0.50165199
   0.83330145  0.29168230  0.50164867
   0.83330420  0.41668247  0.50164088
   0.83330579  0.54168214  0.50163794
   0.83330641  0.66668188  0.50163769
   0.83330542  0.79168135  0.50163780
   0.83330312  0.91668073  0.50164034
   0.95829399  0.04167980  0.50166413
   0.95829255  0.16668158  0.50167800
   0.95829514  0.29168161  0.50167190
   0.95830146  0.41668349  0.50165005
   0.95830704  0.54168377  0.50164038
   0.95830702  0.66668326  0.50163917
   0.95830594  0.79168236  0.50163958
   0.95830073  0.91668079  0.50164825
   0.04163216  0.08335121  0.50167871
   0.04163420  0.20835409  0.50168876
   0.04163655  0.33335155  0.50166627
   0.04163891  0.45835072  0.50163395
   0.04164191  0.58335016  0.50162699
   0.04164181  0.70835095  0.50162681
   0.04164079  0.83335134  0.50162983
   0.04163639  0.95835114  0.50165237
   0.16663266  0.08335102  0.50171081
   0.16663060  0.20835005  0.50172202
   0.16664148  0.33335738  0.50164140
   0.16663901  0.45835322  0.50160771
   0.16664182  0.58335325  0.50162842
   0.16664177  0.70835242  0.50163004
   0.16664122  0.83335276  0.50163242
   0.16663738  0.95835224  0.50166574
   0.29163492  0.08335437  0.50172497
   0.29162753  0.20835123  0.50175507
   0.29163061  0.33335568  0.50174250
   0.29163237  0.45834903  0.50163036
   0.29164069  0.58335382  0.50164331
   0.29164136  0.70835352  0.50163541
   0.29164110  0.83335328  0.50162986
   0.29163899  0.95835301  0.50165406
   0.41663664  0.08335104  0.50167049
   0.41662993  0.20834939  0.50172460
   0.41663097  0.33334995  0.50173503
   0.41663534  0.45835374  0.50167644
   0.41663628  0.58335307  0.50166225
   0.41664043  0.70835410  0.50164347
   0.41664152  0.83335286  0.50162884
   0.41664041  0.95835167  0.50162921
   0.54163914  0.08334999  0.50162769
   0.54163452  0.20834907  0.50165398
   0.54163198  0.33334841  0.50166983
   0.54163348  0.45834925  0.50165848
   0.54163630  0.58335105  0.50164552
   0.54163913  0.70835132  0.50163915
   0.54164098  0.83335131  0.50162929
   0.54164205  0.95835091  0.50162393
   0.66664024  0.08334927  0.50162417
   0.66663730  0.20834852  0.50162499
   0.66663559  0.33334732  0.50163110
   0.66663533  0.45834681  0.50162922
   0.66663656  0.58334727  0.50162646
   0.66663899  0.70834832  0.50162794
   0.66664012  0.83334890  0.50162672
   0.66664114  0.95834930  0.50162444
   0.79163826  0.08334915  0.50163123
   0.79163728  0.20834970  0.50163416
   0.79163735  0.33334906  0.50162825
   0.79163825  0.45834802  0.50162475
   0.79163881  0.58334746  0.50162444
   0.79163971  0.70834767  0.50162443
   0.79163972  0.83334771  0.50162572
   0.79163964  0.95834865  0.50162666
   0.91663538  0.08335095  0.50164649
   0.91663477  0.20835086  0.50165405
   0.91663665  0.33335048  0.50164540
   0.91663938  0.45834984  0.50163030
   0.91664051  0.58334922  0.50162625
   0.91664085  0.70834892  0.50162544
   0.91663980  0.83334877  0.50162594
   0.91663745  0.95834913  0.50163349
   0.28289403  0.22542996  0.66436237
   0.27018250  0.20362737  0.62269387
   0.23708184  0.38766670  0.61142000
   0.35048716  0.29024336  0.66900695
   0.28386783  0.17037362  0.68622626
   0.22643627  0.23656314  0.67739047
   0.32666904  0.19747408  0.60666030
   0.20184302  0.14366054  0.61489536
   0.30311970  0.42917252  0.60964382
   0.17106496  0.34590490  0.61306158
 
 position of ions in cartesian coordinates  (Angst):
   1.25578607 -0.72426968 17.55941566
   2.51175908  1.45146679 17.55985479
   3.76794418  3.62709925 17.55911108
   5.02414889  5.80261570 17.55775095
   6.28035752  7.97810681 17.55741737
   7.53645857 10.15367712 17.55742168
   8.79252931 12.32930525 17.55747857
  10.04855022 14.50499833 17.55814919
   2.51195897 -2.90001500 17.56009831
   3.76790838 -0.72436499 17.56070375
   5.02399591  1.45135600 17.55920578
   6.28039565  3.62713395 17.55585108
   7.53657209  5.80257468 17.55728492
   8.79259285  7.97813283 17.55753228
  10.04864378 10.15371697 17.55749937
  11.30468398 12.32935037 17.55822033
   3.76815035 -5.07568906 17.55950075
   5.02419105 -2.90005556 17.56139634
   6.28038788 -0.72448279 17.56162481
   7.53678233  1.45132916 17.55904215
   8.79273881  3.62700180 17.55825298
  10.04874433  5.80255010 17.55791349
  11.30476284  7.97811235 17.55752090
  12.56080828 10.15371752 17.55769501
   5.02425192 -7.25130890 17.55784564
   6.28028348 -5.07567816 17.55949128
   7.53639839 -2.90003680 17.56041563
   8.79259094 -0.72435021 17.55968804
  10.04873366  1.45134240 17.55871657
  11.30479122  3.62692134 17.55818659
  12.56085342  5.80248925 17.55761460
  13.81692347  7.97805006 17.55735428
   6.28035083 -9.42695033 17.55726976
   7.53638955 -7.25128398 17.55760840
   8.79245942 -5.07564539 17.55823732
  10.04856329 -2.90000800 17.55825498
  11.30468959 -0.72436222 17.55788302
  12.56079911  1.45123853 17.55773534
  13.81688466  3.62683322 17.55753328
  15.07299275  5.80240322 17.55734132
   7.53639651-11.60257116 17.55735508
   8.79247051 -9.42692139 17.55738811
  10.04855015 -7.25129692 17.55740231
  11.30463752 -5.07568527 17.55741006
  12.56073301 -2.90007033 17.55733772
  13.81683715 -0.72445441 17.55734953
  15.07293909  1.45115287 17.55737960
  16.32902037  3.62679168 17.55733168
   8.79244490-13.77815375 17.55761415
  10.04850949-11.60247681 17.55781967
  11.30462425 -9.42688124 17.55770353
  12.56074104 -7.25130115 17.55743095
  13.81684123 -5.07570961 17.55732784
  15.07293234 -2.90010008 17.55731930
  16.32900463 -0.72446697 17.55732283
  17.58506267  1.45118739 17.55741180
  10.04843669-15.95366992 17.55824463
  11.30452750-13.77798891 17.55873001
  12.56064138-11.60240847 17.55851666
  13.81681128 -9.42686073 17.55775178
  15.07295770 -7.25132801 17.55741343
  16.32903983 -5.07571162 17.55737109
  17.58510746 -2.90008332 17.55738543
  18.84112680 -0.72439502 17.55768870
   1.25592040  0.72612009 17.55875486
   2.51205734  2.90175966 17.55910655
   3.76814292  5.07729974 17.55831945
   5.02424578  7.25286906 17.55718810
   6.28035781  9.42843214 17.55694468
   7.53645218 11.60407255 17.55693838
   8.79253340 13.77972212 17.55704416
  10.04857469 15.95542034 17.55783287
   2.51201093 -1.44951692 17.55987845
   3.76806813  0.72612702 17.56027067
   5.02433846  2.90169023 17.55744910
   6.28035948  5.07728589 17.55626992
   7.53647551  7.25286248 17.55699455
   8.79255414  9.42847384 17.55705140
  10.04863953 11.60411439 17.55713467
  11.30468312 13.77979717 17.55830101
   3.76815494 -3.62512300 17.56037394
   5.02413657 -1.44942406 17.56142756
   6.28029977  0.72622487 17.56098756
   7.53633808  2.90170342 17.55706265
   8.79255729  5.07726710 17.55751585
  10.04864857  7.25287507 17.55723940
  11.30473109  9.42850051 17.55704519
  12.56079456 11.60415751 17.55789212
   5.02422624 -5.80083581 17.55846703
   6.28022976 -3.62512284 17.56036100
   7.53633326 -1.44950630 17.56072591
   8.79250279  0.72610888 17.55867546
  10.04859299  2.90170569 17.55817866
  11.30473255  5.07727639 17.55752144
  12.56081853  7.25286086 17.55700940
  13.81688294  9.42848460 17.55702244
   6.28032835 -7.97652265 17.55696901
   7.53636013 -5.80083320 17.55788923
   8.79241540 -3.62517545 17.55844411
  10.04852641 -1.44956210 17.55804676
  11.30466039  0.72604522 17.55759327
  12.56077906  2.90162570 17.55737042
  13.81688496  5.07721825 17.55702531
  15.07297930  7.25281773 17.55683749
   7.53641963-10.15217924 17.55684586
   8.79247002 -7.97651618 17.55687457
  10.04852822 -5.80088233 17.55708848
  11.30460800 -3.62526175 17.55702271
  12.56071243 -1.44965006 17.55692627
  13.81683492  0.72595087 17.55697780
  15.07293958  2.90156630 17.55693521
  16.32904147  5.07718049 17.55685524
   8.79248595-12.32777189 17.55709290
  10.04856913-10.15212029 17.55719558
  11.30465097 -7.97650771 17.55698873
  12.56073705 -5.80091651 17.55686609
  13.81682451 -3.62531096 17.55685546
  15.07292322 -1.44969787 17.55685507
  16.32901122  0.72592766 17.55690033
  17.58510725  2.90157035 17.55693326
  10.04856261-14.50331545 17.55762711
  11.30464309-12.32768134 17.55789186
  12.56074567-10.15209588 17.55758903
  13.81685409 -7.97652944 17.55706055
  15.07294681 -5.80093484 17.55691883
  16.32903474 -3.62532113 17.55689044
  17.58511014 -1.44968040 17.55690783
  18.84117766  0.72599177 17.55717210
   5.10799536 -1.00016215 23.25268300
   4.76117322 -1.15839195 21.79428534
   6.27791066  2.62092954 21.39970005
   6.43850876 -1.04854333 23.41524337
   4.56453605 -1.97536680 24.01791919
   4.65254217  0.17625820 23.70866646
   5.26695702 -2.24863828 21.23311048
   3.47186162 -1.01266622 21.52133775
   7.35858487  2.19394930 21.33753365
   5.19487502  3.04308929 21.45715547
 


--------------------------------------------------------------------------------------------------------


 k-point  1 :   0.2500 0.2500 0.0000  plane waves:  358590
 k-point  2 :   0.5000-0.2500 0.0000  plane waves:  358584
 k-point  3 :   0.2500 0.5000 0.0000  plane waves:  358584
 k-point  4 :  -0.2500 0.2500 0.0000  plane waves:  358603
 k-point  5 :  -0.0000 0.2500 0.0000  plane waves:  358599
 k-point  6 :   0.2500-0.0000 0.0000  plane waves:  358599

 maximum and minimum number of plane-waves per node :    358603   358584

 maximum number of plane-waves:    358603
 maximum index in each direction: 
   IXMAX=   38   IYMAX=   38   IZMAX=   66
   IXMIN=  -38   IYMIN=  -38   IZMIN=  -66


 serial   3D FFT for wavefunctions
 parallel 3D FFT for charge:
    minimum data exchange during FFTs selected (reduces bandwidth)


 total amount of memory used by VASP MPI-rank0  2733402. kBytes
=======================================================================

   base      :      30000. kBytes
   nonlr-proj:      63775. kBytes
   fftplans  :     108234. kBytes
   grid      :    1287382. kBytes
   one-center:        847. kBytes
   wavefun   :    1243164. kBytes
 
     INWAV:  cpu time  135.7454: real time  154.4632
 Broyden mixing: mesh for mixing (old mesh)
   NGX = 77   NGY = 77   NGZ =133
  (NGX  =320   NGY  =320   NGZ  =540)
  gives a total of 788557 points

 charge density for first step will be calculated from the start-wavefunctions


--------------------------------------------------------------------------------------------------------


 Maximum index for non-local projection operator         6394
 Maximum index for augmentation-charges          435 (set IRDMAX)


--------------------------------------------------------------------------------------------------------


 initial charge from wavefunction
 First call to EWALD:  gamma=   0.077
 Maximum number of real-space cells 3x 3x 2
 Maximum number of reciprocal cells 2x 2x 4

    FEWALD:  cpu time    0.0075: real time    0.0066


--------------------------------------- Iteration      1(   1)  ---------------------------------------


    POTLOK:  cpu time  128.7195: real time  129.6125
    SETDIJ:  cpu time    0.9282: real time    0.7269
     EDDAV:  cpu time  561.9353: real time  426.4823
       DOS:  cpu time    0.0067: real time    0.0035
    CHARGE:  cpu time   73.6867: real time   71.3230
    MIXING:  cpu time    0.2434: real time    0.2439
    --------------------------------------------
      LOOP:  cpu time  765.5199: real time  628.3922

 eigenvalue-minimisations  : 10656
 total energy-change (2. order) :-0.1322707E+04  (-0.6708388E-02)
 number of electron     569.9999967 magnetization       0.9999665
 augmentation part       22.4512856 magnetization       0.1190087

 Broyden mixing:
  rms(total) = 0.15836E-01    rms(broyden)= 0.15808E-01
  rms(prec ) = 0.15957E-01
  weight for this iteration     100.00

 Free energy of the ion-electron system (eV)
  ---------------------------------------------------
  alpha Z        PSCENC =       143.65704873
  Ewald energy   TEWEN  =    182068.41129165
  -Hartree energ DENC   =   -203715.32065779
  -exchange      EXHF   =         0.00000000
  -V(xc)+E(xc)   XCENC  =      2556.79973316
  PAW double counting   =     67836.51671508   -68102.19058590
  entropy T*S    EENTRO =        -0.01906983
  eigenvalues    EBANDS =     -8105.29359398
  atomic energy  EATOM  =     26089.46230379
  Solvation  Ediel_sol  =       -94.73053276
  ---------------------------------------------------
  free energy    TOTEN  =     -1322.70734785 eV

  energy without entropy =    -1322.68827802  energy(sigma->0) =    -1322.69781294


--------------------------------------------------------------------------------------------------------




--------------------------------------- Iteration      1(   2)  ---------------------------------------


    POTLOK:  cpu time   97.5643: real time   97.7763
    SETDIJ:  cpu time    0.9329: real time    0.7314
    EDDIAG:  cpu time  110.0499: real time   91.5409
  RMM-DIIS:  cpu time  626.1909: real time  514.2678
    ORTHCH:  cpu time    5.9503: real time    2.9866
       DOS:  cpu time    0.0872: real time    0.0437
    CHARGE:  cpu time   73.4385: real time   71.0824
    MIXING:  cpu time    0.2142: real time    0.2147
    --------------------------------------------
      LOOP:  cpu time  914.4283: real time  778.6438

 eigenvalue-minimisations  : 10701
 total energy-change (2. order) : 0.1274589E-03  (-0.8850546E-04)
 number of electron     569.9999967 magnetization       0.9999675
 augmentation part       22.4488158 magnetization       0.1189909

 Broyden mixing:
  rms(total) = 0.95733E-02    rms(broyden)= 0.95694E-02
  rms(prec ) = 0.96436E-02
  weight for this iteration     100.00

 eigenvalues of (default mixing * dielectric matrix)
  average eigenvalue GAMMA=   2.1679
  2.1679

 Free energy of the ion-electron system (eV)
  ---------------------------------------------------
  alpha Z        PSCENC =       143.65704873
  Ewald energy   TEWEN  =    182068.41129165
  -Hartree energ DENC   =   -203715.29119136
  -exchange      EXHF   =         0.00000000
  -V(xc)+E(xc)   XCENC  =      2556.84934485
  PAW double counting   =     67869.16697131   -68134.81805417
  entropy T*S    EENTRO =        -0.01905774
  eigenvalues    EBANDS =     -8105.46223416
  atomic energy  EATOM  =     26089.46230379
  Solvation  Ediel_sol  =       -94.66364329
  ---------------------------------------------------
  free energy    TOTEN  =     -1322.70722039 eV

  energy without entropy =    -1322.68816265  energy(sigma->0) =    -1322.69769152


--------------------------------------------------------------------------------------------------------




--------------------------------------- Iteration      1(   3)  ---------------------------------------


    POTLOK:  cpu time   99.3449: real time   99.5609
    SETDIJ:  cpu time    0.9294: real time    0.7298
    EDDIAG:  cpu time  110.0022: real time   91.4669
  RMM-DIIS:  cpu time  625.9258: real time  514.2735
    ORTHCH:  cpu time    5.9165: real time    2.9712
       DOS:  cpu time    0.1389: real time    0.0696
    CHARGE:  cpu time   73.4904: real time   71.1430
    MIXING:  cpu time    0.2094: real time    0.2099
    --------------------------------------------
      LOOP:  cpu time  915.9576: real time  780.4248

 eigenvalue-minimisations  : 10684
 total energy-change (2. order) :-0.3047840E-03  (-0.3915553E-04)
 number of electron     569.9999967 magnetization       0.9999685
 augmentation part       22.4472963 magnetization       0.1189920

 Broyden mixing:
  rms(total) = 0.21855E-02    rms(broyden)= 0.21833E-02
  rms(prec ) = 0.22227E-02
  weight for this iteration     100.00

 eigenvalues of (default mixing * dielectric matrix)
  average eigenvalue GAMMA=   1.6558
  0.9480  2.3636

 Free energy of the ion-electron system (eV)
  ---------------------------------------------------
  alpha Z        PSCENC =       143.65704873
  Ewald energy   TEWEN  =    182068.41129165
  -Hartree energ DENC   =   -203714.84869599
  -exchange      EXHF   =         0.00000000
  -V(xc)+E(xc)   XCENC  =      2556.81308007
  PAW double counting   =     67912.87407437   -68178.49307262
  entropy T*S    EENTRO =        -0.01904655
  eigenvalues    EBANDS =     -8106.01411974
  atomic energy  EATOM  =     26089.46230379
  Solvation  Ediel_sol  =       -94.55038888
  ---------------------------------------------------
  free energy    TOTEN  =     -1322.70752517 eV

  energy without entropy =    -1322.68847863  energy(sigma->0) =    -1322.69800190


--------------------------------------------------------------------------------------------------------




--------------------------------------- Iteration      1(   4)  ---------------------------------------


    POTLOK:  cpu time   92.7310: real time   92.9346
    SETDIJ:  cpu time    0.9289: real time    0.7280
    EDDIAG:  cpu time  110.0486: real time   91.5500
  RMM-DIIS:  cpu time  553.9255: real time  455.3799
    ORTHCH:  cpu time    5.9584: real time    2.9901
       DOS:  cpu time    0.0253: real time    0.0127
    CHARGE:  cpu time   73.5945: real time   71.1554
    MIXING:  cpu time    0.2117: real time    0.2121
    --------------------------------------------
      LOOP:  cpu time  837.4239: real time  714.9628

 eigenvalue-minimisations  :  8647
 total energy-change (2. order) : 0.1887268E-04  (-0.7171571E-05)
 number of electron     569.9999967 magnetization       0.9999695
 augmentation part       22.4478758 magnetization       0.1189857

 Broyden mixing:
  rms(total) = 0.97223E-03    rms(broyden)= 0.97204E-03
  rms(prec ) = 0.98592E-03
  weight for this iteration     100.00

 eigenvalues of (default mixing * dielectric matrix)
  average eigenvalue GAMMA=   1.5712
  2.4735  1.5686  0.6713

 Free energy of the ion-electron system (eV)
  ---------------------------------------------------
  alpha Z        PSCENC =       143.65704873
  Ewald energy   TEWEN  =    182068.41129165
  -Hartree energ DENC   =   -203714.56672878
  -exchange      EXHF   =         0.00000000
  -V(xc)+E(xc)   XCENC  =      2556.78871819
  PAW double counting   =     67916.21491141   -68181.83176413
  entropy T*S    EENTRO =        -0.01904930
  eigenvalues    EBANDS =     -8106.31138102
  atomic energy  EATOM  =     26089.46230379
  Solvation  Ediel_sol  =       -94.51285684
  ---------------------------------------------------
  free energy    TOTEN  =     -1322.70750630 eV

  energy without entropy =    -1322.68845700  energy(sigma->0) =    -1322.69798165


--------------------------------------------------------------------------------------------------------




--------------------------------------- Iteration      1(   5)  ---------------------------------------


    POTLOK:  cpu time   90.7713: real time   90.9725
    SETDIJ:  cpu time    0.9309: real time    0.7307
    EDDIAG:  cpu time  110.0688: real time   91.5146
  RMM-DIIS:  cpu time  537.5153: real time  445.1268
    ORTHCH:  cpu time    5.9346: real time    2.9784
       DOS:  cpu time    0.1209: real time    0.0610
    CHARGE:  cpu time   73.1890: real time   71.0109
    MIXING:  cpu time    0.2142: real time    0.2147
    --------------------------------------------
      LOOP:  cpu time  818.7451: real time  702.6096

 eigenvalue-minimisations  :  8427
 total energy-change (2. order) :-0.1090801E-04  (-0.3265227E-05)
 number of electron     569.9999967 magnetization       0.9999702
 augmentation part       22.4481859 magnetization       0.1189866

 Broyden mixing:
  rms(total) = 0.39275E-03    rms(broyden)= 0.39261E-03
  rms(prec ) = 0.40683E-03
  weight for this iteration     100.00

 eigenvalues of (default mixing * dielectric matrix)
  average eigenvalue GAMMA=   1.4003
  2.5942  1.4923  0.8812  0.6333

 Free energy of the ion-electron system (eV)
  ---------------------------------------------------
  alpha Z        PSCENC =       143.65704873
  Ewald energy   TEWEN  =    182068.41129165
  -Hartree energ DENC   =   -203714.47225364
  -exchange      EXHF   =         0.00000000
  -V(xc)+E(xc)   XCENC  =      2556.78756120
  PAW double counting   =     67917.52928546   -68183.14584085
  entropy T*S    EENTRO =        -0.01904992
  eigenvalues    EBANDS =     -8106.41756648
  atomic energy  EATOM  =     26089.46230379
  Solvation  Ediel_sol  =       -94.50029715
  ---------------------------------------------------
  free energy    TOTEN  =     -1322.70751721 eV

  energy without entropy =    -1322.68846729  energy(sigma->0) =    -1322.69799225


--------------------------------------------------------------------------------------------------------




--------------------------------------- Iteration      1(   6)  ---------------------------------------


    POTLOK:  cpu time   87.5953: real time   87.7891
    SETDIJ:  cpu time    0.9307: real time    0.7292
    EDDIAG:  cpu time  109.8329: real time   91.4394
  RMM-DIIS:  cpu time  514.5013: real time  425.1341
    ORTHCH:  cpu time    5.9726: real time    3.0014
       DOS:  cpu time    0.0062: real time    0.0031
    --------------------------------------------
      LOOP:  cpu time  718.8390: real time  608.0962

 eigenvalue-minimisations  :  7772
 total energy-change (2. order) :-0.8005787E-05  (-0.7789425E-06)
 number of electron     569.9999967 magnetization       0.9999702
 augmentation part       22.4481859 magnetization       0.1189866

 Free energy of the ion-electron system (eV)
  ---------------------------------------------------
  alpha Z        PSCENC =       143.65704873
  Ewald energy   TEWEN  =    182068.41129165
  -Hartree energ DENC   =   -203714.48806043
  -exchange      EXHF   =         0.00000000
  -V(xc)+E(xc)   XCENC  =      2556.79100661
  PAW double counting   =     67918.02948931   -68183.64607659
  entropy T*S    EENTRO =        -0.01904931
  eigenvalues    EBANDS =     -8106.40451936
  atomic energy  EATOM  =     26089.46230379
  Solvation  Ediel_sol  =       -94.50095962
  ---------------------------------------------------
  free energy    TOTEN  =     -1322.70752522 eV

  energy without entropy =    -1322.68847591  energy(sigma->0) =    -1322.69800056


--------------------------------------------------------------------------------------------------------




 average (electrostatic) potential at core
  the test charge radii are     0.7672  0.7089  0.6991  0.7167  0.7215
  (the norm of the test charge is              1.0000)
       1 -38.7397       2 -38.7427       3 -38.7437       4 -38.7401       5 -38.7368
       6 -38.7359       7 -38.7359       8 -38.7368       9 -38.7406      10 -38.7468
      11 -38.7516      12 -38.7484      13 -38.7401      14 -38.7366      15 -38.7360
      16 -38.7368      17 -38.7385      18 -38.7435      19 -38.7490      20 -38.7485
      21 -38.7426      22 -38.7374      23 -38.7360      24 -38.7362      25 -38.7362
      26 -38.7383      27 -38.7406      28 -38.7412      29 -38.7393      30 -38.7370
      31 -38.7358      32 -38.7357      33 -38.7356      34 -38.7360      35 -38.7366
      36 -38.7370      37 -38.7367      38 -38.7360      39 -38.7356      40 -38.7355
      41 -38.7355      42 -38.7356      43 -38.7357      44 -38.7358      45 -38.7358
      46 -38.7357      47 -38.7355      48 -38.7355      49 -38.7358      50 -38.7358
      51 -38.7358      52 -38.7357      53 -38.7356      54 -38.7356      55 -38.7356
      56 -38.7357      57 -38.7372      58 -38.7378      59 -38.7375      60 -38.7363
      61 -38.7358      62 -38.7356      63 -38.7358      64 -38.7363      65 -76.3106
      66 -76.3120      67 -76.3114      68 -76.3088      69 -76.3079      70 -76.3077
      71 -76.3078      72 -76.3088      73 -76.3148      74 -76.3206      75 -76.3237
      76 -76.3154      77 -76.3091      78 -76.3080      79 -76.3080      80 -76.3091
      81 -76.3134      82 -76.3218      83 -76.3263      84 -76.3222      85 -76.3114
      86 -76.3083      87 -76.3079      88 -76.3085      89 -76.3088      90 -76.3128
      91 -76.3149      92 -76.3143      93 -76.3105      94 -76.3082      95 -76.3078
      96 -76.3078      97 -76.3077      98 -76.3083      99 -76.3089     100 -76.3090
     101 -76.3083     102 -76.3078     103 -76.3076     104 -76.3075     105 -76.3076
     106 -76.3077     107 -76.3077     108 -76.3078     109 -76.3077     110 -76.3076
     111 -76.3075     112 -76.3076     113 -76.3076     114 -76.3077     115 -76.3077
     116 -76.3077     117 -76.3076     118 -76.3076     119 -76.3077     120 -76.3076
     121 -76.3083     122 -76.3082     123 -76.3080     124 -76.3078     125 -76.3076
     126 -76.3076     127 -76.3077     128 -76.3080     129 -67.6880     130 -65.7235
     131 -65.9536     132 -92.0632     133 -91.9380     134 -92.0681     135 -92.2635
     136 -92.2681     137 -86.5715     138 -86.5680
 
 
 
 E-fermi :  -6.3430     XC(G=0):  -1.2984     alpha+bet : -1.0971


 spin component 1

 k-point     1 :       0.2500    0.2500    0.0000
  band No.  band energies     occupation 
      1     -35.8035      1.00000
      2     -35.0701      1.00000
      3     -33.7244      1.00000
      4     -33.4002      1.00000
      5     -33.3216      1.00000
      6     -30.8736      1.00000
      7     -29.8745      1.00000
      8     -24.9097      1.00000
      9     -24.8333      1.00000
     10     -24.8306      1.00000
     11     -24.6019      1.00000
     12     -24.6014      1.00000
     13     -24.4503      1.00000
     14     -24.3768      1.00000
     15     -24.3741      1.00000
     16     -24.2272      1.00000
     17     -24.2270      1.00000
     18     -24.1541      1.00000
     19     -24.1536      1.00000
     20     -23.7949      1.00000
     21     -23.7947      1.00000
     22     -23.7258      1.00000
     23     -23.7257      1.00000
     24     -23.5857      1.00000
     25     -23.5207      1.00000
     26     -23.5180      1.00000
     27     -23.3242      1.00000
     28     -23.3238      1.00000
     29     -23.3173      1.00000
     30     -23.3172      1.00000
     31     -23.1320      1.00000
     32     -23.1319      1.00000
     33     -23.0122      1.00000
     34     -23.0121      1.00000
     35     -22.7573      1.00000
     36     -22.7571      1.00000
     37     -22.6079      1.00000
     38     -22.6078      1.00000
     39     -22.5134      1.00000
     40     -22.5131      1.00000
     41     -22.4762      1.00000
     42     -22.4354      1.00000
     43     -22.4328      1.00000
     44     -22.3149      1.00000
     45     -22.3145      1.00000
     46     -22.1830      1.00000
     47     -22.1827      1.00000
     48     -22.1527      1.00000
     49     -22.1526      1.00000
     50     -22.1389      1.00000
     51     -22.1388      1.00000
     52     -22.0013      1.00000
     53     -21.9989      1.00000
     54     -21.9403      1.00000
     55     -21.9402      1.00000
     56     -21.7899      1.00000
     57     -21.7582      1.00000
     58     -21.7581      1.00000
     59     -21.7185      1.00000
     60     -21.7159      1.00000
     61     -21.7130      1.00000
     62     -21.7128      1.00000
     63     -21.6236      1.00000
     64     -21.6232      1.00000
     65     -21.5479      1.00000
     66     -21.5453      1.00000
     67     -21.5294      1.00000
     68     -21.5225      1.00000
     69     -21.3848      1.00000
     70     -21.3825      1.00000
     71     -21.2592      1.00000
     72     -21.0959      1.00000
     73     -18.0462      1.00000
     74     -16.4185      1.00000
     75     -16.2635      1.00000
     76     -16.0699      1.00000
     77     -15.4731      1.00000
     78     -15.3907      1.00000
     79     -15.3905      1.00000
     80     -15.3358      1.00000
     81     -15.3127      1.00000
     82     -15.3125      1.00000
     83     -15.1996      1.00000
     84     -15.1994      1.00000
     85     -15.1346      1.00000
     86     -15.1320      1.00000
     87     -15.0885      1.00000
     88     -14.9828      1.00000
     89     -14.9827      1.00000
     90     -14.8137      1.00000
     91     -14.8113      1.00000
     92     -14.8031      1.00000
     93     -14.8013      1.00000
     94     -14.5797      1.00000
     95     -14.5796      1.00000
     96     -14.5676      1.00000
     97     -14.5666      1.00000
     98     -14.5123      1.00000
     99     -14.4640      1.00000
    100     -14.4636      1.00000
    101     -14.4467      1.00000
    102     -14.4446      1.00000
    103     -14.3577      1.00000
    104     -14.3576      1.00000
    105     -14.2499      1.00000
    106     -14.2402      1.00000
    107     -14.2399      1.00000
    108     -14.1010      1.00000
    109     -14.1007      1.00000
    110     -13.9319      1.00000
    111     -13.9318      1.00000
    112     -13.8818      1.00000
    113     -13.8799      1.00000
    114     -13.7417      1.00000
    115     -13.5632      1.00000
    116     -13.3511      1.00000
    117     -13.3510      1.00000
    118     -13.3259      1.00000
    119     -13.3246      1.00000
    120     -13.2792      1.00000
    121     -13.1846      1.00000
    122     -13.1845      1.00000
    123     -13.0740      1.00000
    124     -13.0640      1.00000
    125     -13.0602      1.00000
    126     -13.0179      1.00000
    127     -13.0177      1.00000
    128     -12.8442      1.00000
    129     -12.6795      1.00000
    130     -12.6794      1.00000
    131     -12.6321      1.00000
    132     -12.6304      1.00000
    133     -12.4981      1.00000
    134     -12.4945      1.00000
    135     -12.4944      1.00000
    136     -12.4302      1.00000
    137     -12.2716      1.00000
    138     -12.2505      1.00000
    139     -12.2504      1.00000
    140     -12.2038      1.00000
    141     -12.1620      1.00000
    142     -12.1594      1.00000
    143     -12.0356      1.00000
    144     -12.0339      1.00000
    145     -11.8340      1.00000
    146     -11.8339      1.00000
    147     -11.8226      1.00000
    148     -11.8223      1.00000
    149     -11.7959      1.00000
    150     -11.7136      1.00000
    151     -11.6543      1.00000
    152     -11.6490      1.00000
    153     -11.6489      1.00000
    154     -11.5417      1.00000
    155     -11.5403      1.00000
    156     -11.5402      1.00000
    157     -11.4579      1.00000
    158     -11.4390      1.00000
    159     -11.4363      1.00000
    160     -11.3723      1.00000
    161     -11.3723      1.00000
    162     -11.3449      1.00000
    163     -11.3431      1.00000
    164     -11.2704      1.00000
    165     -11.2467      1.00000
    166     -11.2466      1.00000
    167     -11.1289      1.00000
    168     -11.1279      1.00000
    169     -11.0789      1.00000
    170     -11.0789      1.00000
    171     -10.9251      1.00000
    172     -10.9120      1.00000
    173     -10.8309      1.00000
    174     -10.8223      1.00000
    175     -10.8210      1.00000
    176     -10.8208      1.00000
    177     -10.8096      1.00000
    178     -10.7874      1.00000
    179     -10.7263      1.00000
    180     -10.7237      1.00000
    181     -10.6521      1.00000
    182     -10.6521      1.00000
    183     -10.6223      1.00000
    184     -10.6206      1.00000
    185     -10.5878      1.00000
    186     -10.5878      1.00000
    187     -10.5620      1.00000
    188     -10.5618      1.00000
    189     -10.5234      1.00000
    190     -10.5218      1.00000
    191     -10.5047      1.00000
    192     -10.5046      1.00000
    193     -10.4761      1.00000
    194     -10.4757      1.00000
    195     -10.4649      1.00000
    196     -10.4648      1.00000
    197     -10.2866      1.00000
    198     -10.2865      1.00000
    199     -10.0898      1.00000
    200     -10.0770      1.00000
    201     -10.0768      1.00000
    202     -10.0344      1.00000
    203     -10.0337      1.00000
    204     -10.0240      1.00000
    205     -10.0239      1.00000
    206      -9.9394      1.00000
    207      -9.9388      1.00000
    208      -9.9293      1.00000
    209      -9.9276      1.00000
    210      -9.8853      1.00000
    211      -9.8837      1.00000
    212      -9.7960      1.00000
    213      -9.7958      1.00000
    214      -9.7484      1.00000
    215      -9.6601      1.00000
    216      -9.6540      1.00000
    217      -9.6286      1.00000
    218      -9.6286      1.00000
    219      -9.5712      1.00000
    220      -9.5567      1.00000
    221      -9.5566      1.00000
    222      -9.4467      1.00000
    223      -9.4330      1.00000
    224      -9.3838      1.00000
    225      -9.3803      1.00000
    226      -9.3762      1.00000
    227      -9.3662      1.00000
    228      -9.1168      1.00000
    229      -9.1163      1.00000
    230      -9.0952      1.00000
    231      -9.0949      1.00000
    232      -8.9796      1.00000
    233      -8.9794      1.00000
    234      -8.9653      1.00000
    235      -8.9652      1.00000
    236      -8.9479      1.00000
    237      -8.9470      1.00000
    238      -8.6917      1.00000
    239      -8.6901      1.00000
    240      -8.6709      1.00000
    241      -8.5910      1.00000
    242      -8.5906      1.00000
    243      -8.3872      1.00000
    244      -8.3868      1.00000
    245      -8.3737      1.00000
    246      -8.3734      1.00000
    247      -8.2566      1.00000
    248      -8.2557      1.00000
    249      -8.2353      1.00000
    250      -8.2350      1.00000
    251      -8.1883      1.00000
    252      -8.1268      1.00000
[...]
      8.79253     13.77972     17.55704        -0.000768      0.000858      0.008330
     10.04857     15.95542     17.55783        -0.000497      0.000448      0.008768
      2.51201     -1.44952     17.55988         0.001416      0.000171      0.011985
      3.76807      0.72613     17.56027         0.001656     -0.000760      0.011472
      5.02434      2.90169     17.55745         0.001837      0.000079      0.015934
      6.28036      5.07729     17.55627        -0.000141      0.000060      0.009992
      7.53648      7.25286     17.55699        -0.000017      0.001067      0.007989
      8.79255      9.42847     17.55705         0.000385      0.001628      0.007615
     10.04864     11.60411     17.55713        -0.000293      0.000854      0.008169
     11.30468     13.77980     17.55830         0.000145      0.000405      0.008568
      3.76815     -3.62512     17.56037         0.000441      0.001035      0.011092
      5.02414     -1.44942     17.56143         0.000317      0.000055      0.017602
      6.28030      0.72622     17.56099         0.000111      0.000673      0.014874
      7.53634      2.90170     17.55706        -0.001368     -0.000115      0.015100
      8.79256      5.07727     17.55752        -0.000073      0.000162      0.008383
     10.04865      7.25288     17.55724         0.000668      0.001594      0.007616
     11.30473      9.42850     17.55705         0.000068      0.000913      0.007742
     12.56079     11.60416     17.55789         0.000216      0.000887      0.008534
      5.02423     -5.80084     17.55847         0.000029      0.000480      0.008688
      6.28023     -3.62512     17.56036        -0.000346      0.001017      0.011590
      7.53633     -1.44951     17.56073        -0.000846      0.000660      0.009174
      8.79250      0.72611     17.55868        -0.000639      0.000924      0.011445
     10.04859      2.90171     17.55818        -0.000158      0.000380      0.008594
     11.30473      5.07728     17.55752         0.000554      0.000817      0.007680
     12.56082      7.25286     17.55701         0.000483      0.001235      0.007851
     13.81688      9.42848     17.55702         0.000287      0.000672      0.008239
      6.28033     -7.97652     17.55697         0.000016      0.000944      0.008126
      7.53636     -5.80083     17.55789         0.000024      0.000557      0.008334
      8.79242     -3.62518     17.55844         0.000576     -0.000370      0.008237
     10.04853     -1.44956     17.55805         0.000756      0.000346      0.008301
     11.30466      0.72605     17.55759         0.000735      0.000676      0.008170
     12.56078      2.90163     17.55737         0.000473      0.001053      0.007770
     13.81688      5.07722     17.55703         0.000646      0.001029      0.007871
     15.07298      7.25282     17.55684         0.000284      0.000878      0.007802
      7.53642    -10.15218     17.55685        -0.000287      0.001444      0.007808
      8.79247     -7.97652     17.55687        -0.000065      0.001080      0.008069
     10.04853     -5.80088     17.55709         0.000436      0.000991      0.007930
     11.30461     -3.62526     17.55702         0.000827      0.000632      0.008168
     12.56071     -1.44965     17.55693         0.001043      0.000735      0.007960
     13.81683      0.72595     17.55698         0.000593      0.001048      0.007831
     15.07294      2.90157     17.55694         0.000326      0.000881      0.007759
     16.32904      5.07718     17.55686         0.000114      0.001106      0.007870
      8.79249    -12.32777     17.55709        -0.000508      0.001246      0.007849
     10.04857    -10.15212     17.55720        -0.000616      0.001282      0.007618
     11.30465     -7.97651     17.55699        -0.000160      0.001062      0.007932
     12.56074     -5.80092     17.55687         0.000095      0.001312      0.007878
     13.81682     -3.62531     17.55686         0.000366      0.001154      0.007691
     15.07292     -1.44970     17.55686         0.000063      0.001105      0.007782
     16.32901      0.72593     17.55690         0.000108      0.001194      0.007661
     17.58511      2.90157     17.55693        -0.000481      0.001370      0.007808
     10.04856    -14.50332     17.55763        -0.000320      0.000409      0.008258
     11.30464    -12.32768     17.55789        -0.000529      0.001028      0.008127
     12.56075    -10.15210     17.55759        -0.000386      0.001108      0.007578
     13.81685     -7.97653     17.55706        -0.000226      0.001836      0.007892
     15.07295     -5.80093     17.55692         0.000106      0.001002      0.007867
     16.32903     -3.62532     17.55689        -0.000174      0.001269      0.007874
     17.58511     -1.44968     17.55691        -0.000565      0.001163      0.007984
     18.84118      0.72599     17.55717        -0.000809      0.001325      0.008165
      5.10800     -1.00016     23.25268        -0.005410      0.001764     -0.002785
      4.76117     -1.15839     21.79429         0.013622     -0.002709     -0.015609
      6.27791      2.62093     21.39970        -0.023464      0.016363      0.001359
      6.43851     -1.04854     23.41524        -0.005078     -0.002773     -0.016657
      4.56454     -1.97537     24.01792        -0.001531     -0.003192      0.001600
      4.65254      0.17626     23.70867        -0.006012      0.004896     -0.011932
      5.26696     -2.24864     21.23311        -0.009567     -0.005719     -0.008248
      3.47186     -1.01267     21.52134        -0.006507     -0.004646     -0.000218
      7.35858      2.19395     21.33753         0.006870      0.000657     -0.017538
      5.19488      3.04309     21.45716         0.011329      0.001023     -0.008789
 -----------------------------------------------------------------------------------
    total drift:                                0.003742     -0.190443      0.224745


--------------------------------------------------------------------------------------------------------



  FREE ENERGIE OF THE ION-ELECTRON SYSTEM (eV)
  ---------------------------------------------------
  free  energy   TOTEN  =     -1322.70752522 eV

  energy  without entropy=    -1322.68847591  energy(sigma->0) =    -1322.69800056
 


--------------------------------------------------------------------------------------------------------


    POTLOK:  cpu time   90.6641: real time   90.6680


--------------------------------------------------------------------------------------------------------


 writing wavefunctions
     LOOP+:  cpu time 7131.9949: real time 6043.5311
    4ORBIT:  cpu time    0.0000: real time    0.0000
 


 total charge     
 
# of ion       s       p       d       tot
------------------------------------------
    1        0.744   1.393   0.000   2.137
    2        0.744   1.393   0.000   2.137
    3        0.744   1.393   0.000   2.137
    4        0.744   1.393   0.000   2.137
    5        0.744   1.393   0.000   2.137
    6        0.744   1.393   0.000   2.137
    7        0.744   1.393   0.000   2.137
    8        0.744   1.393   0.000   2.137
    9        0.744   1.393   0.000   2.137
   10        0.744   1.393   0.000   2.137
   11        0.744   1.393   0.000   2.137
   12        0.744   1.394   0.000   2.138
   13        0.744   1.393   0.000   2.137
   14        0.744   1.393   0.000   2.137
   15        0.744   1.393   0.000   2.137
   16        0.744   1.393   0.000   2.137
   17        0.744   1.393   0.000   2.137
   18        0.744   1.393   0.000   2.137
   19        0.744   1.393   0.000   2.137
   20        0.744   1.393   0.000   2.137
   21        0.744   1.393   0.000   2.137
   22        0.744   1.393   0.000   2.137
   23        0.744   1.393   0.000   2.137
   24        0.744   1.393   0.000   2.137
   25        0.744   1.393   0.000   2.137
   26        0.744   1.393   0.000   2.137
   27        0.744   1.393   0.000   2.137
   28        0.744   1.393   0.000   2.137
   29        0.744   1.393   0.000   2.137
   30        0.744   1.393   0.000   2.137
   31        0.744   1.393   0.000   2.137
   32        0.744   1.393   0.000   2.137
   33        0.744   1.393   0.000   2.137
   34        0.744   1.393   0.000   2.137
   35        0.744   1.393   0.000   2.137
   36        0.744   1.393   0.000   2.137
   37        0.744   1.393   0.000   2.137
   38        0.744   1.393   0.000   2.137
   39        0.744   1.393   0.000   2.137
   40        0.744   1.393   0.000   2.137
   41        0.744   1.393   0.000   2.137
   42        0.744   1.393   0.000   2.137
   43        0.744   1.393   0.000   2.137
   44        0.744   1.393   0.000   2.137
   45        0.744   1.393   0.000   2.137
   46        0.744   1.393   0.000   2.137
   47        0.744   1.393   0.000   2.137
   48        0.744   1.393   0.000   2.137
   49        0.744   1.393   0.000   2.137
   50        0.744   1.393   0.000   2.137
   51        0.744   1.393   0.000   2.137
   52        0.744   1.393   0.000   2.137
   53        0.744   1.393   0.000   2.137
   54        0.744   1.393   0.000   2.137
   55        0.744   1.393   0.000   2.137
   56        0.744   1.393   0.000   2.137
   57        0.744   1.393   0.000   2.137
   58        0.744   1.393   0.000   2.137
   59        0.744   1.393   0.000   2.137
   60        0.744   1.393   0.000   2.137
   61        0.744   1.393   0.000   2.137
   62        0.744   1.393   0.000   2.137
   63        0.744   1.393   0.000   2.137
   64        0.744   1.393   0.000   2.137
   65        1.239   2.820   0.000   4.058
   66        1.239   2.820   0.000   4.058
   67        1.239   2.820   0.000   4.058
   68        1.239   2.820   0.000   4.058
   69        1.239   2.820   0.000   4.058
   70        1.239   2.820   0.000   4.058
   71        1.239   2.820   0.000   4.058
   72        1.239   2.820   0.000   4.058
   73        1.239   2.820   0.000   4.058
   74        1.239   2.820   0.000   4.058
   75        1.239   2.819   0.000   4.058
   76        1.239   2.820   0.000   4.058
   77        1.239   2.820   0.000   4.058
   78        1.239   2.820   0.000   4.058
   79        1.239   2.820   0.000   4.058
   80        1.239   2.820   0.000   4.058
   81        1.239   2.820   0.000   4.058
   82        1.239   2.819   0.000   4.058
   83        1.239   2.819   0.000   4.058
   84        1.239   2.819   0.000   4.058
   85        1.239   2.820   0.000   4.058
   86        1.239   2.820   0.000   4.058
   87        1.239   2.820   0.000   4.058
   88        1.239   2.820   0.000   4.058
   89        1.239   2.820   0.000   4.058
   90        1.239   2.820   0.000   4.058
   91        1.239   2.820   0.000   4.058
   92        1.239   2.820   0.000   4.058
   93        1.239   2.820   0.000   4.058
   94        1.239   2.820   0.000   4.058
   95        1.239   2.820   0.000   4.058
   96        1.239   2.820   0.000   4.058
   97        1.239   2.820   0.000   4.058
   98        1.239   2.820   0.000   4.058
   99        1.239   2.820   0.000   4.058
  100        1.239   2.820   0.000   4.058
  101        1.239   2.820   0.000   4.058
  102        1.239   2.820   0.000   4.058
  103        1.239   2.820   0.000   4.058
  104        1.239   2.820   0.000   4.058
  105        1.239   2.820   0.000   4.058
  106        1.239   2.820   0.000   4.058
  107        1.239   2.820   0.000   4.058
  108        1.239   2.820   0.000   4.058
  109        1.239   2.820   0.000   4.058
  110        1.239   2.820   0.000   4.058
  111        1.239   2.820   0.000   4.058
  112        1.239   2.820   0.000   4.058
  113        1.239   2.820   0.000   4.058
  114        1.239   2.820   0.000   4.058
  115        1.239   2.820   0.000   4.058
  116        1.239   2.820   0.000   4.058
  117        1.239   2.820   0.000   4.058
  118        1.239   2.820   0.000   4.058
  119        1.239   2.820   0.000   4.058
  120        1.239   2.820   0.000   4.058
  121        1.239   2.820   0.000   4.058
  122        1.239   2.820   0.000   4.058
  123        1.239   2.820   0.000   4.058
  124        1.239   2.820   0.000   4.058
  125        1.239   2.820   0.000   4.058
  126        1.239   2.820   0.000   4.058
  127        1.239   2.820   0.000   4.058
  128        1.239   2.820   0.000   4.058
  129        0.814   1.560   0.000   2.374
  130        0.836   1.566   0.000   2.402
  131        0.945   1.794   0.000   2.738
  132        1.758   4.413   0.000   6.171
  133        1.758   4.405   0.000   6.163
  134        1.758   4.413   0.000   6.171
  135        1.757   4.400   0.000   6.156
  136        1.757   4.400   0.000   6.157
  137        1.608   3.595   0.000   5.204
  138        1.608   3.595   0.000   5.203
--------------------------------------------------
tot        141.482 303.746   0.000 445.228
 


 magnetization (x)
 
# of ion       s       p       d       tot
------------------------------------------
    1        0.000   0.000   0.000   0.000
    2        0.000  -0.000   0.000  -0.000
    3        0.000   0.000   0.000   0.000
    4        0.000   0.000   0.000   0.000
    5        0.000   0.000   0.000   0.000
    6        0.000   0.000   0.000   0.000
    7        0.000   0.000   0.000   0.000
    8        0.000   0.000   0.000   0.000
    9        0.000   0.000   0.000   0.000
   10       -0.000   0.000   0.000   0.000
   11        0.000   0.000   0.000   0.000
   12        0.000   0.000   0.000   0.000
   13        0.000   0.000   0.000   0.000
   14        0.000   0.000   0.000   0.000
   15        0.000   0.000   0.000   0.000
   16        0.000   0.000   0.000   0.000
   17        0.000   0.000   0.000   0.000
   18       -0.000  -0.000   0.000  -0.000
   19        0.000   0.000   0.000   0.000
   20       -0.000   0.000   0.000   0.000
   21       -0.000   0.000   0.000   0.000
   22        0.000   0.000   0.000   0.000
   23        0.000   0.000   0.000   0.000
   24        0.000   0.000   0.000   0.000
   25        0.000   0.000   0.000   0.000
   26        0.000   0.000   0.000   0.000
   27        0.000  -0.000   0.000  -0.000
   28        0.000  -0.000   0.000   0.000
   29        0.000   0.000   0.000   0.000
   30        0.000   0.000   0.000   0.000
   31        0.000   0.000   0.000   0.000
   32        0.000   0.000   0.000   0.000
   33        0.000   0.000   0.000   0.000
   34        0.000   0.000   0.000   0.000
   35        0.000   0.000   0.000   0.000
   36        0.000   0.000   0.000   0.000
   37        0.000   0.000   0.000   0.000
   38        0.000   0.000   0.000   0.000
   39        0.000   0.000   0.000   0.000
   40        0.000   0.000   0.000   0.000
   41        0.000   0.000   0.000   0.000
   42        0.000   0.000   0.000   0.000
   43        0.000   0.000   0.000   0.000
   44        0.000   0.000   0.000   0.000
   45        0.000   0.000   0.000   0.000
   46        0.000   0.000   0.000   0.000
   47        0.000   0.000   0.000   0.000
   48        0.000   0.000   0.000   0.000
   49        0.000   0.000   0.000   0.000
   50        0.000   0.000   0.000   0.000
   51        0.000   0.000   0.000   0.000
   52        0.000   0.000   0.000   0.000
   53        0.000   0.000   0.000   0.000
   54        0.000   0.000   0.000   0.000
   55        0.000   0.000   0.000   0.000
   56        0.000   0.000   0.000   0.000
   57        0.000   0.000   0.000   0.000
   58        0.000   0.000   0.000   0.000
   59        0.000   0.000   0.000   0.000
   60        0.000   0.000   0.000   0.000
   61        0.000   0.000   0.000   0.000
   62        0.000   0.000   0.000   0.000
   63        0.000   0.000   0.000   0.000
   64        0.000   0.000   0.000   0.000
   65        0.000   0.000   0.000   0.000
   66        0.000   0.000   0.000   0.000
   67       -0.000  -0.000   0.000  -0.000
   68       -0.000  -0.000   0.000  -0.000
   69       -0.000  -0.000   0.000  -0.000
   70        0.000   0.000   0.000   0.000
   71        0.000   0.000   0.000   0.000
   72       -0.000  -0.000   0.000  -0.000
   73       -0.000  -0.000   0.000  -0.000
   74       -0.000  -0.000   0.000  -0.000
   75       -0.000  -0.000   0.000  -0.000
   76        0.000   0.000   0.000   0.000
   77        0.000  -0.000   0.000  -0.000
   78       -0.000  -0.000   0.000  -0.000
   79       -0.000  -0.000   0.000  -0.000
   80        0.000   0.000   0.000   0.000
   81       -0.000  -0.000   0.000  -0.000
   82       -0.000  -0.000   0.000  -0.000
   83        0.000   0.000   0.000   0.000
   84       -0.000  -0.000   0.000  -0.000
   85       -0.000  -0.000   0.000  -0.000
   86       -0.000  -0.000   0.000  -0.000
   87       -0.000   0.000   0.000   0.000
   88       -0.000  -0.000   0.000  -0.000
   89        0.000   0.000   0.000   0.000
   90       -0.000  -0.000   0.000  -0.000
   91       -0.000  -0.000   0.000  -0.000
   92       -0.000  -0.000   0.000  -0.000
   93        0.000   0.000   0.000   0.000
   94       -0.000  -0.000   0.000  -0.000
   95       -0.000  -0.000   0.000  -0.000
   96       -0.000  -0.000   0.000  -0.000
   97        0.000   0.000   0.000   0.000
   98       -0.000  -0.000   0.000  -0.000
   99       -0.000  -0.000   0.000  -0.000
  100        0.000   0.000   0.000   0.000
  101       -0.000  -0.000   0.000  -0.000
  102       -0.000  -0.000   0.000  -0.000
  103       -0.000  -0.000   0.000  -0.000
  104       -0.000   0.000   0.000   0.000
  105       -0.000  -0.000   0.000  -0.000
  106       -0.000  -0.000   0.000  -0.000
  107       -0.000   0.000   0.000   0.000
  108       -0.000  -0.000   0.000  -0.000
  109       -0.000  -0.000   0.000  -0.000
  110        0.000   0.000   0.000   0.000
  111        0.000  -0.000   0.000  -0.000
  112       -0.000  -0.000   0.000  -0.000
  113        0.000   0.000   0.000   0.000
  114       -0.000  -0.000   0.000  -0.000
  115       -0.000  -0.000   0.000  -0.000
  116       -0.000  -0.000   0.000  -0.000
  117        0.000   0.000   0.000   0.000
  118       -0.000  -0.000   0.000  -0.000
  119       -0.000  -0.000   0.000  -0.000
  120       -0.000  -0.000   0.000  -0.000
  121       -0.000  -0.000   0.000  -0.000
  122       -0.000  -0.000   0.000  -0.000
  123       -0.000   0.000   0.000   0.000
  124       -0.000  -0.000   0.000  -0.000
  125       -0.000  -0.000   0.000  -0.000
  126       -0.000  -0.000   0.000  -0.000
  127        0.000   0.000   0.000   0.000
  128        0.000   0.000   0.000   0.000
  129        0.004   0.011   0.000   0.015
  130        0.070   0.377   0.000   0.447
  131       -0.000   0.000   0.000   0.000
  132       -0.000  -0.000   0.000  -0.001
  133        0.001   0.030   0.000   0.031
  134       -0.000  -0.000   0.000  -0.001
  135        0.003   0.077   0.000   0.080
  136        0.003   0.077   0.000   0.080
  137        0.000   0.000   0.000   0.000
  138        0.000   0.000   0.000   0.000
--------------------------------------------------
tot          0.082   0.570   0.000   0.652
 

 total amount of memory used by VASP MPI-rank0  2733402. kBytes
=======================================================================

   base      :      30000. kBytes
   nonlr-proj:      63775. kBytes
   fftplans  :     108234. kBytes
   grid      :    1287382. kBytes
   one-center:        847. kBytes
   wavefun   :    1243164. kBytes
 
  
  
 General timing and accounting informations for this job:
 ========================================================
  
                  Total CPU time used (sec):     9183.958
                            User time (sec):     8198.930
                          System time (sec):      985.027
                         Elapsed time (sec):     7767.541
  
                   Maximum memory used (kb):     4978332.
                   Average memory used (kb):           0.
  
                          Minor page faults:     20024750
                          Major page faults:            0
                 Voluntary context switches:        67313
