 vasp.5.4.4.18Apr17-6-g9f103f2a35 (build Jun 11 2020 13:42:08) complex          
  
 executed on             LinuxIFC date 2020.11.06  07:02:10
 running on  144 total cores
 distrk:  each k-point on   48 cores,    3 groups
 distr:  one band on NCORES_PER_BAND=   1 cores,   48 groups


--------------------------------------------------------------------------------------------------------


 INCAR:
 POTCAR:    PAW_PBE B 06Sep2000                   
 POTCAR:    PAW_PBE C 08Apr2002                   
 POTCAR:    PAW_PBE F 08Apr2002                   
 POTCAR:    PAW_PBE N 08Apr2002                   
 POTCAR:    PAW_PBE O 08Apr2002                   

 ----------------------------------------------------------------------------- 
|                                                                             |
|           W    W    AA    RRRRR   N    N  II  N    N   GGGG   !!!           |
|           W    W   A  A   R    R  NN   N  II  NN   N  G    G  !!!           |
|           W    W  A    A  R    R  N N  N  II  N N  N  G       !!!           |
|           W WW W  AAAAAA  RRRRR   N  N N  II  N  N N  G  GGG   !            |
|           WW  WW  A    A  R   R   N   NN  II  N   NN  G    G                |
|           W    W  A    A  R    R  N    N  II  N    N   GGGG   !!!           |
|                                                                             |
|      For optimal performance we recommend to set                            |
|        NCORE= 4 - approx SQRT( number of cores)                             |
|      NCORE specifies how many cores store one orbital (NPAR=cpu/NCORE).     |
|      This setting can  greatly improve the performance of VASP for DFT.     |
|      The default,   NCORE=1            might be grossly inefficient         |
|      on modern multi-core architectures or massively parallel machines.     |
|      Do your own testing !!!!                                               |
|      Unfortunately you need to use the default for GW and RPA calculations. |
|      (for HF NCORE is supported but not extensively tested yet)             |
|                                                                             |
 ----------------------------------------------------------------------------- 


 ----------------------------------------------------------------------------- 
|                                                                             |
|           W    W    AA    RRRRR   N    N  II  N    N   GGGG   !!!           |
|           W    W   A  A   R    R  NN   N  II  NN   N  G    G  !!!           |
|           W    W  A    A  R    R  N N  N  II  N N  N  G       !!!           |
|           W WW W  AAAAAA  RRRRR   N  N N  II  N  N N  G  GGG   !            |
|           WW  WW  A    A  R   R   N   NN  II  N   NN  G    G                |
|           W    W  A    A  R    R  N    N  II  N    N   GGGG   !!!           |
|                                                                             |
|      You have enabled k-point parallelism (KPAR>1).                         |
|      This developmental code was originally  written by Paul Kent at ORNL,  |
|      and carefully double checked in Vienna.                                |
|      GW as well as linear response parallelism added by Martijn Marsman     |
|      and Georg Kresse.                                                      |
|      Carefully verify results versus KPAR=1.                                |
|      Report problems to Paul Kent and Vienna.                               |
|                                                                             |
 ----------------------------------------------------------------------------- 

 POTCAR:    PAW_PBE B 06Sep2000                   
   VRHFIN =B: s2p1                                                              
   LEXCH  = PE                                                                  
   EATOM  =    71.1703 eV,    5.2309 Ry                                         
                                                                                
   TITEL  = PAW_PBE B 06Sep2000                                                 
   LULTRA =        F    use ultrasoft PP ?                                      
   IUNSCR =        1    unscreen: 0-lin 1-nonlin 2-no                           
   RPACOR =    1.200    partial core radius                                     
   POMASS =   10.811; ZVAL   =    3.000    mass and valenz                      
   RCORE  =    1.700    outmost cutoff radius                                   
   RWIGS  =    1.710; RWIGS  =    0.905    wigner-seitz radius (au A)           
   ENMAX  =  318.614; ENMIN  =  238.960 eV                                      
   ICORE  =        2    local potential                                         
   LCOR   =        T    correct aug charges                                     
   LPAW   =        T    paw PP                                                  
   EAUG   =  535.514                                                            
   DEXC   =    0.000                                                            
   RMAX   =    1.732    core radius for proj-oper                               
   RAUG   =    1.300    factor for augmentation sphere                          
   RDEP   =    1.757    radius for radial grids                                 
   RDEPT  =    1.436    core radius for aug-charge                              
                                                                                
   Atomic configuration                                                         
    4 entries                                                                   
     n  l   j            E        occ.                                          
     1  0  0.50      -180.5896   2.0000                                         
     2  0  0.50        -9.4431   2.0000                                         
     2  1  0.50        -3.6068   1.0000                                         
     3  2  1.50        -4.0817   0.0000                                         
   Description                                                                  
     l       E           TYP  RCUT    TYP  RCUT                                 
     0     -9.4430752     23  1.500                                             
     0      0.8675899     23  1.500                                             
     1     -3.6067955     23  1.700                                             
     1      6.1086146     23  1.700                                             
     2     -4.0817478      7  1.700                                             
  local pseudopotential read in
  partial core-charges read in
  partial kinetic energy density read in
  atomic valenz-charges read in
  non local Contribution for L=           0  read in
    real space projection operators read in
  non local Contribution for L=           0  read in
    real space projection operators read in
  non local Contribution for L=           1  read in
    real space projection operators read in
  non local Contribution for L=           1  read in
    real space projection operators read in
    PAW grid and wavefunctions read in
 
   number of l-projection  operators is LMAX  =           4
   number of lm-projection operators is LMMAX =           8
 
 POTCAR:    PAW_PBE C 08Apr2002                   
   VRHFIN =C: s2p2                                                              
   LEXCH  = PE                                                                  
   EATOM  =   147.1560 eV,   10.8157 Ry                                         
                                                                                
   TITEL  = PAW_PBE C 08Apr2002                                                 
   LULTRA =        F    use ultrasoft PP ?                                      
   IUNSCR =        1    unscreen: 0-lin 1-nonlin 2-no                           
   RPACOR =    1.200    partial core radius                                     
   POMASS =   12.011; ZVAL   =    4.000    mass and valenz                      
   RCORE  =    1.500    outmost cutoff radius                                   
   RWIGS  =    1.630; RWIGS  =    0.863    wigner-seitz radius (au A)           
   ENMAX  =  400.000; ENMIN  =  300.000 eV                                      
   ICORE  =        2    local potential                                         
   LCOR   =        T    correct aug charges                                     
   LPAW   =        T    paw PP                                                  
   EAUG   =  644.873                                                            
   DEXC   =    0.000                                                            
   RMAX   =    1.529    core radius for proj-oper                               
   RAUG   =    1.300    factor for augmentation sphere                          
   RDEP   =    1.501    radius for radial grids                                 
   RDEPT  =    1.300    core radius for aug-charge                              
                                                                                
   Atomic configuration                                                         
    4 entries                                                                   
     n  l   j            E        occ.                                          
     1  0  0.50      -273.3789   2.0000                                         
     2  0  0.50       -13.7508   2.0000                                         
     2  1  0.50        -5.2854   2.0000                                         
     3  2  1.50        -5.4423   0.0000                                         
   Description                                                                  
     l       E           TYP  RCUT    TYP  RCUT                                 
     0    -13.7508458     23  1.200                                             
     0     -8.2022199     23  1.200                                             
     1     -5.2854383     23  1.500                                             
     1     34.0145650     23  1.500                                             
     2     -5.4423304      7  1.500                                             
  local pseudopotential read in
  partial core-charges read in
  partial kinetic energy density read in
  atomic valenz-charges read in
  non local Contribution for L=           0  read in
    real space projection operators read in
  non local Contribution for L=           0  read in
    real space projection operators read in
  non local Contribution for L=           1  read in
    real space projection operators read in
  non local Contribution for L=           1  read in
    real space projection operators read in
    PAW grid and wavefunctions read in
 
   number of l-projection  operators is LMAX  =           4
   number of lm-projection operators is LMMAX =           8
 
 POTCAR:    PAW_PBE F 08Apr2002                   
   VRHFIN =F: s2p5                                                              
   LEXCH  = PE                                                                  
   EATOM  =   659.6475 eV,   48.4827 Ry                                         
                                                                                
   TITEL  = PAW_PBE F 08Apr2002                                                 
   LULTRA =        F    use ultrasoft PP ?                                      
   IUNSCR =        1    unscreen: 0-lin 1-nonlin 2-no                           
   RPACOR =    1.200    partial core radius                                     
   POMASS =   18.998; ZVAL   =    7.000    mass and valenz                      
   RCORE  =    1.520    outmost cutoff radius                                   
   RWIGS  =    1.500; RWIGS  =    0.794    wigner-seitz radius (au A)           
   ENMAX  =  400.000; ENMIN  =  300.000 eV                                      
   ICORE  =        2    local potential                                         
   LCOR   =        T    correct aug charges                                     
   LPAW   =        T    paw PP                                                  
   EAUG   =  613.614                                                            
   RMAX   =    1.555    core radius for proj-oper                               
   RAUG   =    1.300    factor for augmentation sphere                          
   RDEP   =    1.539    radius for radial grids                                 
   RDEPT  =    1.299    core radius for aug-charge                              
                                                                                
   Atomic configuration                                                         
    4 entries                                                                   
     n  l   j            E        occ.                                          
     1  0  0.50      -663.3661   2.0000                                         
     2  0  0.50       -29.8995   2.0000                                         
     2  1  0.50       -11.1114   5.0000                                         
     3  2  1.50       -10.8847   0.0000                                         
   Description                                                                  
     l       E           TYP  RCUT    TYP  RCUT                                 
     0    -29.8995018     23  1.200                                             
     0     -9.5240782     23  1.200                                             
     1    -11.1113914     23  1.520                                             
     1      1.3605826     23  1.520                                             
     2    -10.8846608      7  1.500                                             
  local pseudopotential read in
  partial core-charges read in
  partial kinetic energy density read in
  atomic valenz-charges read in
  non local Contribution for L=           0  read in
    real space projection operators read in
  non local Contribution for L=           0  read in
    real space projection operators read in
  non local Contribution for L=           1  read in
    real space projection operators read in
  non local Contribution for L=           1  read in
    real space projection operators read in
    PAW grid and wavefunctions read in
 
   number of l-projection  operators is LMAX  =           4
   number of lm-projection operators is LMMAX =           8
 
 POTCAR:    PAW_PBE N 08Apr2002                   
   VRHFIN =N: s2p3                                                              
   LEXCH  = PE                                                                  
   EATOM  =   264.5486 eV,   19.4438 Ry                                         
                                                                                
   TITEL  = PAW_PBE N 08Apr2002                                                 
   LULTRA =        F    use ultrasoft PP ?                                      
   IUNSCR =        1    unscreen: 0-lin 1-nonlin 2-no                           
   RPACOR =    1.200    partial core radius                                     
   POMASS =   14.001; ZVAL   =    5.000    mass and valenz                      
   RCORE  =    1.500    outmost cutoff radius                                   
   RWIGS  =    1.400; RWIGS  =    0.741    wigner-seitz radius (au A)           
   ENMAX  =  400.000; ENMIN  =  300.000 eV                                      
   ICORE  =        2    local potential                                         
   LCOR   =        T    correct aug charges                                     
   LPAW   =        T    paw PP                                                  
   EAUG   =  627.112                                                            
   DEXC   =    0.000                                                            
   RMAX   =    1.529    core radius for proj-oper                               
   RAUG   =    1.300    factor for augmentation sphere                          
   RDEP   =    1.514    radius for radial grids                                 
   RDEPT  =    1.338    core radius for aug-charge                              
                                                                                
   Atomic configuration                                                         
    4 entries                                                                   
     n  l   j            E        occ.                                          
     1  0  0.50      -384.7179   2.0000                                         
     2  0  0.50       -18.5828   2.0000                                         
     2  1  0.50        -7.0898   3.0000                                         
     3  2  1.50        -6.8029   0.0000                                         
   Description                                                                  
     l       E           TYP  RCUT    TYP  RCUT                                 
     0    -18.5828119     23  1.200                                             
     0    -13.5018863     23  1.200                                             
     1     -7.0897853     23  1.500                                             
     1      9.5240782     23  1.500                                             
     2     -6.8029130      7  1.500                                             
  local pseudopotential read in
  partial core-charges read in
  partial kinetic energy density read in
  atomic valenz-charges read in
  non local Contribution for L=           0  read in
    real space projection operators read in
  non local Contribution for L=           0  read in
    real space projection operators read in
  non local Contribution for L=           1  read in
    real space projection operators read in
  non local Contribution for L=           1  read in
    real space projection operators read in
    PAW grid and wavefunctions read in
 
   number of l-projection  operators is LMAX  =           4
   number of lm-projection operators is LMMAX =           8
 
 POTCAR:    PAW_PBE O 08Apr2002                   
   VRHFIN =O: s2p4                                                              
   LEXCH  = PE                                                                  
   EATOM  =   432.3788 eV,   31.7789 Ry                                         
                                                                                
   TITEL  = PAW_PBE O 08Apr2002                                                 
   LULTRA =        F    use ultrasoft PP ?                                      
   IUNSCR =        1    unscreen: 0-lin 1-nonlin 2-no                           
   RPACOR =    1.200    partial core radius                                     
   POMASS =   16.000; ZVAL   =    6.000    mass and valenz                      
   RCORE  =    1.520    outmost cutoff radius                                   
   RWIGS  =    1.550; RWIGS  =    0.820    wigner-seitz radius (au A)           
   ENMAX  =  400.000; ENMIN  =  300.000 eV                                      
   ICORE  =        2    local potential                                         
   LCOR   =        T    correct aug charges                                     
   LPAW   =        T    paw PP                                                  
   EAUG   =  605.392                                                            
   DEXC   =    0.000                                                            
   RMAX   =    1.553    core radius for proj-oper                               
   RAUG   =    1.300    factor for augmentation sphere                          
   RDEP   =    1.550    radius for radial grids                                 
   RDEPT  =    1.329    core radius for aug-charge                              
                                                                                
   Atomic configuration                                                         
    4 entries                                                                   
     n  l   j            E        occ.                                          
     1  0  0.50      -514.6923   2.0000                                         
     2  0  0.50       -23.9615   2.0000                                         
     2  1  0.50        -9.0305   4.0000                                         
     3  2  1.50        -9.5241   0.0000                                         
   Description                                                                  
     l       E           TYP  RCUT    TYP  RCUT                                 
     0    -23.9615318     23  1.200                                             
     0     -9.5240782     23  1.200                                             
     1     -9.0304911     23  1.520                                             
     1      8.1634956     23  1.520                                             
     2     -9.5240782      7  1.500                                             
  local pseudopotential read in
  partial core-charges read in
  partial kinetic energy density read in
  kinetic energy density of atom read in
  atomic valenz-charges read in
  non local Contribution for L=           0  read in
    real space projection operators read in
  non local Contribution for L=           0  read in
    real space projection operators read in
  non local Contribution for L=           1  read in
    real space projection operators read in
  non local Contribution for L=           1  read in
    real space projection operators read in
    PAW grid and wavefunctions read in
 
   number of l-projection  operators is LMAX  =           4
   number of lm-projection operators is LMMAX =           8
 
 Optimization of the real space projectors (new method)

 maximal supplied QI-value         = 22.11
 optimisation between [QCUT,QGAM] = [ 11.94, 23.88] = [ 39.92,159.67] Ry 
 Optimized for a Real-space Cutoff    1.18 Angstroem

   l    n(q)    QCUT    max X(q) W(low)/X(q) W(high)/X(q)  e(spline) 
   0      8    11.939    53.033    0.11E-03    0.34E-03    0.60E-07
   0      8    11.939    34.740    0.11E-03    0.34E-03    0.59E-07
   1      8    11.939    30.949    0.22E-03    0.20E-03    0.17E-06
   1      8    11.939    19.518    0.20E-03    0.18E-03    0.16E-06
 Optimization of the real space projectors (new method)

 maximal supplied QI-value         = 25.13
 optimisation between [QCUT,QGAM] = [ 11.81, 23.88] = [ 39.08,159.64] Ry 
 Optimized for a Real-space Cutoff    1.18 Angstroem

   l    n(q)    QCUT    max X(q) W(low)/X(q) W(high)/X(q)  e(spline) 
   0      8    11.813   115.676    0.10E-03    0.16E-03    0.35E-06
   0      8    11.813    87.132    0.10E-03    0.16E-03    0.35E-06
   1      8    11.813     4.429    0.16E-03    0.13E-04    0.22E-06
   1      8    11.813     2.733    0.13E-03    0.10E-04    0.18E-06
 Optimization of the real space projectors (new method)

 maximal supplied QI-value         = 24.76
 optimisation between [QCUT,QGAM] = [ 11.88, 24.01] = [ 39.54,161.47] Ry 
 Optimized for a Real-space Cutoff    1.18 Angstroem

   l    n(q)    QCUT    max X(q) W(low)/X(q) W(high)/X(q)  e(spline) 
   0      8    11.883    14.049    0.56E-04    0.86E-04    0.22E-06
   0      8    11.883     8.945    0.81E-04    0.11E-03    0.30E-06
   1      8    11.883     7.086    0.16E-03    0.15E-04    0.31E-06
   1      8    11.883     6.747    0.15E-03    0.14E-04    0.28E-06
 Optimization of the real space projectors (new method)

 maximal supplied QI-value         = 25.13
 optimisation between [QCUT,QGAM] = [ 11.81, 23.88] = [ 39.08,159.64] Ry 
 Optimized for a Real-space Cutoff    1.41 Angstroem

   l    n(q)    QCUT    max X(q) W(low)/X(q) W(high)/X(q)  e(spline) 
   0     10    11.813    79.467    0.48E-04    0.30E-04    0.67E-06
   0     10    11.813    66.151    0.47E-04    0.30E-04    0.67E-06
   1     10    11.813    20.169    0.11E-03    0.17E-03    0.11E-05
   1     10    11.813    14.454    0.11E-03    0.17E-03    0.11E-05
 Optimization of the real space projectors (new method)

 maximal supplied QI-value         = 24.76
 optimisation between [QCUT,QGAM] = [ 11.88, 24.01] = [ 39.54,161.47] Ry 
 Optimized for a Real-space Cutoff    1.18 Angstroem

   l    n(q)    QCUT    max X(q) W(low)/X(q) W(high)/X(q)  e(spline) 
   0      8    11.883    20.381    0.86E-04    0.11E-03    0.31E-06
   0      8    11.883    15.268    0.94E-04    0.12E-03    0.33E-06
   1      8    11.883     5.964    0.19E-03    0.18E-04    0.33E-06
   1      8    11.883     5.382    0.17E-03    0.20E-04    0.29E-06
  PAW_PBE B 06Sep2000                   :
 energy of atom  1       EATOM=  -71.1703
 kinetic energy error for atom=    0.0009 (will be added to EATOM!!)
  PAW_PBE C 08Apr2002                   :
 energy of atom  2       EATOM= -147.1560
 kinetic energy error for atom=    0.0066 (will be added to EATOM!!)
  PAW_PBE F 08Apr2002                   :
 energy of atom  3       EATOM= -659.6475
 kinetic energy error for atom=    0.0296 (will be added to EATOM!!)
  PAW_PBE N 08Apr2002                   :
 energy of atom  4       EATOM= -264.5486
 kinetic energy error for atom=    0.0116 (will be added to EATOM!!)
  PAW_PBE O 08Apr2002                   :
 energy of atom  5       EATOM= -432.3788
 kinetic energy error for atom=    0.0194 (will be added to EATOM!!)
 
 
 POSCAR: B C F N O                               
  positions in direct lattice
  velocities in cartesian coordinates

 METAGGA = SCAN     LMAXTAU =  6    LMIXTAU =  F

 exchange correlation table for  LEXCH =        8
   RHO(1)=    0.500       N(1)  =     2000
   RHO(2)=  100.500       N(2)  =     4000

 VTST: version 3.1, (03/28/14)

 CHAIN: initializing optimizer
 
 OPT: Using VASP Conjugate-Gradient optimizer
 CHAIN: Read ICHAIN            0
 
 POSCAR: B C F N O                               
  positions in direct lattice
  velocities in cartesian coordinates
 


--------------------------------------------------------------------------------------------------------


 ion  position               nearest neighbor table
   1  0.083  0.041  0.501-  92 1.45  73 1.45  77 1.45
   2  0.083  0.166  0.501-  73 1.45  74 1.45  78 1.45
   3  0.083  0.291  0.501-  74 1.45  75 1.45  79 1.45
   4  0.083  0.416  0.501-  75 1.45  76 1.45  80 1.45
   5  0.208  0.041  0.501-  96 1.45  81 1.45  77 1.45
   6  0.208  0.166  0.501-  77 1.45  82 1.45  78 1.45
   7  0.208  0.291  0.501-  79 1.45  78 1.45  83 1.45
   8  0.208  0.416  0.501-  80 1.45  79 1.45  84 1.45
   9  0.333  0.041  0.501- 100 1.45  85 1.45  81 1.45
  10  0.333  0.166  0.501-  81 1.45  86 1.45  82 1.45
  11  0.333  0.291  0.501-  87 1.45  82 1.45  83 1.45
  12  0.333  0.416  0.501-  88 1.45  84 1.45  83 1.45
  13  0.458  0.041  0.501- 104 1.45 105 1.45  85 1.45
  14  0.458  0.166  0.501-  85 1.45 106 1.45  86 1.45
  15  0.458  0.291  0.501- 107 1.45  86 1.45  87 1.45
  16  0.458  0.416  0.501- 108 1.45  87 1.45  88 1.45
  17  0.083  0.541  0.501-  76 1.45  93 1.45  89 1.45
  18  0.083  0.666  0.501-  89 1.45  94 1.45  90 1.45
  19  0.083  0.791  0.501-  90 1.45  95 1.45  91 1.45
  20  0.083  0.916  0.501-  91 1.45  96 1.45  92 1.45
  21  0.208  0.541  0.501-  80 1.45  97 1.45  93 1.45
  22  0.208  0.666  0.501-  93 1.45  98 1.45  94 1.45
  23  0.208  0.791  0.501-  94 1.45  99 1.45  95 1.45
  24  0.208  0.916  0.501-  95 1.45 100 1.45  96 1.45
  25  0.333  0.541  0.501- 101 1.45  84 1.45  97 1.45
  26  0.333  0.666  0.501-  97 1.45 102 1.45  98 1.45
  27  0.333  0.791  0.501-  98 1.45 103 1.45  99 1.45
  28  0.333  0.916  0.501-  99 1.45 104 1.45 100 1.45
  29  0.458  0.541  0.501- 121 1.45  88 1.45 101 1.45
  30  0.458  0.666  0.501- 101 1.45 122 1.45 102 1.45
  31  0.458  0.791  0.501- 102 1.45 123 1.45 103 1.45
  32  0.458  0.916  0.501- 103 1.45 124 1.45 104 1.45
  33  0.583  0.041  0.501- 124 1.45 109 1.45 105 1.45
  34  0.583  0.166  0.501- 105 1.45 110 1.45 106 1.45
  35  0.583  0.291  0.501- 106 1.45 111 1.45 107 1.45
  36  0.583  0.416  0.501- 107 1.45 112 1.45 108 1.45
  37  0.708  0.041  0.501- 128 1.45 113 1.45 109 1.45
  38  0.708  0.166  0.501- 109 1.45 114 1.45 110 1.45
  39  0.708  0.291  0.501- 110 1.45 115 1.45 111 1.45
  40  0.708  0.416  0.501- 111 1.45 116 1.45 112 1.45
  41  0.833  0.041  0.501- 132 1.45 117 1.45 113 1.45
  42  0.833  0.166  0.501- 113 1.45 118 1.45 114 1.45
  43  0.833  0.291  0.501- 114 1.45 119 1.45 115 1.45
  44  0.833  0.416  0.501- 115 1.45 120 1.45 116 1.45
  45  0.958  0.041  0.501- 136 1.45 117 1.45  73 1.45
  46  0.958  0.166  0.501- 117 1.45 118 1.45  74 1.45
  47  0.958  0.291  0.501- 118 1.45 119 1.45  75 1.45
  48  0.958  0.416  0.501- 119 1.45  76 1.45 120 1.45
  49  0.583  0.541  0.501- 108 1.45 125 1.45 121 1.45
  50  0.583  0.666  0.501- 121 1.45 126 1.45 122 1.45
  51  0.583  0.791  0.501- 122 1.45 127 1.45 123 1.45
  52  0.583  0.916  0.501- 123 1.45 128 1.45 124 1.45
  53  0.708  0.541  0.501- 112 1.45 129 1.45 125 1.45
  54  0.708  0.666  0.501- 125 1.45 130 1.45 126 1.45
  55  0.708  0.791  0.501- 126 1.45 131 1.45 127 1.45
  56  0.708  0.916  0.501- 127 1.45 132 1.45 128 1.45
  57  0.833  0.541  0.501- 116 1.45 133 1.45 129 1.45
  58  0.833  0.666  0.501- 129 1.45 134 1.45 130 1.45
  59  0.833  0.791  0.501- 130 1.45 135 1.45 131 1.45
  60  0.833  0.916  0.501- 131 1.45 136 1.45 132 1.45
  61  0.958  0.541  0.501- 120 1.45  89 1.45 133 1.45
  62  0.958  0.666  0.501- 133 1.45  90 1.45 134 1.45
  63  0.958  0.791  0.501- 134 1.45  91 1.45 135 1.45
  64  0.958  0.916  0.501- 135 1.45  92 1.45 136 1.45
  65  0.280  0.234  0.675-  68 1.34  70 1.34  69 1.35  66 1.53
  66  0.266  0.233  0.632-  72 1.33  71 1.33  65 1.53  67 1.94
  67  0.257  0.321  0.619- 138 1.20 137 1.20  66 1.94
  68  0.347  0.297  0.685-  65 1.34
  69  0.283  0.171  0.686-  65 1.35
  70  0.223  0.235  0.694-  65 1.34
  71  0.325  0.238  0.613-  66 1.33
  72  0.202  0.170  0.622-  66 1.33
  73  0.041  0.083  0.501-   2 1.45   1 1.45  45 1.45
  74  0.041  0.208  0.501-   3 1.45   2 1.45  46 1.45
  75  0.041  0.333  0.501-   4 1.45   3 1.45  47 1.45
  76  0.041  0.458  0.501-  17 1.45  48 1.45   4 1.45
  77  0.166  0.083  0.501-   6 1.45   1 1.45   5 1.45
  78  0.166  0.208  0.501-   7 1.45   6 1.45   2 1.45
  79  0.166  0.333  0.501-   7 1.45   8 1.45   3 1.45
  80  0.166  0.458  0.501-  21 1.45   8 1.45   4 1.45
  81  0.291  0.083  0.501-  10 1.45   5 1.45   9 1.45
  82  0.291  0.208  0.501-  11 1.45   6 1.45  10 1.45
  83  0.291  0.333  0.501-   7 1.45  11 1.45  12 1.45
  84  0.291  0.458  0.501-  12 1.45  25 1.45   8 1.45
  85  0.416  0.083  0.501-  14 1.45   9 1.45  13 1.45
  86  0.416  0.208  0.501-  10 1.45  15 1.45  14 1.45
  87  0.416  0.333  0.501-  11 1.45  16 1.45  15 1.45
  88  0.416  0.458  0.501-  12 1.45  29 1.45  16 1.45
  89  0.041  0.583  0.501-  18 1.45  61 1.45  17 1.45
  90  0.041  0.708  0.501-  19 1.45  62 1.45  18 1.45
  91  0.041  0.833  0.501-  20 1.45  63 1.45  19 1.45
  92  0.041  0.958  0.501-   1 1.45  64 1.45  20 1.45
  93  0.166  0.583  0.501-  22 1.45  17 1.45  21 1.45
  94  0.166  0.708  0.501-  23 1.45  18 1.45  22 1.45
  95  0.166  0.833  0.501-  24 1.45  19 1.45  23 1.45
  96  0.166  0.958  0.501-   5 1.45  20 1.45  24 1.45
  97  0.291  0.583  0.501-  26 1.45  25 1.45  21 1.45
  98  0.291  0.708  0.501-  27 1.45  22 1.45  26 1.45
  99  0.291  0.833  0.501-  28 1.45  23 1.45  27 1.45
 100  0.291  0.958  0.501-   9 1.45  24 1.45  28 1.45
 101  0.416  0.583  0.501-  30 1.45  25 1.45  29 1.45
 102  0.416  0.708  0.501-  31 1.45  26 1.45  30 1.45
 103  0.416  0.833  0.501-  32 1.45  27 1.45  31 1.45
 104  0.416  0.958  0.501-  13 1.45  28 1.45  32 1.45
 105  0.541  0.083  0.501-  34 1.45  13 1.45  33 1.45
 106  0.541  0.208  0.501-  35 1.45  14 1.45  34 1.45
 107  0.541  0.333  0.501-  15 1.45  36 1.45  35 1.45
 108  0.541  0.458  0.501-  16 1.45  49 1.45  36 1.45
 109  0.666  0.083  0.501-  38 1.45  33 1.45  37 1.45
 110  0.666  0.208  0.501-  39 1.45  34 1.45  38 1.45
 111  0.666  0.333  0.501-  40 1.45  35 1.45  39 1.45
 112  0.666  0.458  0.501-  53 1.45  36 1.45  40 1.45
 113  0.791  0.083  0.501-  42 1.45  37 1.45  41 1.45
 114  0.791  0.208  0.501-  43 1.45  38 1.45  42 1.45
 115  0.791  0.333  0.501-  44 1.45  39 1.45  43 1.45
 116  0.791  0.458  0.501-  57 1.45  40 1.45  44 1.45
 117  0.916  0.083  0.501-  46 1.45  41 1.45  45 1.45
 118  0.916  0.208  0.501-  47 1.45  42 1.45  46 1.45
 119  0.916  0.333  0.501-  48 1.45  43 1.45  47 1.45
 120  0.916  0.458  0.501-  61 1.45  44 1.45  48 1.45
 121  0.541  0.583  0.501-  50 1.45  29 1.45  49 1.45
 122  0.541  0.708  0.501-  51 1.45  30 1.45  50 1.45
 123  0.541  0.833  0.501-  52 1.45  31 1.45  51 1.45
 124  0.541  0.958  0.501-  33 1.45  32 1.45  52 1.45
 125  0.666  0.583  0.501-  54 1.45  49 1.45  53 1.45
 126  0.666  0.708  0.501-  55 1.45  50 1.45  54 1.45
 127  0.666  0.833  0.501-  56 1.45  51 1.45  55 1.45
 128  0.666  0.958  0.501-  37 1.45  52 1.45  56 1.45
 129  0.791  0.583  0.501-  58 1.45  53 1.45  57 1.45
 130  0.791  0.708  0.501-  59 1.45  54 1.45  58 1.45
 131  0.791  0.833  0.501-  60 1.45  55 1.45  59 1.45
 132  0.791  0.958  0.501-  41 1.45  56 1.45  60 1.45
 133  0.916  0.583  0.501-  62 1.45  57 1.45  61 1.45
 134  0.916  0.708  0.501-  63 1.45  58 1.45  62 1.45
 135  0.916  0.833  0.501-  64 1.45  59 1.45  63 1.45
 136  0.916  0.958  0.501-  45 1.45  60 1.45  64 1.45
 137  0.322  0.372  0.615-  67 1.20
 138  0.189  0.297  0.618-  67 1.20
 

IMPORTANT INFORMATION: All symmetrisations will be switched off!
NOSYMM: (Re-)initialisation of all symmetry stuff for point group C_1.

 
 
 KPOINTS: K-Point Grid                            

Automatic generation of k-mesh.
Space group operators:
 irot       det(A)        alpha          n_x          n_y          n_z        tau_x        tau_y        tau_z
    1     1.000000     0.000001     1.000000     0.000000     0.000000     0.000000     0.000000     0.000000
 
 Subroutine IBZKPT returns following result:
 ===========================================
 
 Found      6 irreducible k-points:
 
 Following reciprocal coordinates:
            Coordinates               Weight
  0.250000  0.250000  0.000000     16.000000
  0.500000 -0.250000  0.000000     16.000000
  0.250000  0.500000  0.000000     16.000000
 -0.250000  0.250000  0.000000     16.000000
 -0.000000  0.250000  0.000000     16.000000
  0.250000 -0.000000  0.000000     16.000000
 
 Following cartesian coordinates:
            Coordinates               Weight
  0.024879  0.000000  0.000000     16.000000
  0.012439 -0.021546  0.000000     16.000000
  0.037318  0.007182  0.000000     16.000000
  0.000000  0.014364  0.000000     16.000000
  0.012439  0.007182  0.000000     16.000000
  0.012439 -0.007182  0.000000     16.000000
 


--------------------------------------------------------------------------------------------------------




 Dimension of arrays:
   k-points           NKPTS =      6   k-points in BZ     NKDIM =      6   number of bands    NBANDS=    432
   number of dos      NEDOS =   1200   number of ions     NIONS =    138
   non local maximal  LDIM  =      4   non local SUM 2l+1 LMDIM =      8
   total plane-waves  NPLWV = ******
   max r-space proj   IRMAX =   6620   max aug-charges    IRDMAX=   9003
   dimension x,y,z NGX =   160 NGY =  160 NGZ =  270
   dimension x,y,z NGXF=   320 NGYF=  320 NGZF=  540
   support grid    NGXF=   320 NGYF=  320 NGZF=  540
   ions per type =              64   3   5  64   2
   NGX,Y,Z   is equivalent  to a cutoff of  13.24, 13.24, 12.82 a.u.
   NGXF,Y,Z  is equivalent  to a cutoff of  26.47, 26.47, 25.65 a.u.

 SYSTEM =  hBN                                     
 POSCAR =  B C F N O                               

 Startparameter for this run:
   NWRITE =      2    write-flag & timer
   PREC   = accura    normal or accurate (medium, high low for compatibility)
   ISTART =      1    job   : 0-new  1-cont  2-samecut
   ICHARG =      0    charge: 1-file 2-atom 10-const
   ISPIN  =      2    spin polarized calculation?
   LNONCOLLINEAR =      F non collinear calculations
   LSORBIT =      F    spin-orbit coupling
   INIWAV =      1    electr: 0-lowe 1-rand  2-diag
   LASPH  =      T    aspherical Exc in radial PAW
   METAGGA=      F    non-selfconsistent MetaGGA calc.

 Electronic Relaxation 1
   ENCUT  =  550.0 eV  40.42 Ry    6.36 a.u.  38.43 38.43 66.93*2*pi/ulx,y,z
   ENINI  =  550.0     initial cutoff
   ENAUG  =  644.9 eV  augmentation charge cutoff
   NELM   =    100;   NELMIN=  2; NELMDL=  0     # of ELM steps 
   EDIFF  = 0.1E-04   stopping-criterion for ELM
   LREAL  =      T    real-space projection
   NLSPLINE    = F    spline interpolate recip. space projectors
   LCOMPAT=      F    compatible to vasp.4.4
   GGA_COMPAT  = T    GGA compatible to vasp.4.4-vasp.4.6
   LMAXPAW     = -100 max onsite density
   LMAXMIX     =    2 max onsite mixed and CHGCAR
   VOSKOWN=      0    Vosko Wilk Nusair interpolation
   ROPT   =   -0.00025  -0.00025  -0.00025  -0.00025
   ROPT   =   -0.00025
 Ionic relaxation
   EDIFFG = -.5E-01   stopping-criterion for IOM
   NSW    =      0    number of steps for IOM
   NBLOCK =      1;   KBLOCK =      1    inner block; outer block 
   IBRION =     -1    ionic relax: 0-MD 1-quasi-New 2-CG
   NFREE  =      1    steps in history (QN), initial steepest desc. (CG)
   ISIF   =      2    stress and relaxation
   IWAVPR =     10    prediction:  0-non 1-charg 2-wave 3-comb
   ISYM   =      0    0-nonsym 1-usesym 2-fastsym
   LCORR  =      T    Harris-Foulkes like correction to forces

   POTIM  = 0.5000    time-step for ionic-motion
   TEIN   =    0.0    initial temperature
   TEBEG  =    0.0;   TEEND  =   0.0 temperature during run
   SMASS  =  -3.00    Nose mass-parameter (am)
   estimated Nose-frequenzy (Omega)   =  0.10E-29 period in steps =****** mass=  -0.923E-26a.u.
   SCALEE = 1.0000    scale energy and forces
   NPACO  =    256;   APACO  = 16.0  distance and # of slots for P.C.
   PSTRESS=    0.0 pullay stress

  Mass of Ions in am
   POMASS =  10.81 12.01 19.00 14.00 16.00
  Ionic Valenz
   ZVAL   =   3.00  4.00  7.00  5.00  6.00
  Atomic Wigner-Seitz radii
   RWIGS  =  -1.00 -1.00 -1.00 -1.00 -1.00
  virtual crystal weights 
   VCA    =   1.00  1.00  1.00  1.00  1.00
   NELECT =     571.0000    total number of electrons
   NUPDOWN=      -1.0000    fix difference up-down

 DOS related values:
   EMIN   = -10.00;   EMAX   =  5.00  energy-range for DOS
   EFERMI =   0.00
   ISMEAR =     0;   SIGMA  =   0.05  broadening in eV -4-tet -1-fermi 0-gaus

 Electronic relaxation 2 (details)
   IALGO  =     68    algorithm
   LDIAG  =      T    sub-space diagonalisation (order eigenvalues)
   LSUBROT=      F    optimize rotation matrix (better conditioning)
   TURBO    =      0    0=normal 1=particle mesh
   IRESTART =      0    0=no restart 2=restart with 2 vectors
   NREBOOT  =      0    no. of reboots
   NMIN     =      0    reboot dimension
   EREF     =   0.00    reference energy to select bands
   IMIX   =      4    mixing-type and parameters
     AMIX     =   0.40;   BMIX     =  1.00
     AMIX_MAG =   1.60;   BMIX_MAG =  1.00
     AMIN     =   0.10
     WC   =   100.;   INIMIX=   1;  MIXPRE=   1;  MAXMIX= -45

 Intra band minimization:
   WEIMIN = 0.0000     energy-eigenvalue tresh-hold
   EBREAK =  0.58E-08  absolut break condition
   DEPER  =   0.30     relativ break condition  

   TIME   =   0.40     timestep for ELM

  volume/ion in A,a.u.               =      88.72       598.69
  Fermi-wavevector in a.u.,A,eV,Ry     =   0.589286  1.113589  4.724734  0.347258
  Thomas-Fermi vector in A             =   1.636881
 
 Write flags
   LWAVE        =      T    write WAVECAR
   LDOWNSAMPLE  =      F    k-point downsampling of WAVECAR
   LCHARG       =      T    write CHGCAR
   LVTOT        =      F    write LOCPOT, total local potential
   LVHAR        =      T    write LOCPOT, Hartree potential only
   LELF         =      F    write electronic localiz. function (ELF)
   LORBIT       =     11    0 simple, 1 ext, 2 COOP (PROOUT), +10 PAW based schemes


 Dipole corrections
   LMONO  =      F    monopole corrections only (constant potential shift)
   LDIPOL =      F    correct potential (dipole corrections)
   IDIPOL =      0    1-x, 2-y, 3-z, 4-all directions 
   EPSILON=  1.0000000 bulk dielectric constant

 Exchange correlation treatment:
   GGA     =    --    GGA type
   LEXCH   =     8    internal setting for exchange type
   VOSKOWN=      0    Vosko Wilk Nusair interpolation
   LHFCALC =     F    Hartree Fock is set to
   LHFONE  =     F    Hartree Fock one center treatment
   AEXX    =    0.0000 exact exchange contribution

 Linear response parameters
   LEPSILON=     F    determine dielectric tensor
   LRPA    =     F    only Hartree local field effects (RPA)
   LNABLA  =     F    use nabla operator in PAW spheres
   LVEL    =     F    velocity operator in full k-point grid
   LINTERFAST=   F  fast interpolation
   KINTER  =     0    interpolate to denser k-point grid
   CSHIFT  =0.1000    complex shift for real part using Kramers Kronig
   OMEGAMAX=  -1.0    maximum frequency
   DEG_THRESHOLD= 0.2000000E-02 threshold for treating states as degnerate
   RTIME   =   -0.100 relaxation time in fs
  (WPLASMAI=    0.000 imaginary part of plasma frequency in eV, 0.658/RTIME)
   DFIELD  = 0.0000000 0.0000000 0.0000000 field for delta impulse in time
 
 Orbital magnetization related:
   ORBITALMAG=     F  switch on orbital magnetization
   LCHIMAG   =     F  perturbation theory with respect to B field
   DQ        =  0.001000  dq finite difference perturbation B field
   LLRAUG    =     F  two centre corrections for induced B field

 Solvation model:
   LSOL    =     T         switch on solvation model
   EB_K    = 78.400000     relative permittivity of the bulk solvent
   SIGMA_K =  0.600000     width of the dielectric cavity
   NC_K    =  0.002500     cutoff charge density
   TAU     =  0.000000     cavity surface tension
   LAMBDA_D_K    =  3.040000     Debye length in Angstroms
   LRHOB     =     F     write boundcharge  density
   LRHOION     =     F     write ioniccharge density



--------------------------------------------------------------------------------------------------------


 Static calculation
 charge density and potential will be updated during run
 spin polarized calculation
 RMM-DIIS sequential band-by-band and
  variant of blocked Davidson during initial phase
 perform sub-space diagonalisation
    before iterative eigenvector-optimisation
 modified Broyden-mixing scheme, WC =      100.0
 initial mixing is a Kerker type mixing with AMIX =  0.4000 and BMIX =      1.0000
 Hartree-type preconditioning will be used
 using additional bands          146
 real space projection scheme for non local part
 use partial core corrections
 calculate Harris-corrections to forces 
   (improved forces if not selfconsistent)
 use gradient corrections 
 use of overlap-Matrix (Vanderbilt PP)
 Gauss-broadening in eV      SIGMA  =   0.05


--------------------------------------------------------------------------------------------------------


  energy-cutoff  :      550.00
  volume of cell :    12242.83
      direct lattice vectors                 reciprocal lattice vectors
    10.048700000-17.405000000  0.000000000     0.049757680 -0.028727377  0.000000000
    10.048700000 17.405000000  0.000000000     0.049757680  0.028727377  0.000000000
     0.000000000  0.000000000 35.000000000     0.000000000  0.000000000  0.028571429

  length of vectors
    20.097522153 20.097522153 35.000000000     0.057455104  0.057455104  0.028571429


 
 old parameters found on file WAVECAR:
  energy-cutoff  :      550.00
  volume of cell :    12242.83
      direct lattice vectors                 reciprocal lattice vectors
    10.048700000-17.405000000  0.000000000     0.049757680 -0.028727377  0.000000000
    10.048700000 17.405000000  0.000000000     0.049757680  0.028727377  0.000000000
     0.000000000  0.000000000 35.000000000     0.000000000  0.000000000  0.028571429

  length of vectors

 
 k-points in units of 2pi/SCALE and weight: K-Point Grid                            
   0.02487884  0.00000000  0.00000000       0.167
   0.01243942 -0.02154553  0.00000000       0.167
   0.03731826  0.00718184  0.00000000       0.167
   0.00000000  0.01436369  0.00000000       0.167
   0.01243942  0.00718184  0.00000000       0.167
   0.01243942 -0.00718184  0.00000000       0.167
 
 k-points in reciprocal lattice and weights: K-Point Grid                            
   0.25000000  0.25000000  0.00000000       0.167
   0.50000000 -0.25000000  0.00000000       0.167
   0.25000000  0.50000000  0.00000000       0.167
  -0.25000000  0.25000000  0.00000000       0.167
  -0.00000000  0.25000000  0.00000000       0.167
   0.25000000 -0.00000000  0.00000000       0.167
 
 position of ions in fractional coordinates (direct lattice) 
   0.08309299  0.04139253  0.50137931
   0.08309142  0.16639674  0.50137854
   0.08309600  0.29139987  0.50137492
   0.08309785  0.41639803  0.50138921
   0.20809646  0.04139076  0.50138108
   0.20809699  0.16639110  0.50135725
   0.20809524  0.29141195  0.50134689
   0.20810374  0.41641406  0.50137353
   0.33309793  0.04139380  0.50139758
   0.33310328  0.16639358  0.50139614
   0.33311503  0.29140813  0.50137511
   0.33311167  0.41642181  0.50138943
   0.45809715  0.04139183  0.50140220
   0.45809872  0.16639142  0.50139944
   0.45809998  0.29139602  0.50139153
   0.45810377  0.41640749  0.50138758
   0.08309847  0.54139678  0.50140033
   0.08309561  0.66639428  0.50139858
   0.08309409  0.79139275  0.50139850
   0.08309416  0.91639236  0.50139521
   0.20809988  0.54140486  0.50139348
   0.20809778  0.66640136  0.50140759
   0.20809645  0.79139706  0.50140586
   0.20809489  0.91639281  0.50140156
   0.33310564  0.54141260  0.50138545
   0.33309893  0.66640267  0.50140245
   0.33309706  0.79139887  0.50140323
   0.33309640  0.91639723  0.50140455
   0.45810293  0.54140613  0.50138483
   0.45809998  0.66640180  0.50139663
   0.45809690  0.79139661  0.50139966
   0.45809656  0.91639436  0.50139964
   0.58309796  0.04139403  0.50139807
   0.58309672  0.16639365  0.50140257
   0.58309507  0.29139592  0.50140274
   0.58309618  0.41639695  0.50140062
   0.70809840  0.04139557  0.50139993
   0.70809729  0.16639678  0.50140548
   0.70809568  0.29139802  0.50140870
   0.70809579  0.41639701  0.50140432
   0.83309730  0.04139706  0.50140002
   0.83309702  0.16639744  0.50140298
   0.83309639  0.29139729  0.50140677
   0.83309639  0.41639638  0.50140271
   0.95809517  0.04139539  0.50139376
   0.95809522  0.16639657  0.50138841
   0.95809618  0.29139606  0.50139763
   0.95809727  0.41639563  0.50139988
   0.58309914  0.54139929  0.50139806
   0.58309898  0.66639966  0.50140094
   0.58309769  0.79139724  0.50140078
   0.58309679  0.91639420  0.50139663
   0.70809563  0.54139600  0.50140158
   0.70809766  0.66639707  0.50140392
   0.70809689  0.79139668  0.50140649
   0.70809703  0.91639617  0.50140190
   0.83309635  0.54139443  0.50139613
   0.83309468  0.66639354  0.50139717
   0.83309538  0.79139740  0.50140226
   0.83309610  0.91639804  0.50140368
   0.95809700  0.54139341  0.50139628
   0.95809555  0.66639205  0.50139256
   0.95809304  0.79139154  0.50139821
   0.95809473  0.91639374  0.50139927
   0.28022430  0.23433664  0.67530565
   0.26641686  0.23255356  0.63216855
   0.25664780  0.32074748  0.61856878
   0.34659545  0.29650611  0.68482990
   0.28343597  0.17142721  0.68552704
   0.22276531  0.23458638  0.69445903
   0.32525878  0.23768508  0.61250646
   0.20150524  0.17013286  0.62228747
   0.04143529  0.08307148  0.50137480
   0.04143561  0.20807208  0.50136671
   0.04143314  0.33306953  0.50137808
   0.04143279  0.45806850  0.50139039
   0.16643402  0.08307028  0.50135663
   0.16644262  0.20807933  0.50136422
   0.16643918  0.33308021  0.50134578
   0.16643467  0.45807542  0.50137398
   0.29143177  0.08306915  0.50138502
   0.29143502  0.20807550  0.50138044
   0.29143462  0.33307393  0.50139549
   0.29143827  0.45807868  0.50137218
   0.41643085  0.08306491  0.50139300
   0.41643117  0.20806671  0.50138228
   0.41643395  0.33307235  0.50137609
   0.41643471  0.45807449  0.50136581
   0.04143174  0.58306669  0.50139149
   0.04142991  0.70806547  0.50139047
   0.04142889  0.83306549  0.50139314
   0.04143158  0.95806754  0.50138771
   0.16643335  0.58307306  0.50139312
   0.16643040  0.70806948  0.50139883
   0.16642945  0.83306673  0.50139591
   0.16643035  0.95806683  0.50138699
   0.29143431  0.58307513  0.50138562
   0.29143184  0.70807212  0.50140038
   0.29143107  0.83307008  0.50140219
   0.29142972  0.95806815  0.50139415
   0.41643564  0.58307451  0.50138026
   0.41643233  0.70807065  0.50139323
   0.41643093  0.83306744  0.50139744
   0.41643039  0.95806550  0.50139208
   0.54143129  0.08306502  0.50139186
   0.54143014  0.20806570  0.50139684
   0.54142858  0.33306708  0.50139128
   0.54143241  0.45807026  0.50138595
   0.66643276  0.08306757  0.50139272
   0.66643093  0.20806814  0.50140016
   0.66642897  0.33306853  0.50139997
   0.66642947  0.45806762  0.50139421
   0.79143286  0.08306896  0.50139328
   0.79143164  0.20806868  0.50139960
   0.79143028  0.33306824  0.50140126
   0.79143046  0.45806730  0.50139410
   0.91643302  0.08306901  0.50138848
   0.91643191  0.20806859  0.50139089
   0.91643118  0.33306749  0.50139676
   0.91643122  0.45806618  0.50139258
   0.54143440  0.58307164  0.50138642
   0.54143299  0.70807068  0.50139094
   0.54143105  0.83306749  0.50138958
   0.54143111  0.95806575  0.50138963
   0.66643269  0.58306896  0.50139700
   0.66643284  0.70806894  0.50139789
   0.66643192  0.83306798  0.50139488
   0.66643163  0.95806726  0.50139006
   0.79142998  0.58306564  0.50139078
   0.79143210  0.70806922  0.50139472
   0.79143128  0.83307042  0.50139859
   0.79143196  0.95806982  0.50139392
   0.91643104  0.58306499  0.50138283
   0.91642968  0.70806397  0.50138703
   0.91643015  0.83306671  0.50139548
   0.91643194  0.95806817  0.50139382
   0.32171192  0.37177221  0.61480170
   0.18882774  0.29682334  0.61791861
 
 position of ions in cartesian coordinates  (Angst):
   1.25091760 -0.72579655 17.54827602
   2.50703171  1.44992901 17.54824876
   3.76319667  3.62552872 17.54812223
   5.01928429  5.80108969 17.54862235
   2.50702224 -2.90151279 17.54833766
   3.76311850 -0.72589105 17.54750386
   5.01939790  1.45012736 17.54714104
   6.27559198  3.62564116 17.54807355
   3.76315505 -5.07711053 17.54891545
   5.01929412 -2.90158243 17.54886506
   6.27564589 -0.72590845 17.54812895
   7.53183711  1.45001302 17.54863014
   5.01921493 -7.25275596 17.54907685
   6.27531408 -5.07716558 17.54898047
   7.53146045 -2.90148237 17.54870342
   8.78770130 -0.72572360 17.54856535
   6.27536540  7.97668212 17.54901143
   7.53139911 10.15231337 17.54895026
   8.78745598 12.32793814 17.54894736
  10.04354024 14.50355521 17.54883250
   7.53154828  5.80117331 17.54877165
   8.78757944  7.97677383 17.54926557
  10.04361046 10.15234720 17.54920493
  11.29963960 12.32792534 17.54905472
   8.78777138  3.62558259 17.54849077
  10.04369180  5.80115157 17.54908585
  11.29972223  7.97674288 17.54911315
  12.55578665 10.15235111 17.54915929
  10.04376676  1.44989224 17.54846895
  11.29978106  3.62549321 17.54888214
  12.55578546  5.80108135 17.54898794
  13.81184686  7.97667317 17.54898726
   6.27533273 -9.42835695 17.54893243
   7.53140388 -7.25271709 17.54908978
   8.78749763 -5.07702371 17.54909598
  10.04360653 -2.90140012 17.54902179
   7.53144001-11.60396277 17.54899750
   8.78752851 -9.42829733 17.54919188
  10.04361234 -7.25262281 17.54930456
  11.29969076 -5.07701723 17.54915110
   8.78753153-13.77954268 17.54900056
  10.04361997-11.60390609 17.54910427
  11.29969966 -9.42827283 17.54923705
  12.55577800 -7.25266384 17.54909472
  10.04358074-15.95515970 17.54878154
  11.29968072-13.77951505 17.54859442
  12.55577265-11.60391564 17.54891713
  13.81186676 -9.42831703 17.54899571
  11.29974736 -0.72578595 17.54893215
  12.55583703  1.44984833 17.54903284
  13.81188717  3.62545373 17.54902727
  15.06793514  5.80104135 17.54888215
  12.55576646 -2.90140707 17.54905513
  13.81188520 -0.72579891 17.54913725
  15.06796102  1.44983293 17.54922732
  16.32404487  3.62544650 17.54906661
  13.81184547 -5.07707194 17.54886461
  15.06790726 -2.90143321 17.54890082
  16.32404061 -0.72575328 17.54907906
  17.58014179  1.44987024 17.54912884
  15.06792925 -7.25272588 17.54886982
  16.32398852 -5.07709934 17.54873947
  17.58004575 -2.90143969 17.54893752
  18.83617225 -0.72580584 17.54897439
   5.17066848 -0.79867465 23.63569779
   5.01400408 -0.58939074 22.12589941
   5.80207187  1.11565495 21.64990745
   6.46233469 -0.87180498 23.96904667
   4.57078361 -1.94951258 23.99344625
   4.59578991  0.20574561 24.30606598
   5.65685390 -1.52422027 21.43772603
   3.73447972 -0.54603625 21.78006160
   1.25113114  0.72467785 17.54811817
   2.50722793  2.90030769 17.54783501
   3.76326498  5.07593148 17.54823287
   5.01933863  7.25154440 17.54866352
   2.50719388 -1.45094596 17.54748205
   3.76345876  0.72468696 17.54774780
   5.01952050  2.90038726 17.54710235
   6.27551453  5.07600738 17.54808945
   3.76324744 -3.62655132 17.54847574
   5.01943139 -1.45087243 17.54831553
   6.27549905  0.72473226 17.54884221
   7.53167095  2.90037625 17.54802626
   5.01928306 -5.80223428 17.54875489
   6.27539188 -3.62658346 17.54837968
   7.53156389 -1.45090868 17.54816318
   8.78768061  0.72474045 17.54780344
   6.27539733  9.42715625 17.54870227
   7.53145420 11.60279182 17.54866652
   8.78753169 13.77843499 17.54875976
  10.04366682 15.95404874 17.54856981
   7.53156508  7.25161404 17.54875916
   8.78758695  9.42722833 17.54895907
  10.04363727 11.60282170 17.54885693
  11.29973480 13.77843296 17.54854476
   8.78768304  5.07600854 17.54849678
  10.04371550  7.25162404 17.54901333
  11.29977473  9.42722702 17.54907649
  12.55582920 11.60284183 17.54879537
  10.04377768  2.90034947 17.54830913
  11.29979314  5.07596496 17.54876302
  12.55583427  7.25155855 17.54891037
  13.81189689  9.42715900 17.54872288
   6.27537605 -7.97786490 17.54871512
   7.53145886 -5.80220821 17.54888954
   8.78754452 -3.62653203 17.54869486
  10.04370249 -1.45091807 17.54850839
   7.53150400-10.15347106 17.54874535
   8.78757882 -7.97780449 17.54900545
  10.04365053 -5.80213841 17.54899894
  11.29973388 -3.62653789 17.54879731
   8.78760645-12.32907381 17.54876486
  10.04367886-10.15343218 17.54898595
  11.29974830 -7.97779132 17.54904394
  12.55582814 -5.80218570 17.54879350
  10.04369605-14.50470074 17.54859679
  11.29976825-12.32906356 17.54868117
  12.55583729-10.15344488 17.54888675
  13.81191198 -7.97784350 17.54874044
  11.29982379  0.72469624 17.54852472
  12.55588750  2.90032905 17.54868303
  13.81192351  5.07593222 17.54863520
  15.06799417  7.25152589 17.54863709
  12.55586722 -1.45094571 17.54889512
  13.81195603  0.72467645 17.54892625
  15.06802464  2.90030076 17.54882074
  16.32410204  5.07591821 17.54865215
  13.81189413 -3.62658138 17.54867734
  15.06803891 -1.45093082 17.54881511
  16.32413029  0.72472929 17.54895071
  17.58021858  2.90033187 17.54878723
  15.06798577 -5.80223606 17.54839898
  16.32404931 -3.62660515 17.54854611
  17.58016913 -1.45094075 17.54884171
  18.83628925  0.72467850 17.54878355
   6.96861398  0.87129924 21.51805956
   4.88016202  1.87966337 21.62715132
 


--------------------------------------------------------------------------------------------------------


 k-point  1 :   0.2500 0.2500 0.0000  plane waves:  358590
 k-point  2 :   0.5000-0.2500 0.0000  plane waves:  358584
 k-point  3 :   0.2500 0.5000 0.0000  plane waves:  358584
 k-point  4 :  -0.2500 0.2500 0.0000  plane waves:  358603
 k-point  5 :  -0.0000 0.2500 0.0000  plane waves:  358599
 k-point  6 :   0.2500-0.0000 0.0000  plane waves:  358599

 maximum and minimum number of plane-waves per node :    358603   358584

 maximum number of plane-waves:    358603
 maximum index in each direction: 
   IXMAX=   38   IYMAX=   38   IZMAX=   66
   IXMIN=  -38   IYMIN=  -38   IZMIN=  -66


 serial   3D FFT for wavefunctions
 parallel 3D FFT for charge:
    minimum data exchange during FFTs selected (reduces bandwidth)


 total amount of memory used by VASP MPI-rank0  1926049. kBytes
=======================================================================

   base      :      30000. kBytes
   nonlr-proj:      63632. kBytes
   fftplans  :      68224. kBytes
   grid      :    1141764. kBytes
   one-center:        847. kBytes
   wavefun   :     621582. kBytes
 
     INWAV:  cpu time  142.8355: real time  144.3667
 Broyden mixing: mesh for mixing (old mesh)
   NGX = 77   NGY = 77   NGZ =133
  (NGX  =320   NGY  =320   NGZ  =540)
  gives a total of 788557 points

 charge density for first step will be calculated from the start-wavefunctions


--------------------------------------------------------------------------------------------------------


 Maximum index for non-local projection operator         6368
 Maximum index for augmentation-charges          437 (set IRDMAX)


--------------------------------------------------------------------------------------------------------


 initial charge from wavefunction
 First call to EWALD:  gamma=   0.077
 Maximum number of real-space cells 3x 3x 2
 Maximum number of reciprocal cells 2x 2x 4

    FEWALD:  cpu time    0.0047: real time    0.0047


--------------------------------------- Iteration      1(   1)  ---------------------------------------


    POTLOK:  cpu time   63.9245: real time   64.0705
    SETDIJ:  cpu time    0.3916: real time    0.3925
     EDDAV:  cpu time  225.0883: real time  225.5544
       DOS:  cpu time    0.0021: real time    0.0021
    CHARGE:  cpu time   37.3215: real time   37.3969
    MIXING:  cpu time    0.1067: real time    0.1070
    --------------------------------------------
      LOOP:  cpu time  326.8347: real time  327.5234

 eigenvalue-minimisations  : 11760
 total energy-change (2. order) :-0.1328230E+04  (-0.7048004E-02)
 number of electron     571.0000021 magnetization       0.8364622
 augmentation part       22.4611336 magnetization       0.1451917

 Broyden mixing:
  rms(total) = 0.15292E-01    rms(broyden)= 0.15261E-01
  rms(prec ) = 0.15465E-01
  weight for this iteration     100.00

 Free energy of the ion-electron system (eV)
  ---------------------------------------------------
  alpha Z        PSCENC =       143.65704873
  Ewald energy   TEWEN  =    181332.49183659
  -Hartree energ DENC   =   -203626.19716755
  -exchange      EXHF   =         0.00000000
  -V(xc)+E(xc)   XCENC  =      2560.14752417
  PAW double counting   =     67879.14681569   -68144.95268273
  entropy T*S    EENTRO =        -0.01704248
  eigenvalues    EBANDS =     -8028.30852760
  atomic energy  EATOM  =     26089.46230379
  Solvation  Ediel_sol  =       466.34028301
  ---------------------------------------------------
  free energy    TOTEN  =     -1328.22960838 eV

  energy without entropy =    -1328.21256589  energy(sigma->0) =    -1328.22108713


--------------------------------------------------------------------------------------------------------




--------------------------------------- Iteration      1(   2)  ---------------------------------------


    POTLOK:  cpu time   48.5756: real time   48.6831
    SETDIJ:  cpu time    0.3568: real time    0.3577
    EDDIAG:  cpu time   48.9531: real time   49.0280
  RMM-DIIS:  cpu time  270.7275: real time  271.3065
    ORTHCH:  cpu time    1.5338: real time    1.5371
       DOS:  cpu time    0.0015: real time    0.0015
    CHARGE:  cpu time   37.0898: real time   37.1697
    MIXING:  cpu time    0.1092: real time    0.1094
    --------------------------------------------
      LOOP:  cpu time  407.3474: real time  408.1931

 eigenvalue-minimisations  : 10806
 total energy-change (2. order) :-0.2941141E-03  (-0.1092568E-03)
 number of electron     571.0000021 magnetization       0.8366259
 augmentation part       22.4584619 magnetization       0.1493929

 Broyden mixing:
  rms(total) = 0.88739E-02    rms(broyden)= 0.88696E-02
  rms(prec ) = 0.89443E-02
  weight for this iteration     100.00

 eigenvalues of (default mixing * dielectric matrix)
  average eigenvalue GAMMA=   1.0980
  1.0980

 Free energy of the ion-electron system (eV)
  ---------------------------------------------------
  alpha Z        PSCENC =       143.65704873
  Ewald energy   TEWEN  =    181332.49183659
  -Hartree energ DENC   =   -203626.28771580
  -exchange      EXHF   =         0.00000000
  -V(xc)+E(xc)   XCENC  =      2560.20192088
  PAW double counting   =     67901.17834904   -68166.96145206
  entropy T*S    EENTRO =        -0.01735932
  eigenvalues    EBANDS =     -8028.42115918
  atomic energy  EATOM  =     26089.46230379
  Solvation  Ediel_sol  =       466.46632484
  ---------------------------------------------------
  free energy    TOTEN  =     -1328.22990249 eV

  energy without entropy =    -1328.21254317  energy(sigma->0) =    -1328.22122283


--------------------------------------------------------------------------------------------------------




--------------------------------------- Iteration      1(   3)  ---------------------------------------


    POTLOK:  cpu time   47.3848: real time   47.4957
    SETDIJ:  cpu time    0.3565: real time    0.3573
    EDDIAG:  cpu time   48.9082: real time   48.9859
  RMM-DIIS:  cpu time  273.4754: real time  274.0763
    ORTHCH:  cpu time    1.5498: real time    1.5532
       DOS:  cpu time    0.0014: real time    0.0014
    CHARGE:  cpu time   37.1666: real time   37.2438
    MIXING:  cpu time    0.1064: real time    0.1067
    --------------------------------------------
      LOOP:  cpu time  408.9490: real time  409.8203

 eigenvalue-minimisations  : 10915
 total energy-change (2. order) : 0.3352143E-03  (-0.3574762E-04)
 number of electron     571.0000021 magnetization       0.8369100
 augmentation part       22.4586180 magnetization       0.1718575

 Broyden mixing:
  rms(total) = 0.13551E-01    rms(broyden)= 0.13539E-01
  rms(prec ) = 0.14298E-01
  weight for this iteration     100.00

 eigenvalues of (default mixing * dielectric matrix)
  average eigenvalue GAMMA=   0.6813
  1.2064  0.1561

 Free energy of the ion-electron system (eV)
  ---------------------------------------------------
  alpha Z        PSCENC =       143.65704873
  Ewald energy   TEWEN  =    181332.49183659
  -Hartree energ DENC   =   -203626.09418178
  -exchange      EXHF   =         0.00000000
  -V(xc)+E(xc)   XCENC  =      2560.17805666
  PAW double counting   =     67919.64135679   -68185.40410013
  entropy T*S    EENTRO =        -0.01915332
  eigenvalues    EBANDS =     -8028.70000908
  atomic energy  EATOM  =     26089.46230379
  Solvation  Ediel_sol  =       466.55727448
  ---------------------------------------------------
  free energy    TOTEN  =     -1328.22956728 eV

  energy without entropy =    -1328.21041395  energy(sigma->0) =    -1328.21999061


--------------------------------------------------------------------------------------------------------




--------------------------------------- Iteration      1(   4)  ---------------------------------------


    POTLOK:  cpu time   48.6327: real time   48.7374
    SETDIJ:  cpu time    0.3617: real time    0.3624
    EDDIAG:  cpu time   48.9868: real time   49.0600
  RMM-DIIS:  cpu time  256.3411: real time  256.8850
    ORTHCH:  cpu time    1.5383: real time    1.5416
       DOS:  cpu time    0.0033: real time    0.0033
    CHARGE:  cpu time   37.1862: real time   37.2707
    MIXING:  cpu time    0.1131: real time    0.1133
    --------------------------------------------
      LOOP:  cpu time  393.1632: real time  393.9737

 eigenvalue-minimisations  :  9728
 total energy-change (2. order) :-0.1401184E-03  (-0.8681781E-04)
 number of electron     571.0000021 magnetization       0.8361295
 augmentation part       22.4584388 magnetization       0.1776519

 Broyden mixing:
  rms(total) = 0.19517E-01    rms(broyden)= 0.19515E-01
  rms(prec ) = 0.20494E-01
  weight for this iteration     100.00

 eigenvalues of (default mixing * dielectric matrix)
  average eigenvalue GAMMA=   0.9972
  1.8956  0.5481  0.5481

 Free energy of the ion-electron system (eV)
  ---------------------------------------------------
  alpha Z        PSCENC =       143.65704873
  Ewald energy   TEWEN  =    181332.49183659
  -Hartree energ DENC   =   -203626.13920817
  -exchange      EXHF   =         0.00000000
  -V(xc)+E(xc)   XCENC  =      2560.17383701
  PAW double counting   =     67920.63497362   -68186.39592755
  entropy T*S    EENTRO =        -0.01963997
  eigenvalues    EBANDS =     -8028.70934095
  atomic energy  EATOM  =     26089.46230379
  Solvation  Ediel_sol  =       466.61440951
  ---------------------------------------------------
  free energy    TOTEN  =     -1328.22970739 eV

  energy without entropy =    -1328.21006742  energy(sigma->0) =    -1328.21988741


--------------------------------------------------------------------------------------------------------




--------------------------------------- Iteration      1(   5)  ---------------------------------------


    POTLOK:  cpu time   49.8782: real time   49.9958
    SETDIJ:  cpu time    0.3632: real time    0.3640
    EDDIAG:  cpu time   48.9520: real time   49.0287
  RMM-DIIS:  cpu time  253.5564: real time  254.1255
    ORTHCH:  cpu time    1.5400: real time    1.5431
       DOS:  cpu time    0.0027: real time    0.0027
    CHARGE:  cpu time   37.2114: real time   37.2905
    MIXING:  cpu time    0.1102: real time    0.1104
    --------------------------------------------
      LOOP:  cpu time  391.6141: real time  392.4608

 eigenvalue-minimisations  :  9366
 total energy-change (2. order) : 0.2722994E-03  (-0.3158336E-04)
 number of electron     571.0000021 magnetization       0.8360202
 augmentation part       22.4566674 magnetization       0.1495756

 Broyden mixing:
  rms(total) = 0.37846E-02    rms(broyden)= 0.37335E-02
  rms(prec ) = 0.37629E-02
  weight for this iteration     100.00

 eigenvalues of (default mixing * dielectric matrix)
  average eigenvalue GAMMA=   0.9426
  2.2320  0.5073  0.5073  0.5239

 Free energy of the ion-electron system (eV)
  ---------------------------------------------------
  alpha Z        PSCENC =       143.65704873
  Ewald energy   TEWEN  =    181332.49183659
  -Hartree energ DENC   =   -203625.89636334
  -exchange      EXHF   =         0.00000000
  -V(xc)+E(xc)   XCENC  =      2560.16782601
  PAW double counting   =     67927.65358665   -68193.40820242
  entropy T*S    EENTRO =        -0.01744897
  eigenvalues    EBANDS =     -8028.82919785
  atomic energy  EATOM  =     26089.46230379
  Solvation  Ediel_sol  =       466.48917571
  ---------------------------------------------------
  free energy    TOTEN  =     -1328.22943509 eV

  energy without entropy =    -1328.21198613  energy(sigma->0) =    -1328.22071061


--------------------------------------------------------------------------------------------------------




--------------------------------------- Iteration      1(   6)  ---------------------------------------


    POTLOK:  cpu time   48.1678: real time   48.2794
    SETDIJ:  cpu time    0.3571: real time    0.3578
    EDDIAG:  cpu time   48.9454: real time   49.0231
  RMM-DIIS:  cpu time  248.0752: real time  248.5963
    ORTHCH:  cpu time    1.5328: real time    1.5357
       DOS:  cpu time    0.0016: real time    0.0016
    CHARGE:  cpu time   37.1431: real time   37.2181
    MIXING:  cpu time    0.1122: real time    0.1124
    --------------------------------------------
      LOOP:  cpu time  384.3350: real time  385.1244

 eigenvalue-minimisations  :  9138
 total energy-change (2. order) :-0.1803272E-03  (-0.7333626E-04)
 number of electron     571.0000021 magnetization       0.8362837
 augmentation part       22.4565407 magnetization       0.1401650

 Broyden mixing:
  rms(total) = 0.72260E-02    rms(broyden)= 0.72168E-02
  rms(prec ) = 0.75921E-02
  weight for this iteration     100.00

 eigenvalues of (default mixing * dielectric matrix)
  average eigenvalue GAMMA=   0.9613
  2.3148  0.5644  0.5644  0.8835  0.4798

 Free energy of the ion-electron system (eV)
  ---------------------------------------------------
  alpha Z        PSCENC =       143.65704873
  Ewald energy   TEWEN  =    181332.49183659
  -Hartree energ DENC   =   -203625.73738400
  -exchange      EXHF   =         0.00000000
  -V(xc)+E(xc)   XCENC  =      2560.15548378
  PAW double counting   =     67929.54997712   -68195.30245439
  entropy T*S    EENTRO =        -0.01662070
  eigenvalues    EBANDS =     -8028.97880328
  atomic energy  EATOM  =     26089.46230379
  Solvation  Ediel_sol  =       466.48899693
  ---------------------------------------------------
  free energy    TOTEN  =     -1328.22961542 eV

  energy without entropy =    -1328.21299473  energy(sigma->0) =    -1328.22130507


--------------------------------------------------------------------------------------------------------




--------------------------------------- Iteration      1(   7)  ---------------------------------------


    POTLOK:  cpu time   48.2564: real time   48.3662
    SETDIJ:  cpu time    0.3537: real time    0.3545
    EDDIAG:  cpu time   48.9761: real time   49.0515
  RMM-DIIS:  cpu time  236.5593: real time  237.0547
    ORTHCH:  cpu time    1.5280: real time    1.5310
       DOS:  cpu time    0.0016: real time    0.0016
    CHARGE:  cpu time   37.1847: real time   37.2593
    MIXING:  cpu time    0.1125: real time    0.1128
    --------------------------------------------
      LOOP:  cpu time  372.9723: real time  373.7316

 eigenvalue-minimisations  :  8647
 total energy-change (2. order) :-0.9519345E-04  (-0.1723258E-04)
 number of electron     571.0000021 magnetization       0.8363369
 augmentation part       22.4576691 magnetization       0.1495477

 Broyden mixing:
  rms(total) = 0.11596E-02    rms(broyden)= 0.11497E-02
  rms(prec ) = 0.11820E-02
  weight for this iteration     100.00

 eigenvalues of (default mixing * dielectric matrix)
  average eigenvalue GAMMA=   1.0284
  2.5384  1.3717  0.5688  0.5688  0.5613  0.5613

 Free energy of the ion-electron system (eV)
  ---------------------------------------------------
  alpha Z        PSCENC =       143.65704873
  Ewald energy   TEWEN  =    181332.49183659
  -Hartree energ DENC   =   -203625.61482478
  -exchange      EXHF   =         0.00000000
  -V(xc)+E(xc)   XCENC  =      2560.14873744
  PAW double counting   =     67930.45367372   -68196.20463032
  entropy T*S    EENTRO =        -0.01741902
  eigenvalues    EBANDS =     -8029.16623614
  atomic energy  EATOM  =     26089.46230379
  Solvation  Ediel_sol  =       466.55979937
  ---------------------------------------------------
  free energy    TOTEN  =     -1328.22971062 eV

  energy without entropy =    -1328.21229160  energy(sigma->0) =    -1328.22100111


--------------------------------------------------------------------------------------------------------




--------------------------------------- Iteration      1(   8)  ---------------------------------------


    POTLOK:  cpu time   45.2694: real time   45.3737
    SETDIJ:  cpu time    0.3547: real time    0.3555
    EDDIAG:  cpu time   48.9954: real time   49.0735
  RMM-DIIS:  cpu time  237.3749: real time  237.9112
    ORTHCH:  cpu time    1.6153: real time    1.6190
       DOS:  cpu time    0.0039: real time    0.0039
    CHARGE:  cpu time   37.1772: real time   37.2587
    MIXING:  cpu time    0.1151: real time    0.1154
    --------------------------------------------
      LOOP:  cpu time  370.9060: real time  371.7106

 eigenvalue-minimisations  :  8367
 total energy-change (2. order) :-0.3097831E-04  (-0.6747344E-05)
 number of electron     571.0000021 magnetization       0.8362939
 augmentation part       22.4579921 magnetization       0.1528094

 Broyden mixing:
  rms(total) = 0.14285E-02    rms(broyden)= 0.14242E-02
  rms(prec ) = 0.15037E-02
  weight for this iteration     100.00

 eigenvalues of (default mixing * dielectric matrix)
  average eigenvalue GAMMA=   0.9988
  2.6208  1.2735  0.5700  0.5700  0.7525  0.6474  0.5575

 Free energy of the ion-electron system (eV)
  ---------------------------------------------------
  alpha Z        PSCENC =       143.65704873
  Ewald energy   TEWEN  =    181332.49183659
  -Hartree energ DENC   =   -203625.58110777
  -exchange      EXHF   =         0.00000000
  -V(xc)+E(xc)   XCENC  =      2560.15109375
  PAW double counting   =     67931.30861755   -68197.05887291
  entropy T*S    EENTRO =        -0.01769461
  eigenvalues    EBANDS =     -8029.21749944
  atomic energy  EATOM  =     26089.46230379
  Solvation  Ediel_sol  =       466.57453273
  ---------------------------------------------------
  free energy    TOTEN  =     -1328.22974159 eV

  energy without entropy =    -1328.21204698  energy(sigma->0) =    -1328.22089429


--------------------------------------------------------------------------------------------------------




--------------------------------------- Iteration      1(   9)  ---------------------------------------


    POTLOK:  cpu time   44.9125: real time   45.0195
    SETDIJ:  cpu time    0.3587: real time    0.3595
    EDDIAG:  cpu time   49.0008: real time   49.0796
  RMM-DIIS:  cpu time  230.3896: real time  230.8722
    ORTHCH:  cpu time    1.5372: real time    1.5399
       DOS:  cpu time    0.0015: real time    0.0015
    --------------------------------------------
      LOOP:  cpu time  326.2003: real time  326.8723

 eigenvalue-minimisations  :  7968
 total energy-change (2. order) : 0.8035640E-05  (-0.2398726E-05)
 number of electron     571.0000021 magnetization       0.8362939
 augmentation part       22.4579921 magnetization       0.1528094

 Free energy of the ion-electron system (eV)
  ---------------------------------------------------
  alpha Z        PSCENC =       143.65704873
  Ewald energy   TEWEN  =    181332.49183659
  -Hartree energ DENC   =   -203625.60378256
  -exchange      EXHF   =         0.00000000
  -V(xc)+E(xc)   XCENC  =      2560.15378757
  PAW double counting   =     67931.38133162   -68197.13183068
  entropy T*S    EENTRO =        -0.01749749
  eigenvalues    EBANDS =     -8029.18511599
  atomic energy  EATOM  =     26089.46230379
  Solvation  Ediel_sol  =       466.56218487
  ---------------------------------------------------
  free energy    TOTEN  =     -1328.22973356 eV

  energy without entropy =    -1328.21223606  energy(sigma->0) =    -1328.22098481


--------------------------------------------------------------------------------------------------------




 average (electrostatic) potential at core
  the test charge radii are     0.7672  0.6991  0.7167  0.7089  0.7215
  (the norm of the test charge is              1.0000)
       1 -38.5688       2 -38.5705       3 -38.5682       4 -38.5661       5 -38.5693
       6 -38.5741       7 -38.5744       8 -38.5689       9 -38.5676      10 -38.5713
      11 -38.5743      12 -38.5712      13 -38.5662      14 -38.5675      15 -38.5690
      16 -38.5684      17 -38.5655      18 -38.5656      19 -38.5660      20 -38.5669
      21 -38.5659      22 -38.5655      23 -38.5658      24 -38.5667      25 -38.5668
      26 -38.5655      27 -38.5655      28 -38.5661      29 -38.5664      30 -38.5654
      31 -38.5653      32 -38.5656      33 -38.5656      34 -38.5660      35 -38.5664
      36 -38.5662      37 -38.5654      38 -38.5655      39 -38.5657      40 -38.5656
      41 -38.5656      42 -38.5655      43 -38.5654      44 -38.5655      45 -38.5667
      46 -38.5665      47 -38.5657      48 -38.5654      49 -38.5656      50 -38.5653
      51 -38.5652      52 -38.5654      53 -38.5654      54 -38.5653      55 -38.5653
      56 -38.5654      57 -38.5654      58 -38.5655      59 -38.5655      60 -38.5656
      61 -38.5654      62 -38.5655      63 -38.5659      64 -38.5663      65 -67.9188
      66 -66.5089      67 -65.4928      68 -92.2460      69 -92.1680      70 -92.2446
      71 -92.4658      72 -92.4550      73 -76.1237      74 -76.1235      75 -76.1217
      76 -76.1211      77 -76.1270      78 -76.1320      79 -76.1275      80 -76.1221
      81 -76.1251      82 -76.1320      83 -76.1341      84 -76.1252      85 -76.1225
      86 -76.1252      87 -76.1272      88 -76.1241      89 -76.1211      90 -76.1213
      91 -76.1217      92 -76.1226      93 -76.1211      94 -76.1212      95 -76.1217
      96 -76.1229      97 -76.1215      98 -76.1210      99 -76.1213     100 -76.1223
     101 -76.1215     102 -76.1210     103 -76.1211     104 -76.1216     105 -76.1215
     106 -76.1220     107 -76.1223     108 -76.1217     109 -76.1210     110 -76.1211
     111 -76.1213     112 -76.1212     113 -76.1210     114 -76.1210     115 -76.1210
     116 -76.1211     117 -76.1216     118 -76.1212     119 -76.1209     120 -76.1210
     121 -76.1210     122 -76.1209     123 -76.1210     124 -76.1211     125 -76.1209
     126 -76.1208     127 -76.1209     128 -76.1210     129 -76.1210     130 -76.1210
     131 -76.1211     132 -76.1211     133 -76.1211     134 -76.1212     135 -76.1214
     136 -76.1216     137 -85.9260     138 -85.9201
 
 
 
 E-fermi :  -6.1110     XC(G=0):  -1.2997     alpha+bet : -1.0975


 spin component 1

 k-point     1 :       0.2500    0.2500    0.0000
  band No.  band energies     occupation 
      1     -36.0619      1.00000
      2     -35.3332      1.00000
      3     -33.9258      1.00000
      4     -33.6047      1.00000
      5     -33.5772      1.00000
      6     -30.2744      1.00000
      7     -28.8549      1.00000
      8     -24.7400      1.00000
      9     -24.6631      1.00000
     10     -24.6615      1.00000
     11     -24.4320      1.00000
     12     -24.4315      1.00000
     13     -24.2802      1.00000
     14     -24.2061      1.00000
     15     -24.2046      1.00000
     16     -24.0568      1.00000
     17     -24.0567      1.00000
     18     -23.9838      1.00000
     19     -23.9833      1.00000
     20     -23.6241      1.00000
     21     -23.6240      1.00000
     22     -23.5549      1.00000
     23     -23.5549      1.00000
     24     -23.4148      1.00000
     25     -23.3491      1.00000
     26     -23.3476      1.00000
     27     -23.1530      1.00000
     28     -23.1525      1.00000
     29     -23.1460      1.00000
     30     -23.1459      1.00000
     31     -22.9604      1.00000
     32     -22.9604      1.00000
     33     -22.8405      1.00000
     34     -22.8404      1.00000
     35     -22.5852      1.00000
     36     -22.5851      1.00000
     37     -22.4356      1.00000
     38     -22.4355      1.00000
     39     -22.3409      1.00000
     40     -22.3406      1.00000
     41     -22.3038      1.00000
     42     -22.2624      1.00000
     43     -22.2609      1.00000
     44     -22.1422      1.00000
     45     -22.1418      1.00000
     46     -22.0100      1.00000
     47     -22.0096      1.00000
     48     -21.9798      1.00000
     49     -21.9796      1.00000
     50     -21.9658      1.00000
     51     -21.9657      1.00000
     52     -21.8273      1.00000
     53     -21.8259      1.00000
     54     -21.7668      1.00000
     55     -21.7667      1.00000
     56     -21.6159      1.00000
     57     -21.5844      1.00000
     58     -21.5842      1.00000
     59     -21.5437      1.00000
     60     -21.5421      1.00000
     61     -21.5396      1.00000
     62     -21.5395      1.00000
     63     -21.4496      1.00000
     64     -21.4492      1.00000
     65     -21.3732      1.00000
     66     -21.3718      1.00000
[...]
      3.76326      5.07593     17.54823        -0.003286     -0.002351      0.004881
      5.01934      7.25154     17.54866        -0.003656     -0.002035      0.004522
      2.50719     -1.45095     17.54748        -0.003308     -0.002040      0.006949
      3.76346      0.72469     17.54775        -0.004794     -0.001925      0.006464
      5.01952      2.90039     17.54710        -0.004551     -0.002097      0.006609
      6.27551      5.07601     17.54809        -0.003566     -0.002575      0.005232
      3.76325     -3.62655     17.54848        -0.003326     -0.001869      0.006121
      5.01943     -1.45087     17.54832        -0.004210     -0.001734      0.007612
      6.27550      0.72473     17.54884        -0.004905     -0.001887      0.006526
      7.53167      2.90038     17.54803        -0.004023     -0.002536      0.007131
      5.01928     -5.80223     17.54875        -0.003375     -0.001652      0.005364
      6.27539     -3.62658     17.54838        -0.003519     -0.001499      0.008362
      7.53156     -1.45091     17.54816        -0.003674     -0.002336      0.006574
      8.78768      0.72474     17.54780        -0.003221     -0.002046      0.007377
      6.27540      9.42716     17.54870        -0.003628     -0.001856      0.004712
      7.53145     11.60279     17.54867        -0.003411     -0.002027      0.004006
      8.78753     13.77843     17.54876        -0.003334     -0.002365      0.004030
     10.04367     15.95405     17.54857        -0.003315     -0.001836      0.003825
      7.53157      7.25161     17.54876        -0.003938     -0.002271      0.005481
      8.78759      9.42723     17.54896        -0.003300     -0.002174      0.004574
     10.04364     11.60282     17.54886        -0.003356     -0.001851      0.004827
     11.29973     13.77843     17.54854        -0.003367     -0.002073      0.004421
      8.78768      5.07601     17.54850        -0.003631     -0.002348      0.004653
     10.04372      7.25162     17.54901        -0.003607     -0.002267      0.004346
     11.29977      9.42723     17.54908        -0.003838     -0.002059      0.003683
     12.55583     11.60284     17.54880        -0.003397     -0.002347      0.005139
     10.04378      2.90035     17.54831        -0.003477     -0.002060      0.004210
     11.29979      5.07596     17.54876        -0.003510     -0.002189      0.004710
     12.55583      7.25156     17.54891        -0.003113     -0.001724      0.003393
     13.81190      9.42716     17.54872        -0.003086     -0.001538      0.005809
      6.27538     -7.97786     17.54872        -0.003302     -0.001504      0.005345
      7.53146     -5.80221     17.54889        -0.003214     -0.001755      0.004200
      8.78754     -3.62653     17.54869        -0.003235     -0.002507      0.004526
     10.04370     -1.45092     17.54851        -0.003719     -0.001866      0.004846
      7.53150    -10.15347     17.54875        -0.003759     -0.001678      0.005058
      8.78758     -7.97780     17.54901        -0.003614     -0.001956      0.004574
     10.04365     -5.80214     17.54900        -0.003744     -0.002561      0.004639
     11.29973     -3.62654     17.54880        -0.003615     -0.002324      0.005222
      8.78761    -12.32907     17.54876        -0.003715     -0.001973      0.005043
     10.04368    -10.15343     17.54899        -0.003569     -0.001850      0.004769
     11.29975     -7.97779     17.54904        -0.003540     -0.001943      0.004547
     12.55583     -5.80219     17.54879        -0.003820     -0.002172      0.004824
     10.04370    -14.50470     17.54860        -0.003300     -0.002197      0.004160
     11.29977    -12.32906     17.54868        -0.003426     -0.002463      0.004049
     12.55584    -10.15344     17.54889        -0.003256     -0.002029      0.004312
     13.81191     -7.97784     17.54874        -0.003476     -0.001799      0.004671
     11.29982      0.72470     17.54852        -0.003752     -0.001960      0.004344
     12.55589      2.90033     17.54868        -0.003501     -0.002447      0.005312
     13.81192      5.07593     17.54864        -0.003198     -0.002277      0.005145
     15.06799      7.25153     17.54864        -0.003109     -0.001729      0.004831
     12.55587     -1.45095     17.54890        -0.003784     -0.001610      0.004193
     13.81196      0.72468     17.54893        -0.003406     -0.001675      0.004983
     15.06802      2.90030     17.54882        -0.003196     -0.001561      0.005586
     16.32410      5.07592     17.54865        -0.003429     -0.002021      0.005324
     13.81189     -3.62658     17.54868        -0.003105     -0.001918      0.004742
     15.06804     -1.45093     17.54882        -0.004133     -0.002453      0.004489
     16.32413      0.72473     17.54895        -0.003788     -0.002928      0.004785
     17.58022      2.90033     17.54879        -0.003813     -0.002422      0.005331
     15.06799     -5.80224     17.54840        -0.003546     -0.001989      0.005565
     16.32405     -3.62661     17.54855        -0.003220     -0.001695      0.004828
     17.58017     -1.45094     17.54884        -0.003346     -0.002345      0.004120
     18.83629      0.72468     17.54878        -0.003162     -0.002010      0.004397
      6.96861      0.87130     21.51806        -0.028494      0.002461      0.012111
      4.88016      1.87966     21.62715        -0.007850      0.011221      0.015775
 -----------------------------------------------------------------------------------
    total drift:                                1.378768     -0.177901      0.233812


--------------------------------------------------------------------------------------------------------



  FREE ENERGIE OF THE ION-ELECTRON SYSTEM (eV)
  ---------------------------------------------------
  free  energy   TOTEN  =     -1328.22973356 eV

  energy  without entropy=    -1328.21223606  energy(sigma->0) =    -1328.22098481
 


--------------------------------------------------------------------------------------------------------


    POTLOK:  cpu time   44.7356: real time   44.8376


--------------------------------------------------------------------------------------------------------


 stress matrix after NEB project (eV)
    -47.38441      0.74837      0.29669
      0.74827    -46.54590      0.20734
      0.29541      0.20688     -0.68456
  FORCES: max atom, RMS     0.043486    0.010535
  FORCE total and by dimension    0.123761    0.031755
  Stress total and by dimension   66.435325   47.384407
 writing wavefunctions
     LOOP+:  cpu time 4369.9362: real time 4473.1054
    4ORBIT:  cpu time    0.0000: real time    0.0000
 


 total charge     
 
# of ion       s       p       d       tot
------------------------------------------
    1        0.744   1.394   0.000   2.138
    2        0.744   1.393   0.000   2.137
    3        0.744   1.393   0.000   2.138
    4        0.744   1.394   0.000   2.138
    5        0.744   1.394   0.000   2.138
    6        0.744   1.394   0.000   2.138
    7        0.744   1.394   0.000   2.138
    8        0.744   1.394   0.000   2.138
    9        0.744   1.394   0.000   2.138
   10        0.744   1.394   0.000   2.138
   11        0.744   1.394   0.000   2.138
   12        0.744   1.394   0.000   2.138
   13        0.744   1.394   0.000   2.138
   14        0.744   1.394   0.000   2.138
   15        0.744   1.394   0.000   2.138
   16        0.744   1.394   0.000   2.138
   17        0.744   1.394   0.000   2.138
   18        0.744   1.394   0.000   2.138
   19        0.744   1.394   0.000   2.138
   20        0.744   1.394   0.000   2.138
   21        0.744   1.394   0.000   2.138
   22        0.744   1.394   0.000   2.138
   23        0.744   1.394   0.000   2.138
   24        0.744   1.394   0.000   2.138
   25        0.744   1.394   0.000   2.138
   26        0.744   1.394   0.000   2.138
   27        0.744   1.394   0.000   2.138
   28        0.744   1.394   0.000   2.138
   29        0.744   1.394   0.000   2.138
   30        0.744   1.394   0.000   2.138
   31        0.744   1.394   0.000   2.138
   32        0.744   1.394   0.000   2.138
   33        0.744   1.394   0.000   2.138
   34        0.744   1.394   0.000   2.138
   35        0.744   1.394   0.000   2.138
   36        0.744   1.394   0.000   2.138
   37        0.744   1.394   0.000   2.138
   38        0.744   1.394   0.000   2.138
   39        0.744   1.394   0.000   2.138
   40        0.744   1.394   0.000   2.138
   41        0.744   1.394   0.000   2.138
   42        0.744   1.394   0.000   2.138
   43        0.744   1.394   0.000   2.138
   44        0.744   1.394   0.000   2.138
   45        0.744   1.394   0.000   2.138
   46        0.744   1.394   0.000   2.138
   47        0.744   1.394   0.000   2.138
   48        0.744   1.394   0.000   2.138
   49        0.744   1.394   0.000   2.138
   50        0.744   1.394   0.000   2.138
   51        0.744   1.394   0.000   2.138
   52        0.744   1.394   0.000   2.138
   53        0.744   1.394   0.000   2.138
   54        0.744   1.394   0.000   2.138
   55        0.744   1.394   0.000   2.138
   56        0.744   1.394   0.000   2.138
   57        0.744   1.394   0.000   2.138
   58        0.744   1.394   0.000   2.138
   59        0.744   1.394   0.000   2.138
   60        0.744   1.394   0.000   2.138
   61        0.744   1.394   0.000   2.138
   62        0.744   1.394   0.000   2.138
   63        0.744   1.394   0.000   2.138
   64        0.744   1.394   0.000   2.138
   65        0.814   1.563   0.000   2.377
   66        0.838   1.551   0.000   2.390
   67        0.909   1.730   0.000   2.639
   68        1.759   4.414   0.000   6.172
   69        1.759   4.406   0.000   6.165
   70        1.758   4.413   0.000   6.172
   71        1.758   4.400   0.000   6.159
   72        1.758   4.401   0.000   6.160
   73        1.238   2.822   0.000   4.060
   74        1.238   2.822   0.000   4.060
   75        1.238   2.822   0.000   4.060
   76        1.238   2.822   0.000   4.060
   77        1.238   2.822   0.000   4.060
   78        1.238   2.822   0.000   4.060
   79        1.238   2.822   0.000   4.060
   80        1.238   2.822   0.000   4.060
   81        1.238   2.822   0.000   4.060
   82        1.238   2.822   0.000   4.060
   83        1.238   2.822   0.000   4.060
   84        1.238   2.822   0.000   4.060
   85        1.238   2.822   0.000   4.060
   86        1.238   2.822   0.000   4.060
   87        1.238   2.822   0.000   4.060
   88        1.238   2.822   0.000   4.060
   89        1.238   2.822   0.000   4.060
   90        1.238   2.822   0.000   4.060
   91        1.238   2.822   0.000   4.060
   92        1.238   2.822   0.000   4.060
   93        1.238   2.822   0.000   4.060
   94        1.238   2.822   0.000   4.060
   95        1.238   2.822   0.000   4.060
   96        1.238   2.822   0.000   4.060
   97        1.238   2.822   0.000   4.060
   98        1.238   2.822   0.000   4.060
   99        1.238   2.822   0.000   4.060
  100        1.238   2.822   0.000   4.060
  101        1.238   2.822   0.000   4.060
  102        1.238   2.822   0.000   4.060
  103        1.238   2.822   0.000   4.060
  104        1.238   2.822   0.000   4.060
  105        1.238   2.822   0.000   4.060
  106        1.238   2.822   0.000   4.060
  107        1.238   2.822   0.000   4.060
  108        1.238   2.822   0.000   4.060
  109        1.238   2.822   0.000   4.060
  110        1.238   2.822   0.000   4.060
  111        1.238   2.822   0.000   4.060
  112        1.238   2.822   0.000   4.060
  113        1.238   2.822   0.000   4.060
  114        1.238   2.822   0.000   4.060
  115        1.238   2.822   0.000   4.060
  116        1.238   2.822   0.000   4.060
  117        1.238   2.822   0.000   4.060
  118        1.238   2.822   0.000   4.060
  119        1.238   2.822   0.000   4.060
  120        1.238   2.822   0.000   4.060
  121        1.238   2.822   0.000   4.060
  122        1.238   2.822   0.000   4.060
  123        1.238   2.822   0.000   4.060
  124        1.238   2.822   0.000   4.060
  125        1.238   2.822   0.000   4.060
  126        1.238   2.822   0.000   4.060
  127        1.238   2.822   0.000   4.060
  128        1.238   2.822   0.000   4.060
  129        1.238   2.822   0.000   4.060
  130        1.238   2.822   0.000   4.060
  131        1.238   2.822   0.000   4.060
  132        1.238   2.822   0.000   4.060
  133        1.238   2.822   0.000   4.060
  134        1.238   2.822   0.000   4.060
  135        1.238   2.822   0.000   4.060
  136        1.238   2.822   0.000   4.060
  137        1.605   3.563   0.000   5.169
  138        1.605   3.566   0.000   5.171
--------------------------------------------------
tot        141.426 303.813   0.000 445.239
 


 magnetization (x)
 
# of ion       s       p       d       tot
------------------------------------------
    1       -0.000  -0.000   0.000  -0.000
    2       -0.000  -0.000   0.000  -0.000
    3       -0.000  -0.000   0.000  -0.000
    4       -0.000  -0.000   0.000  -0.000
    5       -0.000  -0.000   0.000  -0.000
    6       -0.000  -0.000   0.000  -0.000
    7       -0.000   0.000   0.000   0.000
    8       -0.000   0.000   0.000   0.000
    9       -0.000  -0.000   0.000  -0.000
   10       -0.000  -0.000   0.000  -0.000
   11       -0.000  -0.000   0.000  -0.000
   12        0.000   0.000   0.000   0.000
   13       -0.000  -0.000   0.000  -0.000
   14       -0.000  -0.000   0.000  -0.000
   15       -0.000  -0.000   0.000  -0.000
   16       -0.000  -0.000   0.000  -0.000
   17       -0.000  -0.000   0.000  -0.000
   18       -0.000  -0.000   0.000  -0.000
   19       -0.000  -0.000   0.000  -0.000
   20       -0.000  -0.000   0.000  -0.000
   21       -0.000  -0.000   0.000  -0.000
   22       -0.000  -0.000   0.000  -0.000
   23       -0.000  -0.000   0.000  -0.000
   24       -0.000  -0.000   0.000  -0.000
   25       -0.000  -0.000   0.000  -0.000
   26       -0.000  -0.000   0.000  -0.000
   27       -0.000  -0.000   0.000  -0.000
   28       -0.000  -0.000   0.000  -0.000
   29       -0.000  -0.000   0.000  -0.000
   30       -0.000  -0.000   0.000  -0.000
   31       -0.000  -0.000   0.000  -0.000
   32       -0.000  -0.000   0.000  -0.000
   33       -0.000  -0.000   0.000  -0.000
   34       -0.000  -0.000   0.000  -0.000
   35       -0.000  -0.000   0.000  -0.000
   36       -0.000  -0.000   0.000  -0.000
   37       -0.000  -0.000   0.000  -0.000
   38       -0.000  -0.000   0.000  -0.000
   39       -0.000  -0.000   0.000  -0.000
   40       -0.000  -0.000   0.000  -0.000
   41       -0.000  -0.000   0.000  -0.000
   42       -0.000  -0.000   0.000  -0.000
   43       -0.000  -0.000   0.000  -0.000
   44       -0.000  -0.000   0.000  -0.000
   45       -0.000  -0.000   0.000  -0.000
   46       -0.000  -0.000   0.000  -0.000
   47       -0.000  -0.000   0.000  -0.000
   48       -0.000  -0.000   0.000  -0.000
   49       -0.000  -0.000   0.000  -0.000
   50       -0.000  -0.000   0.000  -0.000
   51       -0.000  -0.000   0.000  -0.000
   52       -0.000  -0.000   0.000  -0.000
   53       -0.000  -0.000   0.000  -0.000
   54       -0.000  -0.000   0.000  -0.000
   55       -0.000  -0.000   0.000  -0.000
   56       -0.000  -0.000   0.000  -0.000
   57       -0.000  -0.000   0.000  -0.000
   58       -0.000  -0.000   0.000  -0.000
   59       -0.000  -0.000   0.000  -0.000
   60       -0.000  -0.000   0.000  -0.000
   61       -0.000  -0.000   0.000  -0.000
   62       -0.000  -0.000   0.000  -0.000
   63       -0.000  -0.000   0.000  -0.000
   64       -0.000  -0.000   0.000  -0.000
   65        0.005   0.014   0.000   0.019
   66        0.039   0.207   0.000   0.246
   67       -0.013  -0.027   0.000  -0.040
   68       -0.000  -0.001   0.000  -0.001
   69        0.000   0.019   0.000   0.020
   70       -0.000  -0.001   0.000  -0.001
   71        0.001   0.052   0.000   0.053
   72        0.001   0.050   0.000   0.051
   73        0.000   0.000   0.000   0.000
   74       -0.000  -0.000   0.000  -0.000
   75        0.000   0.000   0.000   0.000
   76        0.000   0.000   0.000   0.000
   77        0.000   0.000   0.000   0.000
   78       -0.000   0.000   0.000   0.000
   79        0.000   0.000   0.000   0.000
   80        0.000  -0.000   0.000  -0.000
   81        0.000   0.000   0.000   0.000
   82       -0.000  -0.000   0.000  -0.000
   83        0.000   0.000   0.000   0.000
   84        0.000  -0.000   0.000  -0.000
   85        0.000   0.000   0.000   0.000
   86        0.000   0.000   0.000   0.000
   87        0.000   0.000   0.000   0.000
   88        0.000   0.000   0.000   0.000
   89        0.000   0.000   0.000   0.000
   90        0.000   0.000   0.000   0.000
   91        0.000   0.000   0.000   0.000
   92        0.000   0.000   0.000   0.000
   93        0.000   0.000   0.000   0.000
   94        0.000   0.000   0.000   0.000
   95        0.000   0.000   0.000   0.000
   96        0.000   0.000   0.000   0.000
   97        0.000   0.000   0.000   0.000
   98        0.000   0.000   0.000   0.000
   99        0.000   0.000   0.000   0.000
  100        0.000   0.000   0.000   0.000
  101        0.000   0.000   0.000   0.000
  102        0.000   0.000   0.000   0.000
  103        0.000   0.000   0.000   0.000
  104        0.000   0.000   0.000   0.000
  105        0.000   0.000   0.000   0.000
  106        0.000   0.000   0.000   0.000
  107        0.000   0.000   0.000   0.000
  108        0.000   0.000   0.000   0.000
  109        0.000   0.000   0.000   0.000
  110        0.000   0.000   0.000   0.000
  111        0.000   0.000   0.000   0.000
  112        0.000   0.000   0.000   0.000
  113        0.000   0.000   0.000   0.000
  114        0.000   0.000   0.000   0.000
  115        0.000   0.000   0.000   0.000
  116        0.000   0.000   0.000   0.000
  117        0.000   0.000   0.000   0.000
  118        0.000   0.000   0.000   0.000
  119        0.000   0.000   0.000   0.000
  120        0.000   0.000   0.000   0.000
  121        0.000   0.000   0.000   0.000
  122        0.000   0.000   0.000   0.000
  123        0.000   0.000   0.000   0.000
  124        0.000   0.000   0.000   0.000
  125        0.000   0.000   0.000   0.000
  126        0.000   0.000   0.000   0.000
  127        0.000   0.000   0.000   0.000
  128        0.000   0.000   0.000   0.000
  129        0.000   0.000   0.000   0.000
  130        0.000   0.000   0.000   0.000
  131        0.000   0.000   0.000   0.000
  132        0.000   0.000   0.000   0.000
  133        0.000   0.000   0.000   0.000
  134        0.000   0.000   0.000   0.000
  135        0.000   0.000   0.000   0.000
  136        0.000   0.000   0.000   0.000
  137        0.002   0.139   0.000   0.141
  138        0.002   0.131   0.000   0.133
--------------------------------------------------
tot          0.038   0.584   0.000   0.623
 

 total amount of memory used by VASP MPI-rank0  1926049. kBytes
=======================================================================

   base      :      30000. kBytes
   nonlr-proj:      63632. kBytes
   fftplans  :      68224. kBytes
   grid      :    1141764. kBytes
   one-center:        847. kBytes
   wavefun   :     621582. kBytes
 
  
  
 General timing and accounting informations for this job:
 ========================================================
  
                  Total CPU time used (sec):     5455.331
                            User time (sec):     4699.025
                          System time (sec):      756.306
                         Elapsed time (sec):     5715.226
  
                   Maximum memory used (kb):     3712172.
                   Average memory used (kb):           0.
  
                          Minor page faults:     23932174
                          Major page faults:            0
                 Voluntary context switches:        56967
