Job started on bc4u13n1 at Wed Jan  5 18:17:14 CST 2022
 argument  1 = mol.nw
 


============================== echo of input deck ==============================
echo
start mol
title "mol"

geometry nocenter noautosym noautoz
  load mol.xyz
end

charge 0

basis noprint
  * library aug-cc-pVDZ
end

scf
  tol2e 1d-9
  uhf
  singlet
  vectors output hBN_q0.movecs
end

task scf
================================================================================


                                         
                                         
 
 
              Northwest Computational Chemistry Package (NWChem) 6.8
              ------------------------------------------------------
 
 
                    Environmental Molecular Sciences Laboratory
                       Pacific Northwest National Laboratory
                                Richland, WA 99352
 
                              Copyright (c) 1994-2017
                       Pacific Northwest National Laboratory
                            Battelle Memorial Institute
 
             NWChem is an open-source computational chemistry package
                        distributed under the terms of the
                      Educational Community License (ECL) 2.0
             A copy of the license is included with this distribution
                              in the LICENSE.TXT file
 
                                  ACKNOWLEDGMENT
                                  --------------

            This software and its documentation were developed at the
            EMSL at Pacific Northwest National Laboratory, a multiprogram
            national laboratory, operated for the U.S. Department of Energy
            by Battelle under Contract Number DE-AC05-76RL01830. Support
            for this work was provided by the Department of Energy Office
            of Biological and Environmental Research, Office of Basic
            Energy Sciences, and the Office of Advanced Scientific Computing.


           Job information
           ---------------

    hostname        = bc4u13n1
    program         = /opt/apps/software/MPI/intel/2019.3.199-GCC-8.3.0/impi/2019.4.243/NWChem/6.8.revision47/bin/nwchem
    date            = Wed Jan  5 18:17:16 2022

    compiled        = Sat Jan 11 14:38:06 CST 2020
    source          = /tmp/eb-_UtWhd/tmp6zSplu-NWChem-6.8.revision47
    nwchem branch   = 6.8
    nwchem revision = v6.8-47-gdf6c956
    ga revision     = ga-5.6.3
    use scalapack   = T
    input           = mol.nw
    prefix          = mol.
    data base       = ./mol.db
    status          = startup
    nproc           =      184
    time left       =     -1s



           Memory information
           ------------------

    heap     =  130136320 doubles =    992.9 Mbytes
    stack    =  130136317 doubles =    992.9 Mbytes
    global   =  260272640 doubles =   1985.7 Mbytes (distinct from heap & stack)
    total    =  520545277 doubles =   3971.4 Mbytes
    verify   = yes
    hardfail = no 


           Directory information
           ---------------------
 
  0 permanent = .
  0 scratch   = .
 
 
 
 
                                NWChem Input Module
                                -------------------
 
 
                                        mol
                                        ---

 Scaling coordinates for geometry "geometry" by  1.889725989
 (inverse scale =  0.529177249)

 
 
                             Geometry "geometry" -> ""
                             -------------------------
 
 Output coordinates in angstroms (scale by  1.889725989 to convert to a.u.)
 
  No.       Tag          Charge          X              Y              Z
 ---- ---------------- ---------- -------------- -------------- --------------
    1 B                    5.0000     1.22482770     0.70544183     1.66529624
    2 B                    5.0000     2.49140751     2.87636472     1.66529684
    3 B                    5.0000     3.74530248     5.04643127     1.66529433
    4 B                    5.0000     5.00798132     7.21225089     1.66530404
    5 B                    5.0000     2.48158570    -1.47534515     1.66529866
    6 B                    5.0000     3.74880085     0.70058716     1.66530343
    7 B                    5.0000     5.00798111     2.87350095     1.66530096
    8 B                    5.0000     6.27065482     5.04643257     1.66529704
    9 B                    5.0000     3.74173256    -3.65700657     1.66530600
   10 B                    5.0000     5.00798045    -1.47635644     1.66530790
   11 B                    5.0000     6.26716131     0.70058546     1.66530136
   12 B                    5.0000     7.52455436     2.87636666     1.66530766
   13 B                    5.0000     5.00797940    -5.84681900     1.66529448
   14 B                    5.0000     6.27422590    -3.65700672     1.66530167
   15 B                    5.0000     7.53437664    -1.47534786     1.66530437
   16 B                    5.0000     8.79113364     0.70544180     1.66529219
   17 N                    7.0000     1.24878696    -0.71397687     1.66529781
   18 N                    7.0000     2.48509243     1.43891551     1.66530106
   19 N                    7.0000     3.74546531     3.60800576     1.66530124
   20 N                    7.0000     5.00797787     5.78068557     1.66529559
   21 N                    7.0000     2.50945823    -2.90507739     1.66529702
   22 N                    7.0000     3.74755820    -0.74286156     1.66530094
   23 N                    7.0000     5.00798147     1.43124948     1.66530927
   24 N                    7.0000     6.27049563     3.60800730     1.66530058
   25 N                    7.0000     3.77188790    -5.08906435     1.66530437
   26 N                    7.0000     5.00797972    -2.92141036     1.66529887
   27 N                    7.0000     6.26840359    -0.74286417     1.66530059
   28 N                    7.0000     7.53086976     1.43891652     1.66530089
   29 N                    7.0000     5.00797953    -7.26663556     1.66530202
   30 N                    7.0000     6.24407118    -5.08906408     1.66529669
   31 N                    7.0000     7.50650196    -2.90507974     1.66529569
   32 N                    7.0000     8.76717448    -0.71397695     1.66530061
   33 H                    1.0000     0.36401055    -1.21981506     1.66529440
   34 H                    1.0000     1.62497219    -3.41050414     1.66530022
   35 H                    1.0000     2.88694651    -5.59241304     1.66530416
   36 H                    1.0000     5.86055485    -7.80962460     1.66530090
   37 H                    1.0000     4.15540858    -7.80963161     1.66530098
   38 H                    1.0000     7.12901467    -5.59240929     1.66530035
   39 H                    1.0000     8.39098651    -3.41050936     1.66529782
   40 H                    1.0000     9.65195205    -1.21981326     1.66529971
   41 H                    1.0000     0.18561928     1.30829811     1.66529886
   42 H                    1.0000     1.45596981     3.48444781     1.66529922
   43 H                    1.0000     2.70954649     5.65233982     1.66530124
   44 H                    1.0000     6.05516170     7.80821383     1.66530147
   45 H                    1.0000     3.96081310     7.80824008     1.66530303
   46 H                    1.0000     7.30641358     5.65233594     1.66529968
   47 H                    1.0000     8.55999109     3.48445080     1.66530294
   48 H                    1.0000     9.83034396     1.30829946     1.66530119
 
      Atomic Mass 
      ----------- 
 
      B                 11.009310
      N                 14.003070
      H                  1.007825
 

 Effective nuclear repulsion energy (a.u.)    2751.5507348932

            Nuclear Dipole moment (a.u.) 
            ----------------------------
        X                 Y               Z
 ---------------- ---------------- ----------------
  1968.4518281522   -49.6432961539   654.5679455320
 
 
            XYZ format geometry
            -------------------
    48
 geometry
 B                     1.22482770     0.70544183     1.66529624
 B                     2.49140751     2.87636472     1.66529684
 B                     3.74530248     5.04643127     1.66529433
 B                     5.00798132     7.21225089     1.66530404
 B                     2.48158570    -1.47534515     1.66529866
 B                     3.74880085     0.70058716     1.66530343
 B                     5.00798111     2.87350095     1.66530096
 B                     6.27065482     5.04643257     1.66529704
 B                     3.74173256    -3.65700657     1.66530600
 B                     5.00798045    -1.47635644     1.66530790
 B                     6.26716131     0.70058546     1.66530136
 B                     7.52455436     2.87636666     1.66530766
 B                     5.00797940    -5.84681900     1.66529448
 B                     6.27422590    -3.65700672     1.66530167
 B                     7.53437664    -1.47534786     1.66530437
 B                     8.79113364     0.70544180     1.66529219
 N                     1.24878696    -0.71397687     1.66529781
 N                     2.48509243     1.43891551     1.66530106
 N                     3.74546531     3.60800576     1.66530124
 N                     5.00797787     5.78068557     1.66529559
 N                     2.50945823    -2.90507739     1.66529702
 N                     3.74755820    -0.74286156     1.66530094
 N                     5.00798147     1.43124948     1.66530927
 N                     6.27049563     3.60800730     1.66530058
 N                     3.77188790    -5.08906435     1.66530437
 N                     5.00797972    -2.92141036     1.66529887
 N                     6.26840359    -0.74286417     1.66530059
 N                     7.53086976     1.43891652     1.66530089
 N                     5.00797953    -7.26663556     1.66530202
 N                     6.24407118    -5.08906408     1.66529669
 N                     7.50650196    -2.90507974     1.66529569
 N                     8.76717448    -0.71397695     1.66530061
 H                     0.36401055    -1.21981506     1.66529440
 H                     1.62497219    -3.41050414     1.66530022
 H                     2.88694651    -5.59241304     1.66530416
 H                     5.86055485    -7.80962460     1.66530090
 H                     4.15540858    -7.80963161     1.66530098
 H                     7.12901467    -5.59240929     1.66530035
 H                     8.39098651    -3.41050936     1.66529782
 H                     9.65195205    -1.21981326     1.66529971
 H                     0.18561928     1.30829811     1.66529886
 H                     1.45596981     3.48444781     1.66529922
 H                     2.70954649     5.65233982     1.66530124
 H                     6.05516170     7.80821383     1.66530147
 H                     3.96081310     7.80824008     1.66530303
 H                     7.30641358     5.65233594     1.66529968
 H                     8.55999109     3.48445080     1.66530294
 H                     9.83034396     1.30829946     1.66530119
 
 ==============================================================================
                                internuclear distances
 ------------------------------------------------------------------------------
       center one      |      center two      | atomic units |  angstroms
 ------------------------------------------------------------------------------
   17 N                |   1 B                |     2.68269  |     1.41962
   17 N                |   5 B                |     2.73813  |     1.44896
   18 N                |   1 B                |     2.75554  |     1.45817
   18 N                |   2 B                |     2.71641  |     1.43746
   18 N                |   6 B                |     2.76578  |     1.46359
   19 N                |   2 B                |     2.74366  |     1.45188
   19 N                |   3 B                |     2.71823  |     1.43843
   19 N                |   7 B                |     2.76019  |     1.46063
   20 N                |   3 B                |     2.76022  |     1.46064
   20 N                |   4 B                |     2.70527  |     1.43157
   20 N                |   8 B                |     2.76022  |     1.46064
   21 N                |   5 B                |     2.70232  |     1.43000
   21 N                |   9 B                |     2.72795  |     1.44357
   22 N                |   5 B                |     2.76393  |     1.46261
   22 N                |   6 B                |     2.72772  |     1.44345
   22 N                |  10 B                |     2.75581  |     1.45831
   23 N                |   6 B                |     2.75110  |     1.45582
   23 N                |   7 B                |     2.72546  |     1.44225
   23 N                |  11 B                |     2.75110  |     1.45582
   24 N                |   7 B                |     2.76019  |     1.46063
   24 N                |   8 B                |     2.71823  |     1.43843
   24 N                |  12 B                |     2.74366  |     1.45188
   25 N                |   9 B                |     2.70680  |     1.43238
   25 N                |  13 B                |     2.73985  |     1.44987
   26 N                |   9 B                |     2.76733  |     1.46441
   26 N                |  10 B                |     2.73076  |     1.44505
   26 N                |  14 B                |     2.76732  |     1.46440
   27 N                |  10 B                |     2.75581  |     1.45831
   27 N                |  11 B                |     2.72773  |     1.44345
   27 N                |  15 B                |     2.76393  |     1.46261
   28 N                |  11 B                |     2.76578  |     1.46359
   28 N                |  12 B                |     2.71641  |     1.43746
   28 N                |  16 B                |     2.75554  |     1.45817
   29 N                |  13 B                |     2.68306  |     1.41982
   30 N                |  13 B                |     2.73985  |     1.44987
   30 N                |  14 B                |     2.70680  |     1.43237
   31 N                |  14 B                |     2.72795  |     1.44357
   31 N                |  15 B                |     2.70231  |     1.43000
   32 N                |  15 B                |     2.73813  |     1.44896
   32 N                |  16 B                |     2.68269  |     1.41962
   33 H                |  17 N                |     1.92595  |     1.01917
   34 H                |  21 N                |     1.92508  |     1.01871
   35 H                |  25 N                |     1.92389  |     1.01808
   36 H                |  29 N                |     1.91014  |     1.01080
   37 H                |  29 N                |     1.91014  |     1.01080
   38 H                |  30 N                |     1.92389  |     1.01808
   39 H                |  31 N                |     1.92508  |     1.01871
   40 H                |  32 N                |     1.92595  |     1.01917
   41 H                |   1 B                |     2.27034  |     1.20141
   42 H                |   2 B                |     2.26916  |     1.20079
   43 H                |   3 B                |     2.26760  |     1.19996
   44 H                |   4 B                |     2.27691  |     1.20489
   45 H                |   4 B                |     2.27692  |     1.20489
   46 H                |   8 B                |     2.26760  |     1.19996
   47 H                |  12 B                |     2.26916  |     1.20079
   48 H                |  16 B                |     2.27034  |     1.20141
 ------------------------------------------------------------------------------
                         number of included internuclear distances:         56
 ==============================================================================



 ==============================================================================
                                 internuclear angles
 ------------------------------------------------------------------------------
        center 1       |       center 2       |       center 3       |  degrees
 ------------------------------------------------------------------------------
   17 N                |   1 B                |  18 N                |   119.23
   17 N                |   1 B                |  41 H                |   121.09
   18 N                |   1 B                |  41 H                |   119.68
   18 N                |   2 B                |  19 N                |   120.51
   18 N                |   2 B                |  42 H                |   120.17
   19 N                |   2 B                |  42 H                |   119.32
   19 N                |   3 B                |  20 N                |   120.17
   19 N                |   3 B                |  43 H                |   120.33
   20 N                |   3 B                |  43 H                |   119.49
   20 N                |   4 B                |  44 H                |   119.64
   20 N                |   4 B                |  45 H                |   119.65
   44 H                |   4 B                |  45 H                |   120.71
   17 N                |   5 B                |  21 N                |   122.82
   17 N                |   5 B                |  22 N                |   118.25
   21 N                |   5 B                |  22 N                |   118.94
   18 N                |   6 B                |  22 N                |   120.25
   18 N                |   6 B                |  23 N                |   119.58
   22 N                |   6 B                |  23 N                |   120.17
   19 N                |   7 B                |  23 N                |   120.19
   19 N                |   7 B                |  24 N                |   119.62
   23 N                |   7 B                |  24 N                |   120.19
   20 N                |   8 B                |  24 N                |   120.17
   20 N                |   8 B                |  46 H                |   119.49
   24 N                |   8 B                |  46 H                |   120.33
   21 N                |   9 B                |  25 N                |   122.60
   21 N                |   9 B                |  26 N                |   118.46
   25 N                |   9 B                |  26 N                |   118.95
   22 N                |  10 B                |  26 N                |   120.20
   22 N                |  10 B                |  27 N                |   119.61
   26 N                |  10 B                |  27 N                |   120.20
   23 N                |  11 B                |  27 N                |   120.17
   23 N                |  11 B                |  28 N                |   119.58
   27 N                |  11 B                |  28 N                |   120.25
   24 N                |  12 B                |  28 N                |   120.51
   24 N                |  12 B                |  47 H                |   119.32
   28 N                |  12 B                |  47 H                |   120.17
   25 N                |  13 B                |  29 N                |   121.51
   25 N                |  13 B                |  30 N                |   116.98
   29 N                |  13 B                |  30 N                |   121.51
   26 N                |  14 B                |  30 N                |   118.95
   26 N                |  14 B                |  31 N                |   118.46
   30 N                |  14 B                |  31 N                |   122.60
   27 N                |  15 B                |  31 N                |   118.94
   27 N                |  15 B                |  32 N                |   118.25
   31 N                |  15 B                |  32 N                |   122.82
   28 N                |  16 B                |  32 N                |   119.23
   28 N                |  16 B                |  48 H                |   119.68
   32 N                |  16 B                |  48 H                |   121.09
    1 B                |  17 N                |   5 B                |   122.67
    1 B                |  17 N                |  33 H                |   118.79
    5 B                |  17 N                |  33 H                |   118.54
    1 B                |  18 N                |   2 B                |   120.45
    1 B                |  18 N                |   6 B                |   119.50
    2 B                |  18 N                |   6 B                |   120.04
    2 B                |  19 N                |   3 B                |   120.25
    2 B                |  19 N                |   7 B                |   119.55
    3 B                |  19 N                |   7 B                |   120.20
    3 B                |  20 N                |   4 B                |   120.18
    3 B                |  20 N                |   8 B                |   119.64
    4 B                |  20 N                |   8 B                |   120.18
    5 B                |  21 N                |   9 B                |   122.51
    5 B                |  21 N                |  34 H                |   118.63
    9 B                |  21 N                |  34 H                |   118.86
    5 B                |  22 N                |   6 B                |   120.10
    5 B                |  22 N                |  10 B                |   119.75
    6 B                |  22 N                |  10 B                |   120.15
    6 B                |  23 N                |   7 B                |   120.13
    6 B                |  23 N                |  11 B                |   119.75
    7 B                |  23 N                |  11 B                |   120.13
    7 B                |  24 N                |   8 B                |   120.20
    7 B                |  24 N                |  12 B                |   119.55
    8 B                |  24 N                |  12 B                |   120.25
    9 B                |  25 N                |  13 B                |   122.72
    9 B                |  25 N                |  35 H                |   118.42
   13 B                |  25 N                |  35 H                |   118.86
    9 B                |  26 N                |  10 B                |   120.15
    9 B                |  26 N                |  14 B                |   119.69
   10 B                |  26 N                |  14 B                |   120.15
   10 B                |  27 N                |  11 B                |   120.15
   10 B                |  27 N                |  15 B                |   119.75
   11 B                |  27 N                |  15 B                |   120.10
   11 B                |  28 N                |  12 B                |   120.04
   11 B                |  28 N                |  16 B                |   119.50
   12 B                |  28 N                |  16 B                |   120.45
   13 B                |  29 N                |  36 H                |   122.49
   13 B                |  29 N                |  37 H                |   122.49
   36 H                |  29 N                |  37 H                |   115.01
   13 B                |  30 N                |  14 B                |   122.72
   13 B                |  30 N                |  38 H                |   118.86
   14 B                |  30 N                |  38 H                |   118.42
   14 B                |  31 N                |  15 B                |   122.51
   14 B                |  31 N                |  39 H                |   118.86
   15 B                |  31 N                |  39 H                |   118.63
   15 B                |  32 N                |  16 B                |   122.67
   15 B                |  32 N                |  40 H                |   118.54
   16 B                |  32 N                |  40 H                |   118.79
 ------------------------------------------------------------------------------
                            number of included internuclear angles:         96
 ==============================================================================



  library name resolved from: environment
  library file name is: <
 /opt/apps/software/MPI/intel/2019.3.199-GCC-8.3.0/impi/2019.4.243/NWChem/6.8.re
 vision47/data/libraries/>
  
                                 NWChem SCF Module
                                 -----------------
 
 
                                        mol
 
 

  ao basis        = "ao basis"
  functions       =   944
  atoms           =    48
  alpha electrons =   104
  beta  electrons =   104
  charge          =   0.00
  wavefunction    = UHF 
  input vectors   = atomic
  output vectors  = ./hBN_q0.movecs
  use symmetry    = F
  symmetry adapt  = F


 Summary of "ao basis" -> "ao basis" (cartesian)
 ------------------------------------------------------------------------------
       Tag                 Description            Shells   Functions and Types
 ---------------- ------------------------------  ------  ---------------------
 B                        aug-cc-pVDZ                9       25   4s3p2d
 N                        aug-cc-pVDZ                9       25   4s3p2d
 H                        aug-cc-pVDZ                5        9   3s2p



 Forming initial guess at       0.4s


 !! The overlap matrix has  31 vectors deemed linearly dependent with
    eigenvalues:
 3.05D-07 7.52D-07 7.98D-07 8.21D-07 1.05D-06 1.11D-06 1.53D-06 1.58D-06
 1.67D-06 2.00D-06 2.29D-06 2.32D-06 2.50D-06 2.70D-06 3.35D-06 3.61D-06
 4.02D-06 4.36D-06 4.40D-06 4.72D-06 4.79D-06 4.81D-06 5.15D-06 5.66D-06
 5.96D-06 6.82D-06 6.85D-06 7.93D-06 8.40D-06 8.92D-06 9.55D-06
 
 
      Superposition of Atomic Density Guess
      -------------------------------------
 
 Sum of atomic energies:       -1269.36286235
 
      Non-variational initial energy
      ------------------------------

 Total energy =   -1291.065162
 1-e energy   =   -7188.811170
 2-e energy   =    3146.195274
 HOMO         =      -0.346686
 LUMO         =      -0.018735
 

 Starting SCF solution at      62.6s



 ----------------------------------------------
         Quadratically convergent UHF

 Convergence threshold     :          1.000E-04
 Maximum no. of iterations :           30
 Integral*density screening:          1.000E-10
 ----------------------------------------------


              iter       energy          gnorm     gmax       time
             ----- ------------------- --------- --------- --------
                 1    -1276.8111539617  1.96D+00  9.36D-02    142.3
                 2    -1277.3590810088  1.10D-01  4.62D-03    348.5
                 3    -1277.3608505602  7.36D-03  3.42D-04    552.9
                 4    -1277.3608630642  4.12D-05  2.21D-06    882.0


       Final UHF  results 
       ------------------ 

         Total SCF energy =  -1277.360863064234
      One electron energy =  -7216.451615873626
      Two electron energy =   3187.540017916201
 Nuclear repulsion energy =   2751.550734893191

                       Sz =      0.0000
                 Sz(Sz+1) =      0.0000
                      S^2 =      0.0000

        Time for solution =    821.6s


          Final alpha eigenvalues
          -----------------------

              1      
    1  -15.5497
    2  -15.5456
    3  -15.5456
    4  -15.5419
    5  -15.5414
    6  -15.5414
    7  -15.5370
    8  -15.5370
    9  -15.5366
   10  -15.5366
   11  -15.5328
   12  -15.5328
   13  -15.5322
   14  -15.5277
   15  -15.5277
   16  -15.5230
   17   -7.6308
   18   -7.6270
   19   -7.6270
   20   -7.6240
   21   -7.6240
   22   -7.6229
   23   -7.6200
   24   -7.6200
   25   -7.6185
   26   -7.6150
   27   -7.6150
   28   -7.6109
   29   -7.6109
   30   -7.6091
   31   -7.6091
   32   -7.6025
   33   -1.2323
   34   -1.2126
   35   -1.2011
   36   -1.1922
   37   -1.1681
   38   -1.1677
   39   -1.1600
   40   -1.1440
   41   -1.1426
   42   -1.1275
   43   -1.1189
   44   -1.1169
   45   -1.1166
   46   -1.1116
   47   -1.0976
   48   -1.0967
   49   -0.7751
   50   -0.7715
   51   -0.7703
   52   -0.7545
   53   -0.7517
   54   -0.7410
   55   -0.7400
   56   -0.7207
   57   -0.7157
   58   -0.7118
   59   -0.7112
   60   -0.7021
   61   -0.6880
   62   -0.6658
   63   -0.6554
   64   -0.6516
   65   -0.6428
   66   -0.6403
   67   -0.6267
   68   -0.6171
   69   -0.6110
   70   -0.6098
   71   -0.5893
   72   -0.5846
   73   -0.5805
   74   -0.5736
   75   -0.5725
   76   -0.5666
   77   -0.5514
   78   -0.5460
   79   -0.5445
   80   -0.5280
   81   -0.5265
   82   -0.5191
   83   -0.5130
   84   -0.5116
   85   -0.5104
   86   -0.4969
   87   -0.4821
   88   -0.4808
   89   -0.4784
   90   -0.4761
   91   -0.4657
   92   -0.4643
   93   -0.4630
   94   -0.4525
   95   -0.4420
   96   -0.4390
   97   -0.4370
   98   -0.4133
   99   -0.4036
  100   -0.4006
  101   -0.3992
  102   -0.3809
  103   -0.3698
  104   -0.3666
  105    0.0216
  106    0.0256
  107    0.0333
  108    0.0392
  109    0.0397
  110    0.0445
  111    0.0480
  112    0.0493
  113    0.0496
  114    0.0519
 
          Final beta eigenvalues
          ----------------------

              1      
    1  -15.5497
    2  -15.5456
    3  -15.5456
    4  -15.5419
    5  -15.5414
    6  -15.5414
    7  -15.5370
    8  -15.5370
    9  -15.5366
   10  -15.5366
   11  -15.5328
   12  -15.5328
   13  -15.5322
   14  -15.5277
   15  -15.5277
   16  -15.5230
   17   -7.6308
   18   -7.6270
   19   -7.6270
   20   -7.6240
   21   -7.6240
   22   -7.6229
   23   -7.6200
   24   -7.6200
   25   -7.6185
   26   -7.6150
   27   -7.6150
   28   -7.6109
   29   -7.6109
   30   -7.6091
   31   -7.6091
   32   -7.6025
   33   -1.2323
   34   -1.2126
   35   -1.2011
   36   -1.1922
   37   -1.1681
   38   -1.1677
   39   -1.1600
   40   -1.1440
   41   -1.1426
   42   -1.1275
   43   -1.1189
   44   -1.1169
   45   -1.1166
   46   -1.1116
   47   -1.0976
   48   -1.0967
   49   -0.7751
   50   -0.7715
   51   -0.7703
   52   -0.7545
   53   -0.7517
   54   -0.7410
   55   -0.7400
   56   -0.7207
   57   -0.7157
   58   -0.7118
   59   -0.7112
   60   -0.7021
   61   -0.6880
   62   -0.6658
   63   -0.6554
   64   -0.6516
   65   -0.6428
   66   -0.6403
   67   -0.6267
   68   -0.6171
   69   -0.6110
   70   -0.6098
   71   -0.5893
   72   -0.5846
   73   -0.5805
   74   -0.5736
   75   -0.5725
   76   -0.5666
   77   -0.5514
   78   -0.5460
   79   -0.5445
   80   -0.5280
   81   -0.5265
   82   -0.5191
   83   -0.5130
   84   -0.5116
   85   -0.5104
   86   -0.4969
   87   -0.4821
   88   -0.4808
   89   -0.4784
   90   -0.4761
   91   -0.4657
   92   -0.4643
   93   -0.4630
   94   -0.4525
   95   -0.4420
   96   -0.4390
   97   -0.4370
   98   -0.4133
   99   -0.4036
  100   -0.4006
  101   -0.3992
  102   -0.3809
  103   -0.3698
  104   -0.3666
  105    0.0216
  106    0.0256
  107    0.0333
  108    0.0392
  109    0.0397
  110    0.0445
  111    0.0480
  112    0.0493
  113    0.0496
  114    0.0519
 
                    UHF Final Alpha Molecular Orbital Analysis
                    ------------------------------------------
 
 Vector   33  Occ=1.000000D+00  E=-1.232312D+00
              MO Center=  5.0D+00, -1.3D-01,  1.7D+00, r^2= 8.7D+00
   Bfn.  Coefficient  Atom+Function         Bfn.  Coefficient  Atom+Function  
  ----- ------------  ---------------      ----- ------------  ---------------
   479      0.227274  20 N  s               429      0.206477  18 N  s         
   679      0.206473  28 N  s               629      0.189502  26 N  s         
   554      0.177191  23 N  s               504      0.169830  21 N  s         
   754      0.169834  31 N  s               454      0.158653  19 N  s         
   579      0.158653  24 N  s         
 
 Vector   34  Occ=1.000000D+00  E=-1.212646D+00
              MO Center=  5.0D+00, -5.4D-01,  1.7D+00, r^2= 1.7D+01
   Bfn.  Coefficient  Atom+Function         Bfn.  Coefficient  Atom+Function  
  ----- ------------  ---------------      ----- ------------  ---------------
   627     -0.138392  26 N  s               452      0.135498  19 N  s         
   577      0.135498  24 N  s         
 
 Vector   35  Occ=1.000000D+00  E=-1.201145D+00
              MO Center=  5.0D+00, -6.2D-01,  1.7D+00, r^2= 1.1D+01
   Bfn.  Coefficient  Atom+Function         Bfn.  Coefficient  Atom+Function  
  ----- ------------  ---------------      ----- ------------  ---------------
   402      0.157664  17 N  s               777     -0.157663  32 N  s         
 
 Vector   36  Occ=1.000000D+00  E=-1.192154D+00
              MO Center=  5.0D+00, -9.7D-01,  1.7D+00, r^2= 2.2D+01
   Bfn.  Coefficient  Atom+Function         Bfn.  Coefficient  Atom+Function  
  ----- ------------  ---------------      ----- ------------  ---------------
   602      0.147340  25 N  s               727      0.147340  30 N  s         
    78      0.137399   4 B  s               477      0.133249  20 N  s         
 
 Vector   37  Occ=1.000000D+00  E=-1.168061D+00
              MO Center=  5.0D+00, -5.9D-01,  1.7D+00, r^2= 2.6D+01
   Bfn.  Coefficient  Atom+Function         Bfn.  Coefficient  Atom+Function  
  ----- ------------  ---------------      ----- ------------  ---------------
   477      0.190191  20 N  s               702     -0.180944  29 N  s         
 
 Vector   38  Occ=1.000000D+00  E=-1.167682D+00
              MO Center=  5.0D+00, -5.3D-01,  1.7D+00, r^2= 1.4D+01
   Bfn.  Coefficient  Atom+Function         Bfn.  Coefficient  Atom+Function  
  ----- ------------  ---------------      ----- ------------  ---------------
   502      0.174959  21 N  s               752     -0.174974  31 N  s         
   427     -0.155965  18 N  s               677      0.155976  28 N  s         
 
 Vector   39  Occ=1.000000D+00  E=-1.160032D+00
              MO Center=  5.0D+00, -9.1D-01,  1.7D+00, r^2= 1.4D+01
   Bfn.  Coefficient  Atom+Function         Bfn.  Coefficient  Atom+Function  
  ----- ------------  ---------------      ----- ------------  ---------------
   402      0.208561  17 N  s               777      0.208561  32 N  s         
   554     -0.194055  23 N  s               404      0.157957  17 N  s         
   779      0.157958  32 N  s         
 
 Vector   40  Occ=1.000000D+00  E=-1.143982D+00
              MO Center=  5.0D+00, -2.4D-01,  1.7D+00, r^2= 1.7D+01
   Bfn.  Coefficient  Atom+Function         Bfn.  Coefficient  Atom+Function  
  ----- ------------  ---------------      ----- ------------  ---------------
   452     -0.163032  19 N  s               577      0.163033  24 N  s         
   402      0.156891  17 N  s               777     -0.156891  32 N  s         
 
 Vector   41  Occ=1.000000D+00  E=-1.142645D+00
              MO Center=  5.0D+00, -7.8D-01,  1.7D+00, r^2= 2.7D+01
   Bfn.  Coefficient  Atom+Function         Bfn.  Coefficient  Atom+Function  
  ----- ------------  ---------------      ----- ------------  ---------------
   702      0.211283  29 N  s               477      0.199969  20 N  s         
   703      0.158085  29 N  s         
 
 Vector   42  Occ=1.000000D+00  E=-1.127472D+00
              MO Center=  5.0D+00, -2.0D+00,  1.7D+00, r^2= 2.3D+01
   Bfn.  Coefficient  Atom+Function         Bfn.  Coefficient  Atom+Function  
  ----- ------------  ---------------      ----- ------------  ---------------
   702     -0.193421  29 N  s               604      0.183091  25 N  s         
   729      0.183093  30 N  s         
 
 Vector   43  Occ=1.000000D+00  E=-1.118863D+00
              MO Center=  5.0D+00, -1.4D+00,  1.7D+00, r^2= 1.1D+01
   Bfn.  Coefficient  Atom+Function         Bfn.  Coefficient  Atom+Function  
  ----- ------------  ---------------      ----- ------------  ---------------
   636      0.208362  26 N  px              527     -0.180941  22 N  s         
   652      0.180941  27 N  s               402      0.165828  17 N  s         
   777     -0.165827  32 N  s         
 
 Vector   44  Occ=1.000000D+00  E=-1.116891D+00
              MO Center=  5.0D+00, -8.9D-01,  1.7D+00, r^2= 1.9D+01
   Bfn.  Coefficient  Atom+Function         Bfn.  Coefficient  Atom+Function  
  ----- ------------  ---------------      ----- ------------  ---------------
   602      0.181619  25 N  s               727     -0.181637  30 N  s         
   452     -0.160660  19 N  s               577      0.160686  24 N  s         
 
 Vector   45  Occ=1.000000D+00  E=-1.116558D+00
              MO Center=  5.0D+00,  1.9D-01,  1.7D+00, r^2= 1.4D+01
   Bfn.  Coefficient  Atom+Function         Bfn.  Coefficient  Atom+Function  
  ----- ------------  ---------------      ----- ------------  ---------------
   552      0.226265  23 N  s               627     -0.172124  26 N  s         
   553      0.159539  23 N  s         
 
 Vector   46  Occ=1.000000D+00  E=-1.111629D+00
              MO Center=  5.0D+00,  3.2D-02,  1.7D+00, r^2= 1.6D+01
   Bfn.  Coefficient  Atom+Function         Bfn.  Coefficient  Atom+Function  
  ----- ------------  ---------------      ----- ------------  ---------------
   427      0.176364  18 N  s               677      0.176365  28 N  s         
 
 Vector   47  Occ=1.000000D+00  E=-1.097639D+00
              MO Center=  5.0D+00, -7.1D-01,  1.7D+00, r^2= 1.1D+01
   Bfn.  Coefficient  Atom+Function         Bfn.  Coefficient  Atom+Function  
  ----- ------------  ---------------      ----- ------------  ---------------
   527      0.176089  22 N  s               652     -0.176084  27 N  s         
 
 Vector   48  Occ=1.000000D+00  E=-1.096688D+00
              MO Center=  5.0D+00, -1.6D+00,  1.7D+00, r^2= 9.3D+00
   Bfn.  Coefficient  Atom+Function         Bfn.  Coefficient  Atom+Function  
  ----- ------------  ---------------      ----- ------------  ---------------
   627      0.249955  26 N  s               628      0.196944  26 N  s         
   552      0.164224  23 N  s         
 
 Vector   49  Occ=1.000000D+00  E=-7.750614D-01
              MO Center=  5.0D+00,  1.2D+00,  1.7D+00, r^2= 1.5D+01
   Bfn.  Coefficient  Atom+Function         Bfn.  Coefficient  Atom+Function  
  ----- ------------  ---------------      ----- ------------  ---------------
   481      0.144063  20 N  py              431      0.132933  18 N  py        
   681      0.132931  28 N  py               27      0.130397   2 B  s         
   277      0.130396  12 B  s         
 
 Vector   50  Occ=1.000000D+00  E=-7.715231D-01
              MO Center=  5.0D+00,  1.0D+00,  1.7D+00, r^2= 1.1D+01
   Bfn.  Coefficient  Atom+Function         Bfn.  Coefficient  Atom+Function  
  ----- ------------  ---------------      ----- ------------  ---------------
   555      0.192499  23 N  px              430     -0.152997  18 N  px        
   680     -0.152995  28 N  px        
 
 Vector   51  Occ=1.000000D+00  E=-7.702929D-01
              MO Center=  5.0D+00,  1.2D-01,  1.7D+00, r^2= 1.1D+01
   Bfn.  Coefficient  Atom+Function         Bfn.  Coefficient  Atom+Function  
  ----- ------------  ---------------      ----- ------------  ---------------
   556      0.176283  23 N  py              152      0.165019   7 B  s         
   530     -0.164530  22 N  px              655      0.164530  27 N  px        
   170     -0.152617   7 B  dxx       
 
 Vector   52  Occ=1.000000D+00  E=-7.545308D-01
              MO Center=  5.0D+00,  2.0D-01,  1.7D+00, r^2= 1.5D+01
   Bfn.  Coefficient  Atom+Function         Bfn.  Coefficient  Atom+Function  
  ----- ------------  ---------------      ----- ------------  ---------------
   630      0.167196  26 N  px        
 
 Vector   53  Occ=1.000000D+00  E=-7.516709D-01
              MO Center=  5.0D+00,  5.9D-02,  1.7D+00, r^2= 1.7D+01
   Bfn.  Coefficient  Atom+Function         Bfn.  Coefficient  Atom+Function  
  ----- ------------  ---------------      ----- ------------  ---------------
   170     -0.202601   7 B  dxx              33      0.184259   2 B  px        
   283     -0.184259  12 B  px              631      0.174050  26 N  py        
   227      0.167567  10 B  s         
 
 Vector   54  Occ=1.000000D+00  E=-7.410464D-01
              MO Center=  5.0D+00, -1.8D+00,  1.7D+00, r^2= 1.3D+01
   Bfn.  Coefficient  Atom+Function         Bfn.  Coefficient  Atom+Function  
  ----- ------------  ---------------      ----- ------------  ---------------
   202      0.151145   9 B  s               327     -0.151144  14 B  s         
 
 Vector   55  Occ=1.000000D+00  E=-7.399545D-01
              MO Center=  5.0D+00, -1.9D+00,  1.7D+00, r^2= 2.4D+01
   Bfn.  Coefficient  Atom+Function         Bfn.  Coefficient  Atom+Function  
  ----- ------------  ---------------      ----- ------------  ---------------
   302      0.220145  13 B  s               706      0.173828  29 N  py        
    78     -0.172473   4 B  s               245     -0.160563  10 B  dxx       
 
 Vector   56  Occ=1.000000D+00  E=-7.207102D-01
              MO Center=  5.0D+00, -4.9D-01,  1.7D+00, r^2= 1.8D+01
   Bfn.  Coefficient  Atom+Function         Bfn.  Coefficient  Atom+Function  
  ----- ------------  ---------------      ----- ------------  ---------------
   173      0.184431   7 B  dyy             146      0.166339   6 B  dxy       
   271     -0.166336  11 B  dxy             170      0.156579   7 B  dxx       
   152     -0.154574   7 B  s         
 
 Vector   57  Occ=1.000000D+00  E=-7.157452D-01
              MO Center=  5.0D+00,  2.6D+00,  1.7D+00, r^2= 1.7D+01
   Bfn.  Coefficient  Atom+Function         Bfn.  Coefficient  Atom+Function  
  ----- ------------  ---------------      ----- ------------  ---------------
   480      0.256305  20 N  px              148      0.171870   6 B  dyy       
   273     -0.171862  11 B  dyy              52     -0.167718   3 B  s         
   177      0.167715   8 B  s               171     -0.151834   7 B  dxy       
 
 Vector   58  Occ=1.000000D+00  E=-7.117567D-01
              MO Center=  5.0D+00, -3.2D-01,  1.7D+00, r^2= 2.3D+01
   Bfn.  Coefficient  Atom+Function         Bfn.  Coefficient  Atom+Function  
  ----- ------------  ---------------      ----- ------------  ---------------
   406      0.180667  17 N  py              781      0.180675  32 N  py        
     2      0.172679   1 B  s               377      0.172691  16 B  s         
   170     -0.167125   7 B  dxx               8     -0.159186   1 B  px        
   383      0.159187  16 B  px               78      0.155799   4 B  s         
   404      0.151118  17 N  s               779      0.151112  32 N  s         
 
 Vector   59  Occ=1.000000D+00  E=-7.111585D-01
              MO Center=  5.0D+00, -1.8D-01,  1.7D+00, r^2= 1.5D+01
   Bfn.  Coefficient  Atom+Function         Bfn.  Coefficient  Atom+Function  
  ----- ------------  ---------------      ----- ------------  ---------------
   405      0.178912  17 N  px              780      0.178913  32 N  px        
 
 Vector   60  Occ=1.000000D+00  E=-7.021460D-01
              MO Center=  5.0D+00, -6.2D-01,  1.7D+00, r^2= 2.4D+01
   Bfn.  Coefficient  Atom+Function         Bfn.  Coefficient  Atom+Function  
  ----- ------------  ---------------      ----- ------------  ---------------
    78      0.201706   4 B  s               454     -0.179491  19 N  s         
   579     -0.179492  24 N  s               173     -0.167425   7 B  dyy       
   706      0.152633  29 N  py        
 
 Vector   61  Occ=1.000000D+00  E=-6.880303D-01
              MO Center=  5.0D+00, -4.7D+00,  1.7D+00, r^2= 1.6D+01
   Bfn.  Coefficient  Atom+Function         Bfn.  Coefficient  Atom+Function  
  ----- ------------  ---------------      ----- ------------  ---------------
   705      0.314602  29 N  px              828      0.235360  36 H  s         
   837     -0.235358  37 H  s               829      0.167282  36 H  s         
   838     -0.167284  37 H  s         
 
 Vector   62  Occ=1.000000D+00  E=-6.658301D-01
              MO Center=  5.0D+00, -1.1D+00,  1.7D+00, r^2= 2.0D+01
   Bfn.  Coefficient  Atom+Function         Bfn.  Coefficient  Atom+Function  
  ----- ------------  ---------------      ----- ------------  ---------------
   505      0.185715  21 N  px              755     -0.185715  31 N  px        
   512     -0.166856  21 N  py              762     -0.166853  31 N  py        
   706      0.157187  29 N  py              430      0.151316  18 N  px        
   680     -0.151316  28 N  px        
 
 Vector   63  Occ=1.000000D+00  E=-6.554277D-01
              MO Center=  5.0D+00,  1.0D+00,  1.7D+00, r^2= 2.4D+01
   Bfn.  Coefficient  Atom+Function         Bfn.  Coefficient  Atom+Function  
  ----- ------------  ---------------      ----- ------------  ---------------
    78      0.262694   4 B  s               479      0.246600  20 N  s         
   810     -0.171760  34 H  s               855     -0.171761  39 H  s         
    77      0.166937   4 B  s               173     -0.152276   7 B  dyy       
 
 Vector   64  Occ=1.000000D+00  E=-6.516225D-01
              MO Center=  5.0D+00, -2.1D+00,  1.7D+00, r^2= 2.4D+01
   Bfn.  Coefficient  Atom+Function         Bfn.  Coefficient  Atom+Function  
  ----- ------------  ---------------      ----- ------------  ---------------
   705      0.249829  29 N  px              828      0.193462  36 H  s         
   837     -0.193461  37 H  s               829      0.151273  36 H  s         
   838     -0.151274  37 H  s         
 
 Vector   65  Occ=1.000000D+00  E=-6.428209D-01
              MO Center=  5.0D+00,  1.8D+00,  1.7D+00, r^2= 1.6D+01
   Bfn.  Coefficient  Atom+Function         Bfn.  Coefficient  Atom+Function  
  ----- ------------  ---------------      ----- ------------  ---------------
   404      0.188898  17 N  s               779     -0.188898  32 N  s         
   480      0.176906  20 N  px               56     -0.170878   3 B  py        
   181      0.170879   8 B  py              429     -0.170161  18 N  s         
   679      0.170160  28 N  s               171     -0.162086   7 B  dxy       
   456      0.158232  19 N  py              581     -0.158233  24 N  py        
 
 Vector   66  Occ=1.000000D+00  E=-6.402861D-01
              MO Center=  5.0D+00, -1.2D+00,  1.7D+00, r^2= 1.7D+01
   Bfn.  Coefficient  Atom+Function         Bfn.  Coefficient  Atom+Function  
  ----- ------------  ---------------      ----- ------------  ---------------
   306      0.179531  13 B  py              706     -0.178911  29 N  py        
   227      0.163367  10 B  s               479     -0.159293  20 N  s         
   631      0.158985  26 N  py              245     -0.156214  10 B  dxx       
 
 Vector   67  Occ=1.000000D+00  E=-6.266815D-01
              MO Center=  5.0D+00, -9.3D-03,  1.7D+00, r^2= 2.2D+01
   Bfn.  Coefficient  Atom+Function         Bfn.  Coefficient  Atom+Function  
  ----- ------------  ---------------      ----- ------------  ---------------
   155      0.201031   7 B  px              455     -0.175787  19 N  px        
   580     -0.175786  24 N  px        
 
 Vector   68  Occ=1.000000D+00  E=-6.171135D-01
              MO Center=  5.0D+00,  6.9D-01,  1.7D+00, r^2= 1.7D+01
   Bfn.  Coefficient  Atom+Function         Bfn.  Coefficient  Atom+Function  
  ----- ------------  ---------------      ----- ------------  ---------------
   556     -0.187852  23 N  py              429      0.185283  18 N  s         
   679      0.185285  28 N  s               405      0.173666  17 N  px        
   780     -0.173667  32 N  px               53     -0.165051   3 B  s         
   178     -0.165050   8 B  s               801     -0.156769  33 H  s         
   864     -0.156770  40 H  s         
 
 Vector   69  Occ=1.000000D+00  E=-6.109583D-01
              MO Center=  5.0D+00, -1.4D+00,  1.7D+00, r^2= 2.2D+01
   Bfn.  Coefficient  Atom+Function         Bfn.  Coefficient  Atom+Function  
  ----- ------------  ---------------      ----- ------------  ---------------
   706      0.189237  29 N  py                3     -0.161861   1 B  s         
   378     -0.161869  16 B  s               506     -0.158560  21 N  py        
   756     -0.158569  31 N  py        
 
 Vector   70  Occ=1.000000D+00  E=-6.097565D-01
              MO Center=  5.0D+00, -2.5D+00,  1.7D+00, r^2= 1.5D+01
   Bfn.  Coefficient  Atom+Function         Bfn.  Coefficient  Atom+Function  
  ----- ------------  ---------------      ----- ------------  ---------------
   605      0.211821  25 N  px              730      0.211821  30 N  px        
   819     -0.180674  35 H  s               846      0.180678  38 H  s         
   555     -0.160407  23 N  px              820     -0.156011  35 H  s         
   847      0.156008  38 H  s         
 
 Vector   71  Occ=1.000000D+00  E=-5.892542D-01
              MO Center=  5.0D+00, -2.9D-01,  1.7D+00, r^2= 1.1D+01
   Bfn.  Coefficient  Atom+Function         Bfn.  Coefficient  Atom+Function  
  ----- ------------  ---------------      ----- ------------  ---------------
   531      0.213720  22 N  py              656     -0.213719  27 N  py        
   230      0.163779  10 B  px              454     -0.162595  19 N  s         
   579      0.162605  24 N  s               131     -0.157652   6 B  py        
   256      0.157651  11 B  py        
 
 Vector   72  Occ=1.000000D+00  E=-5.845714D-01
              MO Center=  5.0D+00, -4.5D-01,  1.7D+00, r^2= 1.6D+01
   Bfn.  Coefficient  Atom+Function         Bfn.  Coefficient  Atom+Function  
  ----- ------------  ---------------      ----- ------------  ---------------
   231      0.207221  10 B  py              556      0.183356  23 N  py        
   631     -0.171731  26 N  py              530      0.159798  22 N  px        
   655     -0.159798  27 N  px              156     -0.150551   7 B  py        
   306     -0.151268  13 B  py        
 
 Vector   73  Occ=1.000000D+00  E=-5.804721D-01
              MO Center=  5.0D+00,  3.0D-01,  1.7D+00, r^2= 1.3D+01
   Bfn.  Coefficient  Atom+Function         Bfn.  Coefficient  Atom+Function  
  ----- ------------  ---------------      ----- ------------  ---------------
   555      0.240964  23 N  px              130     -0.162141   6 B  px        
   255     -0.162142  11 B  px              230      0.159844  10 B  px        
    29      0.156453   2 B  s               279     -0.156455  12 B  s         
 
 Vector   74  Occ=1.000000D+00  E=-5.735696D-01
              MO Center=  5.0D+00, -1.7D-01,  1.7D+00, r^2= 8.9D+00
   Bfn.  Coefficient  Atom+Function         Bfn.  Coefficient  Atom+Function  
  ----- ------------  ---------------      ----- ------------  ---------------
   557      0.175465  23 N  pz              532      0.167416  22 N  pz        
   657      0.167416  27 N  pz        
 
 Vector   75  Occ=1.000000D+00  E=-5.724809D-01
              MO Center=  5.0D+00, -2.4D+00,  1.7D+00, r^2= 1.4D+01
   Bfn.  Coefficient  Atom+Function         Bfn.  Coefficient  Atom+Function  
  ----- ------------  ---------------      ----- ------------  ---------------
   630      0.242097  26 N  px              606      0.186261  25 N  py        
   731     -0.186261  30 N  py              206     -0.182339   9 B  py        
   331      0.182340  14 B  py              305      0.175195  13 B  px        
   233     -0.157333  10 B  px        
 
 Vector   76  Occ=1.000000D+00  E=-5.666346D-01
              MO Center=  5.0D+00, -3.1D-01,  1.7D+00, r^2= 1.9D+01
   Bfn.  Coefficient  Atom+Function         Bfn.  Coefficient  Atom+Function  
  ----- ------------  ---------------      ----- ------------  ---------------
   123      0.191990   5 B  dyy             373      0.191989  15 B  dyy       
   631      0.190571  26 N  py              245      0.179714  10 B  dxx       
   323     -0.175298  13 B  dyy             406     -0.168195  17 N  py        
   781     -0.168196  32 N  py               34      0.156142   2 B  py        
   284      0.156140  12 B  py                9      0.155342   1 B  py        
 
 Vector   77  Occ=1.000000D+00  E=-5.514070D-01
              MO Center=  5.0D+00, -1.1D-01,  1.7D+00, r^2= 2.4D+01
   Bfn.  Coefficient  Atom+Function         Bfn.  Coefficient  Atom+Function  
  ----- ------------  ---------------      ----- ------------  ---------------
    84      0.218944   4 B  py               53      0.193126   3 B  s         
   178      0.193126   8 B  s               556      0.183538  23 N  py        
   606     -0.161445  25 N  py              731     -0.161446  30 N  py        
    71      0.160204   3 B  dxy             196     -0.160204   8 B  dxy       
   234     -0.159440  10 B  py              306      0.155200  13 B  py        
 
 Vector   78  Occ=1.000000D+00  E=-5.460467D-01
              MO Center=  5.0D+00, -6.6D-01,  1.7D+00, r^2= 1.9D+01
   Bfn.  Coefficient  Atom+Function         Bfn.  Coefficient  Atom+Function  
  ----- ------------  ---------------      ----- ------------  ---------------
   171      0.348949   7 B  dxy             145      0.259370   6 B  dxx       
   270     -0.259370  11 B  dxx             305     -0.203536  13 B  px        
   431      0.182025  18 N  py              681     -0.182026  28 N  py        
   204     -0.168951   9 B  s               329      0.168934  14 B  s         
   605      0.162820  25 N  px              730      0.162819  30 N  px        
 
 Vector   79  Occ=1.000000D+00  E=-5.444857D-01
              MO Center=  5.0D+00, -4.1D-01,  1.7D+00, r^2= 1.7D+01
   Bfn.  Coefficient  Atom+Function         Bfn.  Coefficient  Atom+Function  
  ----- ------------  ---------------      ----- ------------  ---------------
   632     -0.177286  26 N  pz              457      0.163626  19 N  pz        
   582      0.163625  24 N  pz        
 
 Vector   80  Occ=1.000000D+00  E=-5.280150D-01
              MO Center=  5.0D+00,  5.5D+00,  1.7D+00, r^2= 8.6D+00
   Bfn.  Coefficient  Atom+Function         Bfn.  Coefficient  Atom+Function  
  ----- ------------  ---------------      ----- ------------  ---------------
    81      0.271810   4 B  py              481     -0.271191  20 N  py        
    84      0.242954   4 B  py              554      0.231443  23 N  s         
    55      0.181041   3 B  px              180     -0.181040   8 B  px        
   891     -0.172093  43 H  s               918     -0.172092  46 H  s         
    58      0.163766   3 B  px              183     -0.163763   8 B  px        
 
 Vector   81  Occ=1.000000D+00  E=-5.265220D-01
              MO Center=  5.0D+00, -4.2D-01,  1.7D+00, r^2= 1.1D+01
   Bfn.  Coefficient  Atom+Function         Bfn.  Coefficient  Atom+Function  
  ----- ------------  ---------------      ----- ------------  ---------------
   407      0.179300  17 N  pz              782     -0.179300  32 N  pz        
   432      0.165825  18 N  pz              682     -0.165825  28 N  pz        
 
 Vector   82  Occ=1.000000D+00  E=-5.190792D-01
              MO Center=  5.0D+00, -5.5D-01,  1.7D+00, r^2= 1.2D+01
   Bfn.  Coefficient  Atom+Function         Bfn.  Coefficient  Atom+Function  
  ----- ------------  ---------------      ----- ------------  ---------------
   530      0.212112  22 N  px              655      0.212112  27 N  px        
   436     -0.193495  18 N  px              686     -0.193502  28 N  px        
   129      0.176654   6 B  s               254     -0.176653  11 B  s         
   454      0.167911  19 N  s               579     -0.167920  24 N  s         
   106     -0.154535   5 B  py              356      0.154535  15 B  py        
 
 Vector   83  Occ=1.000000D+00  E=-5.129689D-01
              MO Center=  5.0D+00, -5.6D-01,  1.7D+00, r^2= 2.2D+01
   Bfn.  Coefficient  Atom+Function         Bfn.  Coefficient  Atom+Function  
  ----- ------------  ---------------      ----- ------------  ---------------
   607      0.179965  25 N  pz              732      0.179965  30 N  pz        
   482      0.174233  20 N  pz              457      0.152779  19 N  pz        
   582      0.152779  24 N  pz        
 
 Vector   84  Occ=1.000000D+00  E=-5.115717D-01
              MO Center=  5.0D+00, -4.2D-01,  1.7D+00, r^2= 2.0D+01
   Bfn.  Coefficient  Atom+Function         Bfn.  Coefficient  Atom+Function  
  ----- ------------  ---------------      ----- ------------  ---------------
   631      0.234940  26 N  py              231     -0.176345  10 B  py        
    59      0.172593   3 B  py              184      0.172614   8 B  py        
   436      0.164167  18 N  px              686     -0.164150  28 N  px        
   606      0.160681  25 N  py              731      0.160677  30 N  py        
   154     -0.155718   7 B  s         
 
 Vector   85  Occ=1.000000D+00  E=-5.104346D-01
              MO Center=  5.0D+00, -1.4D+00,  1.7D+00, r^2= 1.3D+01
   Bfn.  Coefficient  Atom+Function         Bfn.  Coefficient  Atom+Function  
  ----- ------------  ---------------      ----- ------------  ---------------
   171      0.359904   7 B  dxy             630     -0.257244  26 N  px        
   145      0.255090   6 B  dxx             270     -0.255079  11 B  dxx       
   461     -0.233322  19 N  px              586     -0.233307  24 N  px        
   148     -0.224435   6 B  dyy             273      0.224424  11 B  dyy       
   146      0.207320   6 B  dxy             271      0.207294  11 B  dxy       
 
 Vector   86  Occ=1.000000D+00  E=-4.969303D-01
              MO Center=  5.0D+00,  3.1D+00,  1.7D+00, r^2= 1.4D+01
   Bfn.  Coefficient  Atom+Function         Bfn.  Coefficient  Atom+Function  
  ----- ------------  ---------------      ----- ------------  ---------------
    33      0.412510   2 B  px              283     -0.412505  12 B  px        
   170     -0.371065   7 B  dxx             154      0.261703   7 B  s         
   173      0.235318   7 B  dyy             882     -0.232370  42 H  s         
   927     -0.232371  47 H  s                30      0.209978   2 B  px        
   280     -0.209979  12 B  px               34     -0.196318   2 B  py        
 
 Vector   87  Occ=1.000000D+00  E=-4.821446D-01
              MO Center=  5.0D+00,  2.0D+00,  1.7D+00, r^2= 1.7D+01
   Bfn.  Coefficient  Atom+Function         Bfn.  Coefficient  Atom+Function  
  ----- ------------  ---------------      ----- ------------  ---------------
    71      0.273456   3 B  dxy             196     -0.273451   8 B  dxy       
     8      0.271439   1 B  px              173      0.272724   7 B  dyy       
   383     -0.271416  16 B  px              170     -0.248143   7 B  dxx       
    84      0.210165   4 B  py              479     -0.211206  20 N  s         
    78     -0.208183   4 B  s               873     -0.199442  41 H  s         
 
 Vector   88  Occ=1.000000D+00  E=-4.808141D-01
              MO Center=  5.0D+00,  2.7D+00,  1.7D+00, r^2= 1.6D+01
   Bfn.  Coefficient  Atom+Function         Bfn.  Coefficient  Atom+Function  
  ----- ------------  ---------------      ----- ------------  ---------------
    62      0.279317   3 B  py              187     -0.279319   8 B  py        
    33      0.235134   2 B  px              283      0.235127  12 B  px        
   882     -0.212583  42 H  s               927      0.212587  47 H  s         
    30      0.186732   2 B  px               86      0.187326   4 B  px        
   280      0.186731  12 B  px              893     -0.184782  43 H  s         
 
 Vector   89  Occ=1.000000D+00  E=-4.784185D-01
              MO Center=  5.0D+00, -2.8D-01,  1.7D+00, r^2= 1.4D+01
   Bfn.  Coefficient  Atom+Function         Bfn.  Coefficient  Atom+Function  
  ----- ------------  ---------------      ----- ------------  ---------------
   507     -0.212424  21 N  pz              757      0.212423  31 N  pz        
   432      0.195648  18 N  pz              682     -0.195647  28 N  pz        
   510     -0.166975  21 N  pz              760      0.166974  31 N  pz        
   435      0.159386  18 N  pz              685     -0.159385  28 N  pz        
   457      0.150012  19 N  pz              582     -0.150012  24 N  pz        
 
 Vector   90  Occ=1.000000D+00  E=-4.760785D-01
              MO Center=  5.0D+00, -1.9D-01,  1.7D+00, r^2= 2.5D+01
   Bfn.  Coefficient  Atom+Function         Bfn.  Coefficient  Atom+Function  
  ----- ------------  ---------------      ----- ------------  ---------------
   482      0.251482  20 N  pz              485      0.204487  20 N  pz        
   707     -0.201259  29 N  pz              557     -0.181277  23 N  pz        
   710     -0.156407  29 N  pz        
 
 Vector   91  Occ=1.000000D+00  E=-4.657259D-01
              MO Center=  5.0D+00,  4.1D+00,  1.7D+00, r^2= 1.5D+01
   Bfn.  Coefficient  Atom+Function         Bfn.  Coefficient  Atom+Function  
  ----- ------------  ---------------      ----- ------------  ---------------
   171      0.382687   7 B  dxy              83     -0.334939   4 B  px        
    58      0.292714   3 B  px              183      0.292730   8 B  px        
    59     -0.234042   3 B  py              184      0.234047   8 B  py        
   461     -0.234960  19 N  px              586     -0.234944  24 N  px        
   145      0.222243   6 B  dxx             270     -0.222249  11 B  dxx       
 
 Vector   92  Occ=1.000000D+00  E=-4.642915D-01
              MO Center=  5.0D+00, -5.8D-01,  1.7D+00, r^2= 1.3D+01
   Bfn.  Coefficient  Atom+Function         Bfn.  Coefficient  Atom+Function  
  ----- ------------  ---------------      ----- ------------  ---------------
   407      0.253006  17 N  pz              782      0.253006  32 N  pz        
   410      0.200219  17 N  pz              785      0.200219  32 N  pz        
   557     -0.166735  23 N  pz              632     -0.152201  26 N  pz        
 
 Vector   93  Occ=1.000000D+00  E=-4.630438D-01
              MO Center=  5.0D+00,  1.0D+00,  1.7D+00, r^2= 1.3D+01
   Bfn.  Coefficient  Atom+Function         Bfn.  Coefficient  Atom+Function  
  ----- ------------  ---------------      ----- ------------  ---------------
   154      0.259382   7 B  s               436     -0.232710  18 N  px        
   686      0.232708  28 N  px               33      0.231022   2 B  px        
   283     -0.231016  12 B  px               34     -0.198211   2 B  py        
   284     -0.198203  12 B  py              170     -0.186709   7 B  dxx       
   131     -0.161102   6 B  py              256     -0.161101  11 B  py        
 
 Vector   94  Occ=1.000000D+00  E=-4.525394D-01
              MO Center=  5.0D+00,  5.6D+00,  1.7D+00, r^2= 1.3D+01
   Bfn.  Coefficient  Atom+Function         Bfn.  Coefficient  Atom+Function  
  ----- ------------  ---------------      ----- ------------  ---------------
    83      0.426530   4 B  px              486     -0.377960  20 N  px        
   561      0.320988  23 N  px               80      0.316025   4 B  px        
   900      0.264937  44 H  s               909     -0.264934  45 H  s         
   462     -0.252251  19 N  py              587      0.252261  24 N  py        
   436      0.236355  18 N  px              686      0.236378  28 N  px        
 
 Vector   95  Occ=1.000000D+00  E=-4.420461D-01
              MO Center=  5.0D+00,  3.2D+00,  1.7D+00, r^2= 1.2D+01
   Bfn.  Coefficient  Atom+Function         Bfn.  Coefficient  Atom+Function  
  ----- ------------  ---------------      ----- ------------  ---------------
   461     -0.238828  19 N  px              586     -0.238838  24 N  px        
    33      0.221076   2 B  px              283      0.221080  12 B  px        
   171      0.212406   7 B  dxy             129      0.209279   6 B  s         
   254     -0.209282  11 B  s               486     -0.208370  20 N  px        
   455     -0.181692  19 N  px              580     -0.181692  24 N  px        
 
 Vector   96  Occ=1.000000D+00  E=-4.389996D-01
              MO Center=  5.0D+00, -3.1D-01,  1.7D+00, r^2= 1.8D+01
   Bfn.  Coefficient  Atom+Function         Bfn.  Coefficient  Atom+Function  
  ----- ------------  ---------------      ----- ------------  ---------------
   457      0.220785  19 N  pz              582     -0.220786  24 N  pz        
   460      0.181531  19 N  pz              585     -0.181531  24 N  pz        
   607      0.179492  25 N  pz              732     -0.179492  30 N  pz        
   407     -0.171520  17 N  pz              782      0.171520  32 N  pz        
 
 Vector   97  Occ=1.000000D+00  E=-4.369616D-01
              MO Center=  5.0D+00, -1.2D-01,  1.7D+00, r^2= 2.6D+01
   Bfn.  Coefficient  Atom+Function         Bfn.  Coefficient  Atom+Function  
  ----- ------------  ---------------      ----- ------------  ---------------
   482      0.272949  20 N  pz              707      0.249776  29 N  pz        
   485      0.226096  20 N  pz              710      0.194053  29 N  pz        
   532      0.161649  22 N  pz              657      0.161648  27 N  pz        
 
 Vector   98  Occ=1.000000D+00  E=-4.132593D-01
              MO Center=  5.0D+00, -5.3D-01,  1.7D+00, r^2= 1.5D+01
   Bfn.  Coefficient  Atom+Function         Bfn.  Coefficient  Atom+Function  
  ----- ------------  ---------------      ----- ------------  ---------------
   432      0.225222  18 N  pz              682      0.225221  28 N  pz        
   632      0.216084  26 N  pz              435      0.186193  18 N  pz        
   685      0.186193  28 N  pz              635      0.177820  26 N  pz        
   507     -0.162294  21 N  pz              757     -0.162295  31 N  pz        
   557     -0.158341  23 N  pz              707     -0.153515  29 N  pz        
 
 Vector   99  Occ=1.000000D+00  E=-4.036355D-01
              MO Center=  5.0D+00, -1.7D-01,  1.7D+00, r^2= 9.8D+00
   Bfn.  Coefficient  Atom+Function         Bfn.  Coefficient  Atom+Function  
  ----- ------------  ---------------      ----- ------------  ---------------
   407      0.255541  17 N  pz              782     -0.255541  32 N  pz        
   532     -0.252143  22 N  pz              657      0.252144  27 N  pz        
   410      0.207457  17 N  pz              535     -0.208181  22 N  pz        
   660      0.208181  27 N  pz              785     -0.207457  32 N  pz        
 
 Vector  100  Occ=1.000000D+00  E=-4.005500D-01
              MO Center=  5.0D+00,  4.1D-01,  1.7D+00, r^2= 2.0D+01
   Bfn.  Coefficient  Atom+Function         Bfn.  Coefficient  Atom+Function  
  ----- ------------  ---------------      ----- ------------  ---------------
   557      0.275052  23 N  pz              560      0.228495  23 N  pz        
   707     -0.209274  29 N  pz              482      0.204714  20 N  pz        
   457     -0.177897  19 N  pz              582     -0.177903  24 N  pz        
   485      0.173143  20 N  pz              710     -0.163990  29 N  pz        
 
 Vector  101  Occ=1.000000D+00  E=-3.992281D-01
              MO Center=  5.0D+00, -8.6D-01,  1.7D+00, r^2= 1.7D+01
   Bfn.  Coefficient  Atom+Function         Bfn.  Coefficient  Atom+Function  
  ----- ------------  ---------------      ----- ------------  ---------------
   607      0.244427  25 N  pz              732     -0.244425  30 N  pz        
   610      0.197541  25 N  pz              735     -0.197539  30 N  pz        
   457     -0.191917  19 N  pz              582      0.191913  24 N  pz        
   432      0.174090  18 N  pz              682     -0.174089  28 N  pz        
   460     -0.161407  19 N  pz              585      0.161403  24 N  pz        
 
 Vector  102  Occ=1.000000D+00  E=-3.809454D-01
              MO Center=  5.0D+00, -2.4D+00,  1.7D+00, r^2= 1.6D+01
   Bfn.  Coefficient  Atom+Function         Bfn.  Coefficient  Atom+Function  
  ----- ------------  ---------------      ----- ------------  ---------------
   707      0.231803  29 N  pz              507      0.219177  21 N  pz        
   757      0.219177  31 N  pz              407     -0.196542  17 N  pz        
   782     -0.196542  32 N  pz              710      0.179145  29 N  pz        
   510      0.173653  21 N  pz              760      0.173653  31 N  pz        
   410     -0.158647  17 N  pz              785     -0.158647  32 N  pz        
 
 Vector  103  Occ=1.000000D+00  E=-3.697660D-01
              MO Center=  5.0D+00, -2.6D+00,  1.7D+00, r^2= 1.1D+01
   Bfn.  Coefficient  Atom+Function         Bfn.  Coefficient  Atom+Function  
  ----- ------------  ---------------      ----- ------------  ---------------
   632      0.312242  26 N  pz              635      0.262051  26 N  pz        
   707      0.223241  29 N  pz              557      0.192899  23 N  pz        
   710      0.176169  29 N  pz              607     -0.165480  25 N  pz        
   732     -0.165477  30 N  pz              560      0.162595  23 N  pz        
   532     -0.155234  22 N  pz              657     -0.155232  27 N  pz        
 
 Vector  104  Occ=1.000000D+00  E=-3.665674D-01
              MO Center=  5.0D+00, -2.0D+00,  1.7D+00, r^2= 1.2D+01
   Bfn.  Coefficient  Atom+Function         Bfn.  Coefficient  Atom+Function  
  ----- ------------  ---------------      ----- ------------  ---------------
   507      0.226125  21 N  pz              757     -0.226124  31 N  pz        
   607     -0.218931  25 N  pz              732      0.218933  30 N  pz        
   510      0.183749  21 N  pz              760     -0.183748  31 N  pz        
   610     -0.178961  25 N  pz              735      0.178963  30 N  pz        
   532     -0.175461  22 N  pz              657      0.175463  27 N  pz        
 
 Vector  105  Occ=0.000000D+00  E= 2.156158D-02
              MO Center=  5.0D+00, -6.8D+00,  1.7D+00, r^2= 3.1D+01
   Bfn.  Coefficient  Atom+Function         Bfn.  Coefficient  Atom+Function  
  ----- ------------  ---------------      ----- ------------  ---------------
   304     10.742488  13 B  s               479      3.931061  20 N  s         
   629      3.307587  26 N  s               204     -3.138730   9 B  s         
   329     -3.137244  14 B  s               312      3.062400  13 B  py        
   212      2.669592   9 B  py              337      2.669113  14 B  py        
   229     -2.499526  10 B  s                54     -2.450868   3 B  s         
 
 Vector  106  Occ=0.000000D+00  E= 2.563006D-02
              MO Center=  5.0D+00, -3.5D+00,  1.7D+00, r^2= 4.9D+01
   Bfn.  Coefficient  Atom+Function         Bfn.  Coefficient  Atom+Function  
  ----- ------------  ---------------      ----- ------------  ---------------
   204      8.140526   9 B  s               329     -8.140081  14 B  s         
   404     -3.224487  17 N  s               779      3.224518  32 N  s         
   104      3.027904   5 B  s               354     -3.027878  15 B  s         
   129     -2.854475   6 B  s               254      2.854313  11 B  s         
   604     -2.743822  25 N  s               729      2.743645  30 N  s         
 
 Vector  107  Occ=0.000000D+00  E= 3.326743D-02
              MO Center=  5.0D+00, -2.9D+00,  1.7D+00, r^2= 5.7D+01
   Bfn.  Coefficient  Atom+Function         Bfn.  Coefficient  Atom+Function  
  ----- ------------  ---------------      ----- ------------  ---------------
   304      8.526439  13 B  s               237      3.225753  10 B  py        
   875     -3.145260  41 H  s               938     -3.145046  48 H  s         
   312      3.031826  13 B  py               11     -2.853892   1 B  px        
   386      2.853861  16 B  px              212      2.818911   9 B  py        
   337      2.818907  14 B  py              529     -2.546227  22 N  s         
 
 Vector  108  Occ=0.000000D+00  E= 3.922202D-02
              MO Center=  5.0D+00, -9.1D-01,  1.7D+00, r^2= 7.1D+01
   Bfn.  Coefficient  Atom+Function         Bfn.  Coefficient  Atom+Function  
  ----- ------------  ---------------      ----- ------------  ---------------
   204      5.871056   9 B  s               329     -5.871486  14 B  s         
     4     -4.884063   1 B  s               379      4.884471  16 B  s         
   129      3.330009   6 B  s               254     -3.330350  11 B  s         
   211      2.795439   9 B  px              336      2.795204  14 B  px        
    11     -2.416011   1 B  px              386     -2.415855  16 B  px        
 
 Vector  109  Occ=0.000000D+00  E= 3.973681D-02
              MO Center=  5.0D+00,  6.1D+00,  1.7D+00, r^2= 5.2D+01
   Bfn.  Coefficient  Atom+Function         Bfn.  Coefficient  Atom+Function  
  ----- ------------  ---------------      ----- ------------  ---------------
    79      5.930582   4 B  s               554      5.871546  23 N  s         
   204     -4.081948   9 B  s               329     -4.081708  14 B  s         
   137     -3.566099   6 B  py              262     -3.565894  11 B  py        
   629      3.417806  26 N  s               504      3.178945  21 N  s         
   754      3.178882  31 N  s                62     -3.154370   3 B  py        
 
 Vector  110  Occ=0.000000D+00  E= 4.445081D-02
              MO Center=  5.0D+00,  7.0D-02,  1.7D+00, r^2= 4.2D+01
   Bfn.  Coefficient  Atom+Function         Bfn.  Coefficient  Atom+Function  
  ----- ------------  ---------------      ----- ------------  ---------------
   113      0.756772   5 B  pz              363      0.756774  15 B  pz        
   313      0.645937  13 B  pz              238     -0.440369  10 B  pz        
   413     -0.354638  17 N  pz              788     -0.354638  32 N  pz        
   438     -0.324200  18 N  pz              688     -0.324199  28 N  pz        
   163      0.314953   7 B  pz              488     -0.302167  20 N  pz        
 
 Vector  111  Occ=0.000000D+00  E= 4.804816D-02
              MO Center=  5.0D+00,  7.1D-01,  1.7D+00, r^2= 8.1D+01
   Bfn.  Coefficient  Atom+Function         Bfn.  Coefficient  Atom+Function  
  ----- ------------  ---------------      ----- ------------  ---------------
   162      4.513109   7 B  py              104     -4.092990   5 B  s         
   354     -4.093471  15 B  s               304      3.614968  13 B  s         
    11      3.324598   1 B  px              386     -3.324657  16 B  px        
   875      3.224376  41 H  s               938      3.224442  48 H  s         
     4      2.501923   1 B  s               379      2.501758  16 B  s         
 
 Vector  112  Occ=0.000000D+00  E= 4.934277D-02
              MO Center=  5.0D+00,  1.6D+00,  1.7D+00, r^2= 3.8D+01
   Bfn.  Coefficient  Atom+Function         Bfn.  Coefficient  Atom+Function  
  ----- ------------  ---------------      ----- ------------  ---------------
   554      4.623715  23 N  s               504      4.294739  21 N  s         
   754      4.295420  31 N  s               304     -3.861761  13 B  s         
   454      3.385262  19 N  s               579      3.386354  24 N  s         
   529      3.368944  22 N  s               654      3.368908  27 N  s         
   629      3.212140  26 N  s               604      2.848377  25 N  s         
 
 Vector  113  Occ=0.000000D+00  E= 4.964028D-02
              MO Center=  5.0D+00,  2.8D+00,  1.7D+00, r^2= 7.5D+01
   Bfn.  Coefficient  Atom+Function         Bfn.  Coefficient  Atom+Function  
  ----- ------------  ---------------      ----- ------------  ---------------
    54      7.011426   3 B  s               179     -7.010902   8 B  s         
    86      5.792359   4 B  px               62      4.405299   3 B  py        
   187     -4.405672   8 B  py              902     -4.182619  44 H  s         
   911      4.183119  45 H  s               454     -3.688595  19 N  s         
   579      3.686916  24 N  s               884      3.403415  42 H  s         
 
 Vector  114  Occ=0.000000D+00  E= 5.186490D-02
              MO Center=  5.0D+00,  7.8D-01,  1.7D+00, r^2= 5.9D+01
   Bfn.  Coefficient  Atom+Function         Bfn.  Coefficient  Atom+Function  
  ----- ------------  ---------------      ----- ------------  ---------------
   313      1.234564  13 B  pz              113      0.859111   5 B  pz        
   363      0.859112  15 B  pz              488      0.581871  20 N  pz        
   238     -0.559753  10 B  pz               88     -0.552329   4 B  pz        
   613     -0.381031  25 N  pz              738     -0.381031  30 N  pz        
   713     -0.343514  29 N  pz               63     -0.221680   3 B  pz        
 
 Vector  115  Occ=0.000000D+00  E= 5.634906D-02
              MO Center=  5.0D+00,  3.6D-01,  1.7D+00, r^2= 4.4D+01
   Bfn.  Coefficient  Atom+Function         Bfn.  Coefficient  Atom+Function  
  ----- ------------  ---------------      ----- ------------  ---------------
   138      1.179492   6 B  pz              263     -1.179495  11 B  pz        
    13     -0.975769   1 B  pz              388      0.975765  16 B  pz        
   213     -0.593097   9 B  pz              338      0.593092  14 B  pz        
   113     -0.527979   5 B  pz              363      0.527983  15 B  pz        
   413      0.476523  17 N  pz              788     -0.476523  32 N  pz        
 
 Vector  116  Occ=0.000000D+00  E= 6.039704D-02
              MO Center=  5.0D+00,  6.3D-01,  1.7D+00, r^2= 8.9D+01
   Bfn.  Coefficient  Atom+Function         Bfn.  Coefficient  Atom+Function  
  ----- ------------  ---------------      ----- ------------  ---------------
    86      9.774983   4 B  px               62      9.525016   3 B  py        
   187     -9.525174   8 B  py              161     -7.552191   7 B  px        
   902     -6.610877  44 H  s               911      6.611019  45 H  s         
    54      6.257408   3 B  s               179     -6.258471   8 B  s         
   875     -5.127208  41 H  s               938      5.128529  48 H  s         
 
 Vector  117  Occ=0.000000D+00  E= 6.098570D-02
              MO Center=  5.0D+00,  1.1D+00,  1.7D+00, r^2= 7.5D+01
   Bfn.  Coefficient  Atom+Function         Bfn.  Coefficient  Atom+Function  
  ----- ------------  ---------------      ----- ------------  ---------------
    54      5.886171   3 B  s               179      5.884997   8 B  s         
   479     -5.116455  20 N  s                79     -4.595258   4 B  s         
   162     -4.152086   7 B  py               29      3.995570   2 B  s         
   279      3.995715  12 B  s               154     -3.671478   7 B  s         
   504     -3.288659  21 N  s               754     -3.288971  31 N  s         
 
 Vector  118  Occ=0.000000D+00  E= 6.219775D-02
              MO Center=  5.0D+00,  7.8D-01,  1.7D+00, r^2= 6.4D+01
   Bfn.  Coefficient  Atom+Function         Bfn.  Coefficient  Atom+Function  
  ----- ------------  ---------------      ----- ------------  ---------------
   313      1.805958  13 B  pz               88      0.960451   4 B  pz        
    13     -0.762247   1 B  pz              388     -0.762251  16 B  pz        
   213     -0.750818   9 B  pz              338     -0.750823  14 B  pz        
   713     -0.465520  29 N  pz              238      0.438335  10 B  pz        
   488     -0.431358  20 N  pz              138     -0.351885   6 B  pz        
 
 Vector  119  Occ=0.000000D+00  E= 6.415761D-02
              MO Center=  5.0D+00, -6.2D-01,  1.7D+00, r^2= 6.1D+01
   Bfn.  Coefficient  Atom+Function         Bfn.  Coefficient  Atom+Function  
  ----- ------------  ---------------      ----- ------------  ---------------
   154     10.663183   7 B  s               104      5.129140   5 B  s         
   354      5.128535  15 B  s                36     -4.997871   2 B  px        
   286      4.998201  12 B  px              504     -4.865273  21 N  s         
   754     -4.865405  31 N  s               884     -4.582290  42 H  s         
   929     -4.582756  47 H  s               229     -4.521181  10 B  s         
 
 Vector  120  Occ=0.000000D+00  E= 6.850455D-02
              MO Center=  5.0D+00, -1.0D-01,  1.7D+00, r^2= 5.1D+01
   Bfn.  Coefficient  Atom+Function         Bfn.  Coefficient  Atom+Function  
  ----- ------------  ---------------      ----- ------------  ---------------
    86      4.496125   4 B  px              129     -4.462316   6 B  s         
   254      4.463022  11 B  s               812     -4.378064  34 H  s         
   857      4.378059  39 H  s               404     -3.848154  17 N  s         
[...]
   113      1.717102   5 B  pz              363     -1.717102  15 B  pz        
   413     -1.579599  17 N  pz              788      1.579594  32 N  pz        
   147     -1.420075   6 B  dxz             213     -1.415089   9 B  pz        
   272     -1.420072  11 B  dxz             338      1.415080  14 B  pz        
 
 Vector  297  Occ=0.000000D+00  E= 5.005529D-01
              MO Center=  5.0D+00,  1.8D+00,  1.7D+00, r^2= 3.1D+01
   Bfn.  Coefficient  Atom+Function         Bfn.  Coefficient  Atom+Function  
  ----- ------------  ---------------      ----- ------------  ---------------
   529     13.446835  22 N  s               654    -13.442840  27 N  s         
   454    -11.773821  19 N  s               579     11.775092  24 N  s         
   436     10.863526  18 N  px              686     10.860098  28 N  px        
   161      8.378473   7 B  px              429     -8.343927  18 N  s         
   679      8.344946  28 N  s               812     -8.199337  34 H  s         
 

 center of mass
 --------------
 x =   9.46371063 y =  -0.18953147 z =   3.14696128

 moments of inertia (a.u.)
 ------------------
       19155.010955393758          -0.000574376282          -0.000751488398
          -0.000574376282        6226.010879148279           0.000403643828
          -0.000751488398           0.000403643828       25381.021834494957
 
  Mulliken analysis of the total density
  --------------------------------------

    Atom       Charge   Shell Charges
 -----------   ------   -------------------------------------------------------
    1 B    5     5.88   2.01  0.60  0.59  0.22  1.54  0.63 -0.00  0.24  0.05
    2 B    5     5.97   2.01  0.61  0.55  0.08  1.53  0.78  0.04  0.25  0.12
    3 B    5     5.74   2.01  0.61  0.54  0.09  1.52  0.64 -0.04  0.24  0.13
    4 B    5     6.36   2.01  0.61  0.75  0.01  1.48  1.34  0.07  0.11 -0.02
    5 B    5     4.13   2.01  0.60  0.08  0.03  1.57 -0.35 -0.08  0.41 -0.14
    6 B    5     4.16   2.01  0.60  0.14 -0.12  1.56 -0.23 -0.06  0.42 -0.17
    7 B    5     4.09   2.01  0.60 -0.04 -0.12  1.56 -0.21 -0.11  0.41 -0.01
    8 B    5     5.74   2.01  0.61  0.54  0.09  1.52  0.64 -0.04  0.24  0.13
    9 B    5     4.10   2.01  0.60  0.14 -0.03  1.58 -0.38 -0.04  0.41 -0.18
   10 B    5     4.33   2.01  0.60  0.19  0.03  1.57 -0.26 -0.15  0.43 -0.09
   11 B    5     4.16   2.01  0.60  0.14 -0.12  1.56 -0.23 -0.06  0.42 -0.17
   12 B    5     5.97   2.01  0.61  0.55  0.08  1.53  0.78  0.04  0.25  0.12
   13 B    5     4.16   2.01  0.59  0.09  0.10  1.58 -0.41 -0.03  0.39 -0.16
   14 B    5     4.10   2.01  0.60  0.14 -0.03  1.58 -0.38 -0.04  0.41 -0.18
   15 B    5     4.13   2.01  0.60  0.08  0.03  1.57 -0.35 -0.08  0.41 -0.14
   16 B    5     5.88   2.01  0.60  0.59  0.22  1.54  0.63 -0.00  0.24  0.05
   17 N    7     7.21   2.01  0.71  0.52  0.31  2.44  1.25 -0.02  0.05 -0.07
   18 N    7     7.14   2.01  0.71  0.52  0.39  2.45  1.30 -0.20  0.06 -0.09
   19 N    7     7.04   2.01  0.71  0.51  0.23  2.45  1.29 -0.11  0.06 -0.09
   20 N    7     6.66   2.01  0.71  0.52  0.17  2.44  1.33 -0.46  0.06 -0.11
   21 N    7     7.39   2.01  0.71  0.52  0.36  2.45  1.24  0.12  0.05 -0.06
   22 N    7     7.38   2.01  0.70  0.52  0.23  2.46  1.27  0.21  0.05 -0.07
   23 N    7     7.46   2.01  0.71  0.52  0.29  2.46  1.24  0.26  0.06 -0.08
   24 N    7     7.04   2.01  0.71  0.51  0.23  2.45  1.29 -0.11  0.06 -0.09
   25 N    7     7.33   2.01  0.71  0.51  0.26  2.45  1.26  0.15  0.05 -0.07
   26 N    7     7.39   2.01  0.70  0.53  0.33  2.46  1.29  0.09  0.05 -0.07
   27 N    7     7.38   2.01  0.70  0.52  0.23  2.46  1.27  0.21  0.05 -0.07
   28 N    7     7.14   2.01  0.71  0.52  0.39  2.45  1.30 -0.20  0.06 -0.09
   29 N    7     6.97   2.01  0.71  0.52 -0.01  2.44  1.23  0.10  0.04 -0.07
   30 N    7     7.33   2.01  0.71  0.51  0.26  2.45  1.26  0.15  0.05 -0.07
   31 N    7     7.39   2.01  0.71  0.52  0.36  2.45  1.24  0.12  0.05 -0.06
   32 N    7     7.21   2.01  0.71  0.52  0.31  2.44  1.25 -0.02  0.05 -0.07
   33 H    1     1.26   0.76  0.39  0.05  0.05  0.01
   34 H    1     1.28   0.76  0.42  0.03  0.05  0.01
   35 H    1     1.29   0.76  0.43  0.03  0.05  0.02
   36 H    1     1.12   0.76  0.31  0.00  0.06 -0.01
   37 H    1     1.12   0.76  0.31  0.00  0.06 -0.01
   38 H    1     1.29   0.76  0.43  0.03  0.05  0.02
   39 H    1     1.28   0.76  0.42  0.03  0.05  0.01
   40 H    1     1.26   0.76  0.39  0.05  0.05  0.01
   41 H    1     0.43   0.78 -0.29 -0.05  0.02 -0.04
   42 H    1     0.47   0.78 -0.39  0.09  0.02 -0.04
   43 H    1     0.45   0.78 -0.34  0.02  0.02 -0.03
   44 H    1     0.54   0.77 -0.24 -0.02  0.02  0.01
   45 H    1     0.54   0.77 -0.24 -0.02  0.02  0.01
   46 H    1     0.45   0.78 -0.34  0.02  0.02 -0.03
   47 H    1     0.47   0.78 -0.39  0.09  0.02 -0.04
   48 H    1     0.43   0.78 -0.29 -0.05  0.02 -0.04
 
  Mulliken analysis of the alpha density
  --------------------------------------

    Atom       Charge   Shell Charges
 -----------   ------   -------------------------------------------------------
    1 B    5     2.94   1.00  0.30  0.30  0.11  0.77  0.31 -0.00  0.12  0.03
    2 B    5     2.98   1.00  0.31  0.28  0.04  0.77  0.39  0.02  0.12  0.06
    3 B    5     2.87   1.00  0.30  0.27  0.05  0.76  0.32 -0.02  0.12  0.06
    4 B    5     3.18   1.00  0.30  0.38  0.00  0.74  0.67  0.04  0.06 -0.01
    5 B    5     2.07   1.00  0.30  0.04  0.01  0.79 -0.17 -0.04  0.20 -0.07
    6 B    5     2.08   1.00  0.30  0.07 -0.06  0.78 -0.12 -0.03  0.21 -0.08
    7 B    5     2.04   1.00  0.30 -0.02 -0.06  0.78 -0.11 -0.06  0.21 -0.00
    8 B    5     2.87   1.00  0.30  0.27  0.05  0.76  0.32 -0.02  0.12  0.06
    9 B    5     2.05   1.00  0.30  0.07 -0.02  0.79 -0.19 -0.02  0.20 -0.09
   10 B    5     2.16   1.00  0.30  0.10  0.01  0.78 -0.13 -0.07  0.21 -0.04
   11 B    5     2.08   1.00  0.30  0.07 -0.06  0.78 -0.12 -0.03  0.21 -0.08
   12 B    5     2.98   1.00  0.31  0.28  0.04  0.77  0.39  0.02  0.12  0.06
   13 B    5     2.08   1.00  0.30  0.04  0.05  0.79 -0.20 -0.02  0.19 -0.08
   14 B    5     2.05   1.00  0.30  0.07 -0.02  0.79 -0.19 -0.02  0.20 -0.09
   15 B    5     2.07   1.00  0.30  0.04  0.01  0.79 -0.17 -0.04  0.20 -0.07
   16 B    5     2.94   1.00  0.30  0.30  0.11  0.77  0.31 -0.00  0.12  0.03
   17 N    7     3.61   1.00  0.36  0.26  0.16  1.22  0.62 -0.01  0.02 -0.03
   18 N    7     3.57   1.00  0.35  0.26  0.20  1.22  0.65 -0.10  0.03 -0.04
   19 N    7     3.52   1.00  0.35  0.26  0.11  1.23  0.65 -0.06  0.03 -0.05
   20 N    7     3.33   1.00  0.35  0.26  0.09  1.22  0.67 -0.23  0.03 -0.06
   21 N    7     3.70   1.00  0.36  0.26  0.18  1.22  0.62  0.06  0.02 -0.03
   22 N    7     3.69   1.00  0.35  0.26  0.11  1.23  0.63  0.11  0.03 -0.04
   23 N    7     3.73   1.00  0.35  0.26  0.14  1.23  0.62  0.13  0.03 -0.04
   24 N    7     3.52   1.00  0.35  0.26  0.11  1.23  0.65 -0.06  0.03 -0.05
   25 N    7     3.66   1.00  0.36  0.26  0.13  1.22  0.63  0.08  0.02 -0.03
   26 N    7     3.69   1.00  0.35  0.26  0.17  1.23  0.64  0.05  0.03 -0.04
   27 N    7     3.69   1.00  0.35  0.26  0.11  1.23  0.63  0.11  0.03 -0.04
   28 N    7     3.57   1.00  0.35  0.26  0.20  1.22  0.65 -0.10  0.03 -0.04
   29 N    7     3.48   1.00  0.36  0.26 -0.01  1.22  0.61  0.05  0.02 -0.03
   30 N    7     3.66   1.00  0.36  0.26  0.13  1.22  0.63  0.08  0.02 -0.03
   31 N    7     3.70   1.00  0.36  0.26  0.18  1.22  0.62  0.06  0.02 -0.03
   32 N    7     3.61   1.00  0.36  0.26  0.16  1.22  0.62 -0.01  0.02 -0.03
   33 H    1     0.63   0.38  0.19  0.02  0.03  0.00
   34 H    1     0.64   0.38  0.21  0.01  0.03  0.01
   35 H    1     0.65   0.38  0.21  0.01  0.03  0.01
   36 H    1     0.56   0.38  0.16  0.00  0.03 -0.00
   37 H    1     0.56   0.38  0.16  0.00  0.03 -0.00
   38 H    1     0.65   0.38  0.21  0.01  0.03  0.01
   39 H    1     0.64   0.38  0.21  0.01  0.03  0.01
   40 H    1     0.63   0.38  0.19  0.02  0.03  0.00
   41 H    1     0.21   0.39 -0.14 -0.02  0.01 -0.02
   42 H    1     0.23   0.39 -0.19  0.05  0.01 -0.02
   43 H    1     0.23   0.39 -0.17  0.01  0.01 -0.01
   44 H    1     0.27   0.39 -0.12 -0.01  0.01  0.01
   45 H    1     0.27   0.39 -0.12 -0.01  0.01  0.01
   46 H    1     0.23   0.39 -0.17  0.01  0.01 -0.01
   47 H    1     0.23   0.39 -0.19  0.05  0.01 -0.02
   48 H    1     0.21   0.39 -0.14 -0.02  0.01 -0.02
 
   Mulliken analysis of the beta density
   -------------------------------------

    Atom       Charge   Shell Charges
 -----------   ------   -------------------------------------------------------
    1 B    5     2.94   1.00  0.30  0.30  0.11  0.77  0.31 -0.00  0.12  0.03
    2 B    5     2.98   1.00  0.31  0.28  0.04  0.77  0.39  0.02  0.12  0.06
    3 B    5     2.87   1.00  0.30  0.27  0.05  0.76  0.32 -0.02  0.12  0.06
    4 B    5     3.18   1.00  0.30  0.38  0.00  0.74  0.67  0.04  0.06 -0.01
    5 B    5     2.07   1.00  0.30  0.04  0.01  0.79 -0.17 -0.04  0.20 -0.07
    6 B    5     2.08   1.00  0.30  0.07 -0.06  0.78 -0.12 -0.03  0.21 -0.08
    7 B    5     2.04   1.00  0.30 -0.02 -0.06  0.78 -0.11 -0.06  0.21 -0.00
    8 B    5     2.87   1.00  0.30  0.27  0.05  0.76  0.32 -0.02  0.12  0.06
    9 B    5     2.05   1.00  0.30  0.07 -0.02  0.79 -0.19 -0.02  0.20 -0.09
   10 B    5     2.16   1.00  0.30  0.10  0.01  0.78 -0.13 -0.07  0.21 -0.04
   11 B    5     2.08   1.00  0.30  0.07 -0.06  0.78 -0.12 -0.03  0.21 -0.08
   12 B    5     2.98   1.00  0.31  0.28  0.04  0.77  0.39  0.02  0.12  0.06
   13 B    5     2.08   1.00  0.30  0.04  0.05  0.79 -0.20 -0.02  0.19 -0.08
   14 B    5     2.05   1.00  0.30  0.07 -0.02  0.79 -0.19 -0.02  0.20 -0.09
   15 B    5     2.07   1.00  0.30  0.04  0.01  0.79 -0.17 -0.04  0.20 -0.07
   16 B    5     2.94   1.00  0.30  0.30  0.11  0.77  0.31 -0.00  0.12  0.03
   17 N    7     3.61   1.00  0.36  0.26  0.16  1.22  0.62 -0.01  0.02 -0.03
   18 N    7     3.57   1.00  0.35  0.26  0.20  1.22  0.65 -0.10  0.03 -0.04
   19 N    7     3.52   1.00  0.35  0.26  0.11  1.23  0.65 -0.06  0.03 -0.05
   20 N    7     3.33   1.00  0.35  0.26  0.09  1.22  0.67 -0.23  0.03 -0.06
   21 N    7     3.70   1.00  0.36  0.26  0.18  1.22  0.62  0.06  0.02 -0.03
   22 N    7     3.69   1.00  0.35  0.26  0.11  1.23  0.63  0.11  0.03 -0.04
   23 N    7     3.73   1.00  0.35  0.26  0.14  1.23  0.62  0.13  0.03 -0.04
   24 N    7     3.52   1.00  0.35  0.26  0.11  1.23  0.65 -0.06  0.03 -0.05
   25 N    7     3.66   1.00  0.36  0.26  0.13  1.22  0.63  0.08  0.02 -0.03
   26 N    7     3.69   1.00  0.35  0.26  0.17  1.23  0.64  0.05  0.03 -0.04
   27 N    7     3.69   1.00  0.35  0.26  0.11  1.23  0.63  0.11  0.03 -0.04
   28 N    7     3.57   1.00  0.35  0.26  0.20  1.22  0.65 -0.10  0.03 -0.04
   29 N    7     3.48   1.00  0.36  0.26 -0.01  1.22  0.61  0.05  0.02 -0.03
   30 N    7     3.66   1.00  0.36  0.26  0.13  1.22  0.63  0.08  0.02 -0.03
   31 N    7     3.70   1.00  0.36  0.26  0.18  1.22  0.62  0.06  0.02 -0.03
   32 N    7     3.61   1.00  0.36  0.26  0.16  1.22  0.62 -0.01  0.02 -0.03
   33 H    1     0.63   0.38  0.19  0.02  0.03  0.00
   34 H    1     0.64   0.38  0.21  0.01  0.03  0.01
   35 H    1     0.65   0.38  0.21  0.01  0.03  0.01
   36 H    1     0.56   0.38  0.16  0.00  0.03 -0.00
   37 H    1     0.56   0.38  0.16  0.00  0.03 -0.00
   38 H    1     0.65   0.38  0.21  0.01  0.03  0.01
   39 H    1     0.64   0.38  0.21  0.01  0.03  0.01
   40 H    1     0.63   0.38  0.19  0.02  0.03  0.00
   41 H    1     0.21   0.39 -0.14 -0.02  0.01 -0.02
   42 H    1     0.23   0.39 -0.19  0.05  0.01 -0.02
   43 H    1     0.23   0.39 -0.17  0.01  0.01 -0.01
   44 H    1     0.27   0.39 -0.12 -0.01  0.01  0.01
   45 H    1     0.27   0.39 -0.12 -0.01  0.01  0.01
   46 H    1     0.23   0.39 -0.17  0.01  0.01 -0.01
   47 H    1     0.23   0.39 -0.19  0.05  0.01 -0.02
   48 H    1     0.21   0.39 -0.14 -0.02  0.01 -0.02
 
   Mulliken analysis of the spin density
   -------------------------------------

    Atom       Charge   Shell Charges
 -----------   ------   -------------------------------------------------------
    1 B    5    -0.00   0.00  0.00  0.00 -0.00  0.00  0.00 -0.00  0.00 -0.00
    2 B    5    -0.00   0.00 -0.00 -0.00  0.00  0.00 -0.00  0.00  0.00 -0.00
    3 B    5     0.00   0.00  0.00  0.00 -0.00 -0.00  0.00  0.00  0.00  0.00
    4 B    5    -0.00   0.00 -0.00  0.00 -0.00  0.00  0.00 -0.00  0.00 -0.00
    5 B    5     0.00  -0.00 -0.00  0.00  0.00  0.00 -0.00 -0.00  0.00 -0.00
    6 B    5     0.00   0.00  0.00 -0.00  0.00  0.00  0.00  0.00  0.00  0.00
    7 B    5    -0.00  -0.00 -0.00 -0.00 -0.00 -0.00  0.00 -0.00  0.00  0.00
    8 B    5     0.00  -0.00  0.00  0.00  0.00  0.00 -0.00  0.00  0.00  0.00
    9 B    5     0.00   0.00  0.00  0.00  0.00  0.00  0.00 -0.00 -0.00  0.00
   10 B    5    -0.00  -0.00 -0.00  0.00 -0.00 -0.00 -0.00  0.00 -0.00 -0.00
   11 B    5    -0.00  -0.00 -0.00  0.00 -0.00 -0.00  0.00 -0.00  0.00  0.00
   12 B    5     0.00  -0.00  0.00 -0.00  0.00  0.00  0.00  0.00  0.00  0.00
   13 B    5     0.00   0.00  0.00  0.00  0.00  0.00  0.00 -0.00 -0.00  0.00
   14 B    5    -0.00  -0.00 -0.00 -0.00  0.00 -0.00 -0.00 -0.00 -0.00 -0.00
   15 B    5     0.00  -0.00  0.00 -0.00  0.00 -0.00  0.00  0.00  0.00 -0.00
   16 B    5    -0.00   0.00  0.00  0.00 -0.00  0.00 -0.00 -0.00 -0.00  0.00
   17 N    7     0.00  -0.00  0.00  0.00  0.00  0.00 -0.00 -0.00 -0.00  0.00
   18 N    7    -0.00   0.00 -0.00 -0.00 -0.00  0.00  0.00 -0.00 -0.00 -0.00
   19 N    7    -0.00  -0.00  0.00  0.00 -0.00  0.00 -0.00 -0.00  0.00  0.00
   20 N    7     0.00   0.00 -0.00 -0.00  0.00  0.00 -0.00  0.00 -0.00 -0.00
   21 N    7    -0.00  -0.00  0.00 -0.00 -0.00  0.00 -0.00  0.00 -0.00 -0.00
   22 N    7     0.00   0.00 -0.00  0.00 -0.00 -0.00  0.00  0.00  0.00  0.00
   23 N    7     0.00  -0.00  0.00  0.00  0.00  0.00 -0.00 -0.00  0.00  0.00
   24 N    7    -0.00  -0.00  0.00  0.00  0.00  0.00 -0.00 -0.00  0.00  0.00
   25 N    7     0.00   0.00 -0.00 -0.00  0.00  0.00  0.00 -0.00  0.00  0.00
   26 N    7    -0.00  -0.00 -0.00 -0.00 -0.00  0.00  0.00 -0.00 -0.00 -0.00
   27 N    7     0.00  -0.00  0.00 -0.00 -0.00 -0.00 -0.00  0.00 -0.00  0.00
   28 N    7    -0.00  -0.00  0.00 -0.00 -0.00  0.00 -0.00 -0.00 -0.00  0.00
   29 N    7    -0.00   0.00 -0.00 -0.00  0.00  0.00 -0.00 -0.00  0.00 -0.00
   30 N    7    -0.00   0.00 -0.00  0.00  0.00  0.00  0.00 -0.00  0.00  0.00
   31 N    7     0.00  -0.00  0.00  0.00  0.00 -0.00  0.00  0.00  0.00 -0.00
   32 N    7    -0.00   0.00 -0.00 -0.00  0.00  0.00 -0.00 -0.00 -0.00  0.00
   33 H    1     0.00   0.00  0.00  0.00  0.00 -0.00
   34 H    1    -0.00  -0.00  0.00  0.00 -0.00 -0.00
   35 H    1     0.00  -0.00  0.00  0.00 -0.00  0.00
   36 H    1     0.00   0.00  0.00  0.00  0.00 -0.00
   37 H    1     0.00   0.00  0.00  0.00 -0.00  0.00
   38 H    1    -0.00  -0.00 -0.00 -0.00 -0.00 -0.00
   39 H    1     0.00  -0.00 -0.00  0.00  0.00 -0.00
   40 H    1     0.00   0.00  0.00 -0.00 -0.00 -0.00
   41 H    1    -0.00   0.00 -0.00  0.00 -0.00 -0.00
   42 H    1     0.00  -0.00  0.00  0.00  0.00  0.00
   43 H    1    -0.00   0.00 -0.00 -0.00 -0.00 -0.00
   44 H    1    -0.00   0.00 -0.00  0.00 -0.00  0.00
   45 H    1     0.00  -0.00  0.00  0.00  0.00 -0.00
   46 H    1    -0.00   0.00 -0.00 -0.00  0.00 -0.00
   47 H    1    -0.00   0.00 -0.00  0.00  0.00 -0.00
   48 H    1     0.00  -0.00  0.00  0.00  0.00 -0.00
 
       Multipole analysis of the density wrt the origin
       ------------------------------------------------
 
     L   x y z        total         alpha         beta         nuclear
     -   - - -        -----         -----         ----         -------
     0   0 0 0     -0.000000   -104.000000   -104.000000    208.000000
 
     1   1 0 0     -0.000006   -984.225917   -984.225917   1968.451828
     1   0 1 0     -2.940978     23.351159     23.351159    -49.643296
     1   0 0 1      0.000002   -327.283972   -327.283972    654.567946
 
     2   2 0 0   -126.293613 -11019.167199 -11019.167199  21912.040785
     2   1 1 0    -27.832619    220.988378    220.988378   -469.809376
     2   1 0 1      0.000049  -3097.321007  -3097.321007   6194.642064
     2   0 2 0   -128.556267  -5054.384441  -5054.384441   9980.212615
     2   0 1 1     -9.255216     73.485222     73.485222   -156.225660
     2   0 0 2   -137.761347  -1098.830662  -1098.830662   2059.899978
 

 Task  times  cpu:      887.5s     wall:      884.3s
 
 
                                NWChem Input Module
                                -------------------
 
 
 Summary of allocated global arrays
-----------------------------------
  No active global arrays



                         GA Statistics for process    0
                         ------------------------------

       create   destroy   get      put      acc     scatter   gather  read&inc
calls:  452      452     7406     4806     4185       64        0      264     
number of processes/call 4.37e+00 3.92e+00 2.89e+00 0.00e+00 0.00e+00
bytes total:             6.44e+08 3.60e+08 1.11e+08 5.76e+02 0.00e+00 2.11e+03
bytes remote:            6.14e+08 3.51e+08 9.90e+07 -3.17e+03 0.00e+00 0.00e+00
Max memory consumed for GA by this process: 880840 bytes
 
MA_summarize_allocated_blocks: starting scan ...
MA_summarize_allocated_blocks: scan completed: 0 heap blocks, 0 stack blocks
MA usage statistics:

	allocation statistics:
					      heap	     stack
					      ----	     -----
	current number of blocks	         0	         0
	maximum number of blocks	        16	        14
	current total bytes		         0	         0
	maximum total bytes		    630344	  83738184
	maximum total K-bytes		       631	     83739
	maximum total M-bytes		         1	        84
 
 
                                     CITATION
                                     --------
                Please cite the following reference when publishing
                           results obtained with NWChem:
 
                 M. Valiev, E.J. Bylaska, N. Govind, K. Kowalski,
              T.P. Straatsma, H.J.J. van Dam, D. Wang, J. Nieplocha,
                        E. Apra, T.L. Windus, W.A. de Jong
                 "NWChem: a comprehensive and scalable open-source
                  solution for large scale molecular simulations"
                      Comput. Phys. Commun. 181, 1477 (2010)
                           doi:10.1016/j.cpc.2010.04.018
 
                                      AUTHORS
                                      -------
          E. Apra, E. J. Bylaska, W. A. de Jong, N. Govind, K. Kowalski,
       T. P. Straatsma, M. Valiev, H. J. J. van Dam, D. Wang, T. L. Windus,
        J. Hammond, J. Autschbach, K. Bhaskaran-Nair, J. Brabec, K. Lopata,
    S. A. Fischer, S. Krishnamoorthy, M. Jacquelin, W. Ma, M. Klemm, O. Villa,
      Y. Chen, V. Anisimov, F. Aquino, S. Hirata, M. T. Hackler, V. Konjkov,
            D. Mejia-Rodriguez, T. Risthaus, M. Malagoli, A. Marenich,
   A. Otero-de-la-Roza, J. Mullin, P. Nichols, R. Peverati, J. Pittner, Y. Zhao,
        P.-D. Fan, A. Fonari, M. J. Williamson, R. J. Harrison, J. R. Rehr,
      M. Dupuis, D. Silverstein, D. M. A. Smith, J. Nieplocha, V. Tipparaju,
    M. Krishnan, B. E. Van Kuiken, A. Vazquez-Mayagoitia, L. Jensen, M. Swart,
      Q. Wu, T. Van Voorhis, A. A. Auer, M. Nooijen, L. D. Crosby, E. Brown,
      G. Cisneros, G. I. Fann, H. Fruchtl, J. Garza, K. Hirao, R. A. Kendall,
      J. A. Nichols, K. Tsemekhman, K. Wolinski, J. Anchell, D. E. Bernholdt,
      P. Borowski, T. Clark, D. Clerc, H. Dachsel, M. J. O. Deegan, K. Dyall,
    D. Elwood, E. Glendening, M. Gutowski, A. C. Hess, J. Jaffe, B. G. Johnson,
     J. Ju, R. Kobayashi, R. Kutteh, Z. Lin, R. Littlefield, X. Long, B. Meng,
      T. Nakajima, S. Niu, L. Pollack, M. Rosing, K. Glaesemann, G. Sandrone,
      M. Stave, H. Taylor, G. Thomas, J. H. van Lenthe, A. T. Wong, Z. Zhang.

 Total times  cpu:      887.6s     wall:      884.5s
Job finished on bc4u13n1 at Wed Jan  5 18:32:01 CST 2022
