 vasp.5.4.4.18Apr17-6-g9f103f2a35 (build May 01 2020 14:57:12) complex          
  
 executed on             LinuxIFC date 2021.08.04  20:25:53
 running on  192 total cores
 distrk:  each k-point on  192 cores,    1 groups
 distr:  one band on NCORES_PER_BAND=  48 cores,    4 groups


--------------------------------------------------------------------------------------------------------


 INCAR:
 POTCAR:    PAW_PBE B 06Sep2000                   
 POTCAR:    PAW_PBE N 08Apr2002                   

 ----------------------------------------------------------------------------- 
|                                                                             |
|           W    W    AA    RRRRR   N    N  II  N    N   GGGG   !!!           |
|           W    W   A  A   R    R  NN   N  II  NN   N  G    G  !!!           |
|           W    W  A    A  R    R  N N  N  II  N N  N  G       !!!           |
|           W WW W  AAAAAA  RRRRR   N  N N  II  N  N N  G  GGG   !            |
|           WW  WW  A    A  R   R   N   NN  II  N   NN  G    G                |
|           W    W  A    A  R    R  N    N  II  N    N   GGGG   !!!           |
|                                                                             |
|      For optimal performance we recommend to set                            |
|        NCORE= 4 - approx SQRT( number of cores)                             |
|      NCORE specifies how many cores store one orbital (NPAR=cpu/NCORE).     |
|      This setting can  greatly improve the performance of VASP for DFT.     |
|      The default,   NCORE=1            might be grossly inefficient         |
|      on modern multi-core architectures or massively parallel machines.     |
|      Do your own testing !!!!                                               |
|      Unfortunately you need to use the default for GW and RPA calculations. |
|      (for HF NCORE is supported but not extensively tested yet)             |
|                                                                             |
 ----------------------------------------------------------------------------- 


 ----------------------------------------------------------------------------- 
|                                                                             |
|  ADVICE TO THIS USER RUNNING 'VASP/VAMP'   (HEAR YOUR MASTER'S VOICE ...):  |
|                                                                             |
|      You have switched on vdW-DFT.                                          |
|      This routine was written and supplied by Jiri Klimes.                  |
|      We recommed that you carefully read and cite the following             |
|      publication                                                            |
|      J. Klimes, D.R. Bowler, A. Michelides                                  |
|        J. Phys.: Cond Matt. 22 022201 (2010)                                |
|      J. Klimes, D.R. Bowler, A. Michelides                                  |
|        Phys. Rev. B. 83, 195131 (2011)                                      |
|      and references therein.                                                |
|                                                                             |
 ----------------------------------------------------------------------------- 

 POTCAR:    PAW_PBE B 06Sep2000                   
   VRHFIN =B: s2p1                                                              
   LEXCH  = PE                                                                  
   EATOM  =    71.1703 eV,    5.2309 Ry                                         
                                                                                
   TITEL  = PAW_PBE B 06Sep2000                                                 
   LULTRA =        F    use ultrasoft PP ?                                      
   IUNSCR =        1    unscreen: 0-lin 1-nonlin 2-no                           
   RPACOR =    1.200    partial core radius                                     
   POMASS =   10.811; ZVAL   =    3.000    mass and valenz                      
   RCORE  =    1.700    outmost cutoff radius                                   
   RWIGS  =    1.710; RWIGS  =    0.905    wigner-seitz radius (au A)           
   ENMAX  =  318.614; ENMIN  =  238.960 eV                                      
   ICORE  =        2    local potential                                         
   LCOR   =        T    correct aug charges                                     
   LPAW   =        T    paw PP                                                  
   EAUG   =  535.514                                                            
   DEXC   =    0.000                                                            
   RMAX   =    1.732    core radius for proj-oper                               
   RAUG   =    1.300    factor for augmentation sphere                          
   RDEP   =    1.757    radius for radial grids                                 
   RDEPT  =    1.436    core radius for aug-charge                              
                                                                                
   Atomic configuration                                                         
    4 entries                                                                   
     n  l   j            E        occ.                                          
     1  0  0.50      -180.5896   2.0000                                         
     2  0  0.50        -9.4431   2.0000                                         
     2  1  0.50        -3.6068   1.0000                                         
     3  2  1.50        -4.0817   0.0000                                         
   Description                                                                  
     l       E           TYP  RCUT    TYP  RCUT                                 
     0     -9.4430752     23  1.500                                             
     0      0.8675899     23  1.500                                             
     1     -3.6067955     23  1.700                                             
     1      6.1086146     23  1.700                                             
     2     -4.0817478      7  1.700                                             
  local pseudopotential read in
  partial core-charges read in
  partial kinetic energy density read in
  atomic valenz-charges read in
  non local Contribution for L=           0  read in
    real space projection operators read in
  non local Contribution for L=           0  read in
    real space projection operators read in
  non local Contribution for L=           1  read in
    real space projection operators read in
  non local Contribution for L=           1  read in
    real space projection operators read in
    PAW grid and wavefunctions read in
 
   number of l-projection  operators is LMAX  =           4
   number of lm-projection operators is LMMAX =           8
 
 POTCAR:    PAW_PBE N 08Apr2002                   
   VRHFIN =N: s2p3                                                              
   LEXCH  = PE                                                                  
   EATOM  =   264.5486 eV,   19.4438 Ry                                         
                                                                                
   TITEL  = PAW_PBE N 08Apr2002                                                 
   LULTRA =        F    use ultrasoft PP ?                                      
   IUNSCR =        1    unscreen: 0-lin 1-nonlin 2-no                           
   RPACOR =    1.200    partial core radius                                     
   POMASS =   14.001; ZVAL   =    5.000    mass and valenz                      
   RCORE  =    1.500    outmost cutoff radius                                   
   RWIGS  =    1.400; RWIGS  =    0.741    wigner-seitz radius (au A)           
   ENMAX  =  400.000; ENMIN  =  300.000 eV                                      
   ICORE  =        2    local potential                                         
   LCOR   =        T    correct aug charges                                     
   LPAW   =        T    paw PP                                                  
   EAUG   =  627.112                                                            
   DEXC   =    0.000                                                            
   RMAX   =    1.529    core radius for proj-oper                               
   RAUG   =    1.300    factor for augmentation sphere                          
   RDEP   =    1.514    radius for radial grids                                 
   RDEPT  =    1.338    core radius for aug-charge                              
                                                                                
   Atomic configuration                                                         
    4 entries                                                                   
     n  l   j            E        occ.                                          
     1  0  0.50      -384.7179   2.0000                                         
     2  0  0.50       -18.5828   2.0000                                         
     2  1  0.50        -7.0898   3.0000                                         
     3  2  1.50        -6.8029   0.0000                                         
   Description                                                                  
     l       E           TYP  RCUT    TYP  RCUT                                 
     0    -18.5828119     23  1.200                                             
     0    -13.5018863     23  1.200                                             
     1     -7.0897853     23  1.500                                             
     1      9.5240782     23  1.500                                             
     2     -6.8029130      7  1.500                                             
  local pseudopotential read in
  partial core-charges read in
  partial kinetic energy density read in
  atomic valenz-charges read in
  non local Contribution for L=           0  read in
    real space projection operators read in
  non local Contribution for L=           0  read in
    real space projection operators read in
  non local Contribution for L=           1  read in
    real space projection operators read in
  non local Contribution for L=           1  read in
    real space projection operators read in
    PAW grid and wavefunctions read in
 
   number of l-projection  operators is LMAX  =           4
   number of lm-projection operators is LMMAX =           8
 
 Optimization of the real space projectors (new method)

 maximal supplied QI-value         = 22.11
 optimisation between [QCUT,QGAM] = [ 11.94, 23.88] = [ 39.92,159.67] Ry 
 Optimized for a Real-space Cutoff    1.18 Angstroem

   l    n(q)    QCUT    max X(q) W(low)/X(q) W(high)/X(q)  e(spline) 
   0      8    11.939    53.033    0.11E-03    0.34E-03    0.60E-07
   0      8    11.939    34.740    0.11E-03    0.34E-03    0.59E-07
   1      8    11.939    30.949    0.22E-03    0.20E-03    0.17E-06
   1      8    11.939    19.518    0.20E-03    0.18E-03    0.16E-06
 Optimization of the real space projectors (new method)

 maximal supplied QI-value         = 25.13
 optimisation between [QCUT,QGAM] = [ 11.81, 23.88] = [ 39.08,159.64] Ry 
 Optimized for a Real-space Cutoff    1.41 Angstroem

   l    n(q)    QCUT    max X(q) W(low)/X(q) W(high)/X(q)  e(spline) 
   0     10    11.813    79.467    0.48E-04    0.30E-04    0.67E-06
   0     10    11.813    66.151    0.47E-04    0.30E-04    0.67E-06
   1     10    11.813    20.169    0.11E-03    0.17E-03    0.11E-05
   1     10    11.813    14.454    0.11E-03    0.17E-03    0.11E-05
  PAW_PBE B 06Sep2000                   :
 energy of atom  1       EATOM=  -71.1703
 kinetic energy error for atom=    0.0009 (will be added to EATOM!!)
  PAW_PBE N 08Apr2002                   :
 energy of atom  2       EATOM= -264.5486
 kinetic energy error for atom=    0.0116 (will be added to EATOM!!)
 
 
 POSCAR: B N                                     
  positions in direct lattice
  velocities in cartesian coordinates

 METAGGA = SCAN     LMAXTAU =  6    LMIXTAU =  F

 exchange correlation table for  LEXCH =        8
   RHO(1)=    0.500       N(1)  =     2000
   RHO(2)=  100.500       N(2)  =     4000
 


--------------------------------------------------------------------------------------------------------


 ion  position               nearest neighbor table
   1  0.111  0.055  0.500-  43 1.45  37 1.45  42 1.46
   2  0.111  0.223  0.500-  44 1.45  37 1.45  38 1.46
   3  0.112  0.390  0.500-  38 1.44  45 1.45  39 1.45
   4  0.109  0.557  0.500-  40 1.42  39 1.43  46 1.52
   5  0.109  0.719  0.500-  40 1.42  41 1.43  47 1.52
   6  0.112  0.888  0.500-  42 1.44  48 1.45  41 1.45
   7  0.278  0.055  0.500-  49 1.45  43 1.45  48 1.47
   8  0.278  0.222  0.500-  50 1.45  43 1.46  44 1.46
   9  0.278  0.390  0.500-  51 1.45  44 1.45  45 1.47
  10  0.281  0.557  0.500-  52 1.42  45 1.43  46 1.52
  11  0.281  0.891  0.500-  54 1.42  48 1.43  47 1.52
  12  0.445  0.057  0.500-  55 1.44  49 1.44  54 1.47
  13  0.445  0.223  0.500-  50 1.45  56 1.45  49 1.46
  14  0.445  0.389  0.500-  50 1.45  57 1.45  51 1.46
  15  0.445  0.555  0.500-  58 1.44  51 1.44  52 1.47
  16  0.443  0.719  0.500-  52 1.42  59 1.43  53 1.52
  17  0.443  0.891  0.500-  54 1.42  60 1.43  53 1.52
  18  0.610  0.055  0.500-  55 1.45  61 1.45  60 1.47
  19  0.611  0.223  0.500-  62 1.45  56 1.45  55 1.46
  20  0.611  0.389  0.500-  63 1.45  56 1.45  57 1.45
  21  0.611  0.555  0.500-  64 1.45  57 1.45  58 1.46
  22  0.610  0.722  0.500-  58 1.45  65 1.45  59 1.47
  23  0.610  0.888  0.500-  66 1.44  59 1.45  60 1.45
  24  0.777  0.055  0.500-  61 1.45  67 1.45  66 1.46
  25  0.778  0.222  0.500-  62 1.45  61 1.46  68 1.46
  26  0.777  0.389  0.500-  62 1.45  63 1.45  69 1.46
  27  0.777  0.555  0.500-  64 1.45  63 1.45  70 1.46
  28  0.778  0.722  0.500-  64 1.45  71 1.46  65 1.46
  29  0.777  0.889  0.500-  65 1.45  72 1.45  66 1.46
  30  0.944  0.056  0.500-  72 1.45  37 1.45  67 1.45
  31  0.945  0.223  0.500-  68 1.45  67 1.45  38 1.46
  32  0.945  0.390  0.500-  69 1.45  68 1.45  39 1.47
  33  0.943  0.555  0.500-  69 1.44  70 1.44  40 1.47
  34  0.945  0.722  0.500-  70 1.45  71 1.45  41 1.47
  35  0.945  0.889  0.500-  71 1.45  72 1.45  42 1.46
  36  0.278  0.722  0.500-  46 1.35  53 1.35  47 1.35
  37  0.056  0.111  0.500-   2 1.45   1 1.45  30 1.45
  38  0.056  0.279  0.500-   3 1.44  31 1.46   2 1.46
  39  0.058  0.447  0.500-   4 1.43   3 1.45  32 1.47
  40  0.055  0.611  0.500-   5 1.42   4 1.42  33 1.47
  41  0.058  0.777  0.500-   5 1.43   6 1.45  34 1.47
  42  0.056  0.944  0.500-   6 1.44  35 1.46   1 1.46
  43  0.222  0.111  0.500-   7 1.45   1 1.45   8 1.46
  44  0.222  0.279  0.500-   9 1.45   2 1.45   8 1.46
  45  0.223  0.447  0.500-  10 1.43   3 1.45   9 1.47
  46  0.226  0.619  0.500-  36 1.35   4 1.52  10 1.52
  47  0.226  0.774  0.500-  36 1.35  11 1.52   5 1.52
  48  0.223  0.942  0.500-  11 1.43   6 1.45   7 1.47
  49  0.389  0.111  0.500-  12 1.44   7 1.45  13 1.46
  50  0.389  0.278  0.500-  14 1.45  13 1.45   8 1.45
  51  0.389  0.445  0.500-  15 1.44   9 1.45  14 1.46
  52  0.389  0.611  0.500-  16 1.42  10 1.42  15 1.47
  53  0.381  0.774  0.500-  36 1.35  17 1.52  16 1.52
  54  0.389  0.945  0.500-  11 1.42  17 1.42  12 1.47
  55  0.555  0.111  0.500-  12 1.44  18 1.45  19 1.46
  56  0.556  0.278  0.500-  13 1.45  19 1.45  20 1.45
  57  0.556  0.444  0.500-  21 1.45  14 1.45  20 1.45
  58  0.555  0.611  0.500-  15 1.44  22 1.45  21 1.46
  59  0.553  0.777  0.500-  16 1.43  23 1.45  22 1.47
  60  0.553  0.942  0.500-  17 1.43  23 1.45  18 1.47
  61  0.721  0.111  0.500-  18 1.45  24 1.45  25 1.46
  62  0.722  0.278  0.500-  19 1.45  26 1.45  25 1.45
  63  0.722  0.444  0.500-  27 1.45  26 1.45  20 1.45
  64  0.722  0.611  0.500-  21 1.45  27 1.45  28 1.45
  65  0.721  0.778  0.500-  22 1.45  29 1.45  28 1.46
  66  0.721  0.944  0.500-  23 1.44  24 1.46  29 1.46
  67  0.889  0.111  0.500-  24 1.45  31 1.45  30 1.45
  68  0.889  0.279  0.500-  32 1.45  31 1.45  25 1.46
  69  0.889  0.445  0.500-  33 1.44  32 1.45  26 1.46
  70  0.889  0.611  0.500-  33 1.44  34 1.45  27 1.46
  71  0.889  0.778  0.500-  34 1.45  35 1.45  28 1.46
  72  0.889  0.944  0.500-  29 1.45  35 1.45  30 1.45
 
  LATTYP: Found a hexagonal cell.
 ALAT       =    15.0731507304
 C/A-ratio  =     2.3296167479
  
  Lattice vectors:
  
 A1 = (   7.5365500567, -13.0537460594,   0.0000000000)
 A2 = (   7.5365500567,  13.0537460594,   0.0000000000)
 A3 = (   0.0000000000,   0.0000000000,  35.1146643856)


Analysis of symmetry for initial positions (statically):
=====================================================================
 Subroutine PRICEL returns:
 Original cell was already a primitive cell.
 

 Routine SETGRP: Setting up the symmetry group for a 
 hexagonal supercell.


 Subroutine GETGRP returns: Found 12 space group operations
 (whereof  4 operations were pure point group operations)
 out of a pool of 24 trial point group operations.


The static configuration has the point symmetry C_2v.
 The point group associated with its full space group is D_3h.


Analysis of symmetry for dynamics (positions and initial velocities):
=====================================================================
 Subroutine PRICEL returns:
 Original cell was already a primitive cell.
 

 Routine SETGRP: Setting up the symmetry group for a 
 hexagonal supercell.


 Subroutine GETGRP returns: Found 12 space group operations
 (whereof  4 operations were pure point group operations)
 out of a pool of 24 trial point group operations.


The dynamic configuration has the point symmetry C_2v.
 The point group associated with its full space group is D_3h.


Analysis of constrained symmetry for selective dynamics:
=====================================================================
 Subroutine PRICEL returns:
 Original cell was already a primitive cell.
 

 Routine SETGRP: Setting up the symmetry group for a 
 hexagonal supercell.


 Subroutine GETGRP returns: Found 12 space group operations
 (whereof  4 operations were pure point group operations)
 out of a pool of 24 trial point group operations.


The constrained configuration has the point symmetry C_2v.
 The point group associated with its full space group is D_3h.


Analysis of structural, dynamic, and magnetic symmetry:
=====================================================================
 Subroutine PRICEL returns:
 Original cell was already a primitive cell.
 

 Routine SETGRP: Setting up the symmetry group for a 
 hexagonal supercell.


 Subroutine GETGRP returns: Found 12 space group operations
 (whereof  4 operations were pure point group operations)
 out of a pool of 24 trial point group operations.


The magnetic configuration has the point symmetry C_2v.
 The point group associated with its full space group is D_3h.


 Subroutine INISYM returns: Found 12 space group operations
 (whereof  4 operations are pure point group operations),
 and found     1 'primitive' translations

 
 
 KPOINTS: K-Point Grid                            

Automatic generation of k-mesh.
Space group operators:
 irot       det(A)        alpha          n_x          n_y          n_z        tau_x        tau_y        tau_z
    1     1.000000     0.000000     1.000000     0.000000     0.000000     0.000000     0.000000     0.000000
    2    -1.000000   180.000000     0.000000     0.000000     1.000000     0.000000     0.000000     0.000000
    3     1.000000   180.000000     0.000000     1.000000     0.000000     0.000000     0.000000     0.000000
    4    -1.000000   180.000000     1.000000     0.000000     0.000000     0.000000     0.000000     0.000000
    5    -1.000000    60.000000     0.000000     0.000000    -1.000000     0.833334     0.000001     0.000000
    6     1.000000   120.000000     0.000000     0.000000    -1.000000     0.000001     0.166667     0.000000
    7     1.000000   120.000000     0.000000     0.000000     1.000000     0.833334     0.000001     0.000000
    8    -1.000000    60.000000     0.000000     0.000000     1.000000     0.000001     0.166667     0.000000
    9    -1.000000   180.000000     0.500002    -0.866024     0.000000     0.833334    -0.000000     0.000000
   10    -1.000000   180.000000    -0.500002    -0.866024     0.000000    -0.000000     0.166667     0.000000
   11     1.000000   180.000000     0.866026     0.499998     0.000000     0.833334    -0.000000     0.000000
   12     1.000000   180.000000     0.866026    -0.499998     0.000000    -0.000000     0.166667     0.000000
 
 Subroutine IBZKPT returns following result:
 ===========================================
 
 Found      3 irreducible k-points:
 
 Following reciprocal coordinates:
            Coordinates               Weight
  0.000000  0.000000  0.000000      1.000000
  0.333333  0.000000  0.000000      6.000000
  0.333333  0.333333  0.000000      2.000000
 
 Following cartesian coordinates:
            Coordinates               Weight
  0.000000  0.000000  0.000000      1.000000
  0.022114 -0.012768  0.000000      6.000000
  0.044229  0.000000  0.000000      2.000000
 


--------------------------------------------------------------------------------------------------------




 Dimension of arrays:
   k-points           NKPTS =      3   k-points in BZ     NKDIM =      3   number of bands    NBANDS=    220
   number of dos      NEDOS =   1200   number of ions     NIONS =     72
   non local maximal  LDIM  =      4   non local SUM 2l+1 LMDIM =      8
   total plane-waves  NPLWV = ******
   max r-space proj   IRMAX =   6598   max aug-charges    IRDMAX=   8974
   dimension x,y,z NGX =   120 NGY =  120 NGZ =  270
   dimension x,y,z NGXF=   240 NGYF=  240 NGZF=  540
   support grid    NGXF=   240 NGYF=  240 NGZF=  540
   ions per type =              35  37
   NGX,Y,Z   is equivalent  to a cutoff of  13.24, 13.24, 12.78 a.u.
   NGXF,Y,Z  is equivalent  to a cutoff of  26.47, 26.47, 25.57 a.u.

 SYSTEM =  SiC                                     
 POSCAR =  B N                                     

 Startparameter for this run:
   NWRITE =      2    write-flag & timer
   PREC   = accura    normal or accurate (medium, high low for compatibility)
   ISTART =      1    job   : 0-new  1-cont  2-samecut
   ICHARG =      0    charge: 1-file 2-atom 10-const
   ISPIN  =      2    spin polarized calculation?
   LNONCOLLINEAR =      F non collinear calculations
   LSORBIT =      F    spin-orbit coupling
   INIWAV =      1    electr: 0-lowe 1-rand  2-diag
   LASPH  =      T    aspherical Exc in radial PAW
   METAGGA=      F    non-selfconsistent MetaGGA calc.

 Electronic Relaxation 1
   ENCUT  =  550.0 eV  40.42 Ry    6.36 a.u.  28.82 28.82 67.15*2*pi/ulx,y,z
   ENINI  =  550.0     initial cutoff
   ENAUG  =  627.1 eV  augmentation charge cutoff
   NELM   =    100;   NELMIN=  2; NELMDL=  0     # of ELM steps 
   EDIFF  = 0.1E-04   stopping-criterion for ELM
   LREAL  =      T    real-space projection
   NLSPLINE    = F    spline interpolate recip. space projectors
   LCOMPAT=      F    compatible to vasp.4.4
   GGA_COMPAT  = T    GGA compatible to vasp.4.4-vasp.4.6
   LMAXPAW     = -100 max onsite density
   LMAXMIX     =    2 max onsite mixed and CHGCAR
   VOSKOWN=      0    Vosko Wilk Nusair interpolation
   ROPT   =   -0.00025  -0.00025
 Ionic relaxation
   EDIFFG = -.2E-01   stopping-criterion for IOM
   NSW    =    500    number of steps for IOM
   NBLOCK =      1;   KBLOCK =    500    inner block; outer block 
   IBRION =      2    ionic relax: 0-MD 1-quasi-New 2-CG
   NFREE  =      1    steps in history (QN), initial steepest desc. (CG)
   ISIF   =      2    stress and relaxation
   IWAVPR =     11    prediction:  0-non 1-charg 2-wave 3-comb
   ISYM   =      2    0-nonsym 1-usesym 2-fastsym
   LCORR  =      T    Harris-Foulkes like correction to forces

   POTIM  = 0.5000    time-step for ionic-motion
   TEIN   =    0.0    initial temperature
   TEBEG  =    0.0;   TEEND  =   0.0 temperature during run
   SMASS  =  -3.00    Nose mass-parameter (am)
   estimated Nose-frequenzy (Omega)   =  0.10E-29 period in steps =****** mass=  -0.519E-26a.u.
   SCALEE = 1.0000    scale energy and forces
   NPACO  =    256;   APACO  = 16.0  distance and # of slots for P.C.
   PSTRESS=    0.0 pullay stress

  Mass of Ions in am
   POMASS =  10.81 14.00
  Ionic Valenz
   ZVAL   =   3.00  5.00
  Atomic Wigner-Seitz radii
   RWIGS  =  -1.00 -1.00
  virtual crystal weights 
   VCA    =   1.00  1.00
   NELECT =     288.0000    total number of electrons
   NUPDOWN=      -1.0000    fix difference up-down

 DOS related values:
   EMIN   =  10.00;   EMAX   =-10.00  energy-range for DOS
   EFERMI =   0.00
   ISMEAR =     0;   SIGMA  =   0.05  broadening in eV -4-tet -1-fermi 0-gaus

 Electronic relaxation 2 (details)
   IALGO  =     68    algorithm
   LDIAG  =      T    sub-space diagonalisation (order eigenvalues)
   LSUBROT=      F    optimize rotation matrix (better conditioning)
   TURBO    =      0    0=normal 1=particle mesh
   IRESTART =      0    0=no restart 2=restart with 2 vectors
   NREBOOT  =      0    no. of reboots
   NMIN     =      0    reboot dimension
   EREF     =   0.00    reference energy to select bands
   IMIX   =      4    mixing-type and parameters
     AMIX     =   0.40;   BMIX     =  1.00
     AMIX_MAG =   1.60;   BMIX_MAG =  1.00
     AMIN     =   0.10
     WC   =   100.;   INIMIX=   1;  MIXPRE=   1;  MAXMIX= -45

 Intra band minimization:
   WEIMIN = 0.0010     energy-eigenvalue tresh-hold
   EBREAK =  0.11E-07  absolut break condition
   DEPER  =   0.30     relativ break condition  

   TIME   =   0.40     timestep for ELM

  volume/ion in A,a.u.               =      95.96       647.58
  Fermi-wavevector in a.u.,A,eV,Ry     =   0.567628  1.072661  4.383813  0.322201
  Thomas-Fermi vector in A             =   1.606518
 
 Write flags
   LWAVE        =      T    write WAVECAR
   LDOWNSAMPLE  =      F    k-point downsampling of WAVECAR
   LCHARG       =      F    write CHGCAR
   LVTOT        =      F    write LOCPOT, total local potential
   LVHAR        =      T    write LOCPOT, Hartree potential only
   LELF         =      F    write electronic localiz. function (ELF)
   LORBIT       =     11    0 simple, 1 ext, 2 COOP (PROOUT), +10 PAW based schemes


 Dipole corrections
   LMONO  =      F    monopole corrections only (constant potential shift)
   LDIPOL =      F    correct potential (dipole corrections)
   IDIPOL =      0    1-x, 2-y, 3-z, 4-all directions 
   EPSILON=  1.0000000 bulk dielectric constant

 Exchange correlation treatment:
   GGA     =    --    GGA type
   LEXCH   =     8    internal setting for exchange type
   VOSKOWN=      0    Vosko Wilk Nusair interpolation
   LHFCALC =     F    Hartree Fock is set to
   LHFONE  =     F    Hartree Fock one center treatment
   AEXX    =    0.0000 exact exchange contribution

 vdW DFT:
   LUSE_VDW   =     T    switch on vdW DFT
   Zab_VDW    =-.8491    correlation parameter
   PARAM1     =0.1234
   PARAM2     =1.0000
   PARAM3     =0.0000
   -- rVV10 --
   BPARAM     =15.7000
   CPARAM     = 0.0093

 Linear response parameters
   LEPSILON=     F    determine dielectric tensor
   LRPA    =     F    only Hartree local field effects (RPA)
   LNABLA  =     F    use nabla operator in PAW spheres
   LVEL    =     F    velocity operator in full k-point grid
   LINTERFAST=   F  fast interpolation
   KINTER  =     0    interpolate to denser k-point grid
   CSHIFT  =0.1000    complex shift for real part using Kramers Kronig
   OMEGAMAX=  -1.0    maximum frequency
   DEG_THRESHOLD= 0.2000000E-02 threshold for treating states as degnerate
   RTIME   =   -0.100 relaxation time in fs
  (WPLASMAI=    0.000 imaginary part of plasma frequency in eV, 0.658/RTIME)
   DFIELD  = 0.0000000 0.0000000 0.0000000 field for delta impulse in time
 
 Orbital magnetization related:
   ORBITALMAG=     F  switch on orbital magnetization
   LCHIMAG   =     F  perturbation theory with respect to B field
   DQ        =  0.001000  dq finite difference perturbation B field
   LLRAUG    =     F  two centre corrections for induced B field

 Solvation model:
   LSOL    =     T         switch on solvation model
   EB_K    = 78.400000     relative permittivity of the bulk solvent
   SIGMA_K =  0.600000     width of the dielectric cavity
   NC_K    =  0.002500     cutoff charge density
   TAU     =  0.000000     cavity surface tension
   LAMBDA_D_K    =  3.040000     Debye length in Angstroms
   LRHOB     =     F     write boundcharge  density
   LRHOION     =     F     write ioniccharge density



--------------------------------------------------------------------------------------------------------


 conjugate gradient relaxation of ions
   using selective dynamics as specified on POSCAR
 charge density and potential will be updated during run
 spin polarized calculation
 RMM-DIIS sequential band-by-band and
  variant of blocked Davidson during initial phase
 perform sub-space diagonalisation
    before iterative eigenvector-optimisation
 modified Broyden-mixing scheme, WC =      100.0
 initial mixing is a Kerker type mixing with AMIX =  0.4000 and BMIX =      1.0000
 Hartree-type preconditioning will be used
 using additional bands           76
 real space projection scheme for non local part
 use partial core corrections
 calculate Harris-corrections to forces 
   (improved forces if not selfconsistent)
 use gradient corrections 
 use of overlap-Matrix (Vanderbilt PP)
 Gauss-broadening in eV      SIGMA  =   0.05


--------------------------------------------------------------------------------------------------------


  energy-cutoff  :      550.00
  volume of cell :     6909.18
      direct lattice vectors                 reciprocal lattice vectors
     7.536550057-13.053746059  0.000000000     0.066343353 -0.038303181  0.000000000
     7.536550057 13.053746059  0.000000000     0.066343353  0.038303181  0.000000000
     0.000000000  0.000000000 35.114664386     0.000000000  0.000000000  0.028478131

  length of vectors
    15.073150730 15.073150730 35.114664386     0.076606620  0.076606620  0.028478131


 
 old parameters found on file WAVECAR:
  energy-cutoff  :      550.00
  volume of cell :     6909.18
      direct lattice vectors                 reciprocal lattice vectors
     7.536550057-13.053746059  0.000000000     0.066343353 -0.038303181  0.000000000
     7.536550057 13.053746059  0.000000000     0.066343353  0.038303181  0.000000000
     0.000000000  0.000000000 35.114664386     0.000000000  0.000000000  0.028478131

  length of vectors

 
 k-points in units of 2pi/SCALE and weight: K-Point Grid                            
   0.00000000  0.00000000  0.00000000       0.111
   0.02211445 -0.01276773  0.00000000       0.667
   0.04422890  0.00000000  0.00000000       0.222
 
 k-points in reciprocal lattice and weights: K-Point Grid                            
   0.00000000  0.00000000  0.00000000       0.111
   0.33333333  0.00000000  0.00000000       0.667
   0.33333333  0.33333333  0.00000000       0.222
 
 position of ions in fractional coordinates (direct lattice) 
   0.11126500  0.05540232  0.50000000
   0.11126500  0.22252972  0.50000000
   0.11150419  0.38967475  0.50000000
   0.10937157  0.55672868  0.50000000
   0.10937157  0.71930993  0.50000000
   0.11150419  0.88849648  0.50000000
   0.27792012  0.05505105  0.50000000
   0.27781011  0.22223858  0.50000000
   0.27792012  0.38953611  0.50000000
   0.28069073  0.55672868  0.50000000
   0.28069073  0.89062910  0.50000000
   0.44539435  0.05745507  0.50000000
   0.44451630  0.22252428  0.50000000
   0.44451630  0.38865906  0.50000000
   0.44539435  0.55460632  0.50000000
   0.44327199  0.71930993  0.50000000
   0.44327199  0.89062910  0.50000000
   0.61046455  0.05505105  0.50000000
   0.61134160  0.22252428  0.50000000
   0.61111143  0.38888924  0.50000000
   0.61134160  0.55548436  0.50000000
   0.61046455  0.72208055  0.50000000
   0.61032591  0.88849648  0.50000000
   0.77747094  0.05540232  0.50000000
   0.77776209  0.22223858  0.50000000
   0.77747639  0.38865906  0.50000000
   0.77747639  0.55548436  0.50000000
   0.77776209  0.72219055  0.50000000
   0.77747094  0.88873566  0.50000000
   0.94444476  0.05555590  0.50000000
   0.94459835  0.22252972  0.50000000
   0.94494962  0.38953611  0.50000000
   0.94254559  0.55460632  0.50000000
   0.94494962  0.72208055  0.50000000
   0.94459835  0.88873566  0.50000000
   0.27777810  0.72222257  0.50000000
   0.05576735  0.11121715  0.50000000
   0.05615728  0.27898086  0.50000000
   0.05770043  0.44716731  0.50000000
   0.05503765  0.61085231  0.50000000
   0.05770043  0.77720008  0.50000000
   0.05615728  0.94384338  0.50000000
   0.22237869  0.11053398  0.50000000
   0.22237869  0.27851167  0.50000000
   0.22280059  0.44716731  0.50000000
   0.22604194  0.61875018  0.50000000
   0.22604194  0.77395872  0.50000000
   0.22280059  0.94230023  0.50000000
   0.38877210  0.11093836  0.50000000
   0.38880654  0.27773675  0.50000000
   0.38877210  0.44450070  0.50000000
   0.38914836  0.61085231  0.50000000
   0.38125049  0.77395872  0.50000000
   0.38914836  0.94496301  0.50000000
   0.55549997  0.11093836  0.50000000
   0.55551235  0.27769100  0.50000000
   0.55551235  0.44448831  0.50000000
   0.55549997  0.61122857  0.50000000
   0.55283335  0.77720008  0.50000000
   0.55283335  0.94230023  0.50000000
   0.72148900  0.11053398  0.50000000
   0.72226391  0.27773675  0.50000000
   0.72230967  0.44448831  0.50000000
   0.72226391  0.61119412  0.50000000
   0.72148900  0.77762198  0.50000000
   0.72101981  0.94384338  0.50000000
   0.88878351  0.11121715  0.50000000
   0.88946669  0.27851167  0.50000000
   0.88906231  0.44450070  0.50000000
   0.88906231  0.61122857  0.50000000
   0.88946669  0.77762198  0.50000000
   0.88878351  0.94423332  0.50000000
 
 position of ions in cartesian coordinates  (Angst):
   1.25609663 -0.72921730 17.55733219
   2.51566068  1.45242141 17.55733219
   3.77716017  3.63116789 17.55733219
   5.02009785  5.83968608 17.55733219
   6.24539962  7.96198050 17.55733219
   7.53655507 10.14266002 17.55733219
   2.50945386 -2.90927631 17.55733219
   3.76864197 -0.72541672 17.55733219
   5.03031733  1.45700685 17.55733219
   6.31125330  3.60332922 17.55733219
   8.82771053  7.96198050 17.55733219
   3.78974984 -5.06406080 17.55733219
   5.02718474 -2.89782752 17.55733219
   6.27926787 -0.72914621 17.55733219
   7.53655507  1.42562528 17.55733219
   8.76185684  3.60332922 17.55733219
  10.05301230  5.83968608 17.55733219
   5.01569161 -7.25022686 17.55733219
   6.28447194 -5.07552258 17.55733219
   7.53655507 -2.90083211 17.55733219
   8.79384227 -0.72914621 17.55733219
  10.04279282  1.45700685 17.55733219
  11.29594997  3.63116789 17.55733219
   6.27699102 -9.42570043 17.55733219
   7.53655507 -7.25166287 17.55733219
   8.78863820 -5.07552258 17.55733219
  10.04592541 -2.89782752 17.55733219
  11.30446817 -0.72541672 17.55733219
  12.55744946  1.45242141 17.55733219
   7.53655507-11.60332948 17.55733219
   8.79611913 -9.42570043 17.55733219
  10.05741854 -7.25022686 17.55733219
  11.28336031 -5.06406080 17.55733219
  12.56365629 -2.90927631 17.55733219
  13.81701352 -0.72921730 17.55733219
   7.53655507  5.80166527 17.55733219
   1.25848704  0.72382769 17.55733219
   2.52578540  2.90868239 17.55733219
   3.80496103  5.08400176 17.55733219
   5.01851300  7.25546335 17.55733219
   6.29226948  9.39216568 17.55733219
   7.53655507 11.58762891 17.55733219
   2.50901297 -1.45999246 17.55733219
   3.77498527  0.73274569 17.55733219
   5.04924662  2.92882625 17.55733219
   6.36681809  5.12631358 17.55733219
   7.53655507  7.15236654 17.55733219
   8.78084066  9.39216568 17.55733219
   3.76609283 -3.62677109 17.55733219
   5.02343691 -1.44987687 17.55733219
   6.28000213  0.72746703 17.55733219
   7.53655507  2.89406700 17.55733219
   8.70629206  5.12631358 17.55733219
  10.05459715  7.25546335 17.55733219
   5.02264578 -5.80319438 17.55733219
   6.27947875 -3.62660941 17.55733219
   7.53655507 -1.44927960 17.55733219
   8.79310802  0.72746703 17.55733219
  10.02386353  2.92882625 17.55733219
  11.26814912  5.08400176 17.55733219
   6.27058278 -7.97525165 17.55733219
   7.53655507 -5.80274470 17.55733219
   8.79363139 -3.62660941 17.55733219
  10.04967323 -1.44987687 17.55733219
  11.29812488  0.73274569 17.55733219
  12.54732475  2.90868239 17.55733219
   7.53655507-10.15015381 17.55733219
   8.80252737 -7.97525165 17.55733219
  10.05046437 -5.80319438 17.55733219
  11.30701731 -3.62677109 17.55733219
  12.56409717 -1.45999246 17.55733219
  13.81462311  0.72382769 17.55733219
 


--------------------------------------------------------------------------------------------------------


 k-point  1 :   0.0000 0.0000 0.0000  plane waves:  202395
 k-point  2 :   0.3333 0.0000 0.0000  plane waves:  202358
 k-point  3 :   0.3333 0.3333 0.0000  plane waves:  202335

 maximum and minimum number of plane-waves per node :      4241     4178

 maximum number of plane-waves:    202395
 maximum index in each direction: 
   IXMAX=   28   IYMAX=   28   IZMAX=   67
   IXMIN=  -29   IYMIN=  -29   IZMIN=  -67


 real space projection operators:
  total allocation   :      22858.50 KBytes
  max/ min on nodes  :        596.38        361.12


 parallel 3D FFT for wavefunctions:
    minimum data exchange during FFTs selected (reduces bandwidth)
 parallel 3D FFT for charge:
    minimum data exchange during FFTs selected (reduces bandwidth)


 total amount of memory used by VASP MPI-rank0   110881. kBytes
=======================================================================

   base      :      30000. kBytes
   nonlr-proj:       8753. kBytes
   fftplans  :      10805. kBytes
   grid      :      38967. kBytes
   one-center:         12. kBytes
   wavefun   :      22344. kBytes
 
     INWAV:  cpu time   12.3414: real time   13.0270
 Broyden mixing: mesh for mixing (old mesh)
   NGX = 57   NGY = 57   NGZ =135
  (NGX  =240   NGY  =240   NGZ  =540)
  gives a total of 438615 points

 charge density for first step will be calculated from the start-wavefunctions


--------------------------------------------------------------------------------------------------------


 Maximum index for non-local projection operator          368
 Maximum index for augmentation-charges          387 (set IRDMAX)


--------------------------------------------------------------------------------------------------------


 initial charge from wavefunction
 First call to EWALD:  gamma=   0.093
 Maximum number of real-space cells 4x 4x 2
 Maximum number of reciprocal cells 2x 2x 5

    FEWALD:  cpu time    0.0597: real time    0.0596


--------------------------------------- Iteration      1(   1)  ---------------------------------------


    POTLOK:  cpu time   19.1265: real time   19.0176
    SETDIJ:  cpu time    0.7223: real time    0.5217
     EDDAV:  cpu time   53.1593: real time   26.7634
       DOS:  cpu time    0.0840: real time    0.0424
    CHARGE:  cpu time   14.2715: real time   11.3625
    MIXING:  cpu time    0.1097: real time    0.1102
    --------------------------------------------
      LOOP:  cpu time   87.4735: real time   57.8179

 eigenvalue-minimisations  :  2656
 total energy-change (2. order) :-0.6846628E+03  (-0.3701694E-02)
 number of electron     287.9999972 magnetization       0.0000000
 augmentation part        8.3752329 magnetization       0.0000005

 Broyden mixing:
  rms(total) = 0.12871E-01    rms(broyden)= 0.12846E-01
  rms(prec ) = 0.12924E-01
  weight for this iteration     100.00

 Free energy of the ion-electron system (eV)
  ---------------------------------------------------
  alpha Z        PSCENC =        67.15411614
  Ewald energy   TEWEN  =     93398.74497387
  -Hartree energ DENC   =   -102524.95154270
  -exchange      EXHF   =         0.00000000
  -V(xc)+E(xc)   XCENC  =      1255.66936923
  PAW double counting   =     34843.85106082   -34973.02630845
  entropy T*S    EENTRO =        -0.00000000
  eigenvalues    EBANDS =     -4152.16669972
  atomic energy  EATOM  =     12278.79590636
  Solvation  Ediel_sol  =      -878.73368911
  ---------------------------------------------------
  free energy    TOTEN  =      -684.66281355 eV

  energy without entropy =     -684.66281355  energy(sigma->0) =     -684.66281355


--------------------------------------------------------------------------------------------------------




--------------------------------------- Iteration      1(   2)  ---------------------------------------


    POTLOK:  cpu time   14.9562: real time   14.9915
    SETDIJ:  cpu time    0.5974: real time    0.3963
    EDDIAG:  cpu time   11.9635: real time    6.0832
  RMM-DIIS:  cpu time   66.4628: real time   33.4004
    ORTHCH:  cpu time    0.3343: real time    0.1691
       DOS:  cpu time    0.0029: real time    0.0015
    CHARGE:  cpu time   14.2385: real time   11.3406
    MIXING:  cpu time    0.0265: real time    0.0266
    --------------------------------------------
      LOOP:  cpu time  108.5822: real time   66.4091

 eigenvalue-minimisations  :  2640
 total energy-change (2. order) : 0.8392312E-04  (-0.6719355E-04)
 number of electron     287.9999972 magnetization       0.0000000
 augmentation part        8.3747256 magnetization       0.0000003

 Broyden mixing:
  rms(total) = 0.82186E-02    rms(broyden)= 0.82159E-02
  rms(prec ) = 0.82526E-02
  weight for this iteration     100.00

 eigenvalues of (default mixing * dielectric matrix)
  average eigenvalue GAMMA=   2.2287
  2.2287

 Free energy of the ion-electron system (eV)
  ---------------------------------------------------
  alpha Z        PSCENC =        67.15411614
  Ewald energy   TEWEN  =     93398.74497387
  -Hartree energ DENC   =   -102524.86482167
  -exchange      EXHF   =         0.00000000
  -V(xc)+E(xc)   XCENC  =      1255.68279037
  PAW double counting   =     34862.86799415   -34992.03626235
  entropy T*S    EENTRO =        -0.00000000
  eigenvalues    EBANDS =     -4152.30143497
  atomic energy  EATOM  =     12278.79590636
  Solvation  Ediel_sol  =      -878.70599154
  ---------------------------------------------------
  free energy    TOTEN  =      -684.66272963 eV

  energy without entropy =     -684.66272963  energy(sigma->0) =     -684.66272963


--------------------------------------------------------------------------------------------------------




--------------------------------------- Iteration      1(   3)  ---------------------------------------


    POTLOK:  cpu time   15.1472: real time   15.1843
    SETDIJ:  cpu time    0.5978: real time    0.3970
    EDDIAG:  cpu time   11.9413: real time    6.0481
  RMM-DIIS:  cpu time   65.9244: real time   33.1472
    ORTHCH:  cpu time    0.3348: real time    0.1695
       DOS:  cpu time    0.0026: real time    0.0013
    CHARGE:  cpu time   14.2235: real time   11.3217
    MIXING:  cpu time    0.0065: real time    0.0068
    --------------------------------------------
      LOOP:  cpu time  108.1781: real time   66.2758

 eigenvalue-minimisations  :  2622
 total energy-change (2. order) :-0.2283921E-03  (-0.1964289E-04)
 number of electron     287.9999972 magnetization       0.0000000
 augmentation part        8.3744639 magnetization      -0.0000001

 Broyden mixing:
  rms(total) = 0.15615E-02    rms(broyden)= 0.15600E-02
  rms(prec ) = 0.15773E-02
  weight for this iteration     100.00

 eigenvalues of (default mixing * dielectric matrix)
  average eigenvalue GAMMA=   1.8264
  1.1673  2.4856

 Free energy of the ion-electron system (eV)
  ---------------------------------------------------
  alpha Z        PSCENC =        67.15411614
  Ewald energy   TEWEN  =     93398.74497387
  -Hartree energ DENC   =   -102524.65986674
  -exchange      EXHF   =         0.00000000
  -V(xc)+E(xc)   XCENC  =      1255.67070367
  PAW double counting   =     34888.99499264   -35018.15421251
  entropy T*S    EENTRO =        -0.00000000
  eigenvalues    EBANDS =     -4152.55069146
  atomic energy  EATOM  =     12278.79590636
  Solvation  Ediel_sol  =      -878.65887999
  ---------------------------------------------------
  free energy    TOTEN  =      -684.66295802 eV

  energy without entropy =     -684.66295802  energy(sigma->0) =     -684.66295802


--------------------------------------------------------------------------------------------------------




--------------------------------------- Iteration      1(   4)  ---------------------------------------


    POTLOK:  cpu time   14.7316: real time   14.7697
    SETDIJ:  cpu time    0.5969: real time    0.3961
    EDDIAG:  cpu time   12.0002: real time    6.0771
  RMM-DIIS:  cpu time   52.3224: real time   26.2549
    ORTHCH:  cpu time    0.3548: real time    0.1793
       DOS:  cpu time    0.0026: real time    0.0013
    --------------------------------------------
      LOOP:  cpu time   80.0085: real time   47.6784

 eigenvalue-minimisations  :  1834
 total energy-change (2. order) :-0.1389435E-05  (-0.1434749E-05)
 number of electron     287.9999972 magnetization       0.0000000
 augmentation part        8.3744639 magnetization      -0.0000001

 Free energy of the ion-electron system (eV)
  ---------------------------------------------------
  alpha Z        PSCENC =        67.15411614
  Ewald energy   TEWEN  =     93398.74497387
  -Hartree energ DENC   =   -102524.57448403
  -exchange      EXHF   =         0.00000000
  -V(xc)+E(xc)   XCENC  =      1255.66464331
  PAW double counting   =     34892.35885640   -35021.51735420
  entropy T*S    EENTRO =        -0.00000000
  eigenvalues    EBANDS =     -4152.64315881
  atomic energy  EATOM  =     12278.79590636
  Solvation  Ediel_sol  =      -878.64645845
  ---------------------------------------------------
  free energy    TOTEN  =      -684.66295941 eV

  energy without entropy =     -684.66295941  energy(sigma->0) =     -684.66295941


--------------------------------------------------------------------------------------------------------




 average (electrostatic) potential at core
  the test charge radii are     0.7672  0.7089
  (the norm of the test charge is              1.0000)
       1 -38.9064       2 -38.9064       3 -39.2185       4 -40.1319       5 -40.1319
       6 -39.2185       7 -39.1390       8 -38.9244       9 -39.1390      10 -40.1319
      11 -40.1319      12 -39.2286      13 -38.9162      14 -38.9162      15 -39.2286
      16 -40.1319      17 -40.1319      18 -39.1390      19 -38.9162      20 -38.8591
      21 -38.9162      22 -39.1390      23 -39.2185      24 -38.9064      25 -38.9244
      26 -38.9162      27 -38.9162      28 -38.9244      29 -38.9064      30 -38.8424
      31 -38.9064      32 -39.1390      33 -39.2286      34 -39.1390      35 -38.9064
      36 -84.0618      37 -76.3790      38 -76.4972      39 -76.9220      40 -77.3281
      41 -76.9220      42 -76.4972      43 -76.4546      44 -76.4546      45 -76.9220
      46 -79.9287      47 -79.9287      48 -76.9220      49 -76.5826      50 -76.4118
      51 -76.5826      52 -77.3281      53 -79.9287      54 -77.3281      55 -76.5826
      56 -76.4110      57 -76.4110      58 -76.5827      59 -76.9220      60 -76.9220
      61 -76.4546      62 -76.4118      63 -76.4110      64 -76.4118      65 -76.4546
      66 -76.4972      67 -76.3790      68 -76.4546      69 -76.5826      70 -76.5826
      71 -76.4546      72 -76.3790
 
 
 
 E-fermi :  -6.4144     XC(G=0):  -1.1578     alpha+bet : -1.0259


 spin component 1

 k-point     1 :       0.0000    0.0000    0.0000
  band No.  band energies     occupation 
      1     -31.9860      1.00000
      2     -26.2066      1.00000
      3     -26.2066      1.00000
      4     -25.2307      1.00000
      5     -24.7839      1.00000
      6     -24.7839      1.00000
      7     -24.6122      1.00000
      8     -24.6122      1.00000
      9     -24.5589      1.00000
     10     -24.4901      1.00000
     11     -23.9227      1.00000
     12     -23.9227      1.00000
     13     -23.7612      1.00000
     14     -23.5178      1.00000
     15     -23.5178      1.00000
     16     -23.4979      1.00000
     17     -23.3135      1.00000
     18     -23.3135      1.00000
     19     -23.3096      1.00000
     20     -23.0613      1.00000
     21     -23.0613      1.00000
     22     -22.7206      1.00000
     23     -22.4911      1.00000
     24     -22.4911      1.00000
     25     -22.3832      1.00000
     26     -22.2641      1.00000
     27     -22.1977      1.00000
     28     -22.1977      1.00000
     29     -22.1456      1.00000
     30     -22.0651      1.00000
     31     -22.0651      1.00000
     32     -22.0078      1.00000
     33     -22.0078      1.00000
     34     -21.9980      1.00000
     35     -21.5760      1.00000
     36     -21.5760      1.00000
     37     -20.0481      1.00000
     38     -17.6947      1.00000
     39     -17.6947      1.00000
     40     -15.9682      1.00000
     41     -15.9682      1.00000
     42     -15.5865      1.00000
     43     -15.4247      1.00000
     44     -15.3840      1.00000
     45     -15.3840      1.00000
     46     -15.0947      1.00000
     47     -15.0947      1.00000
     48     -15.0730      1.00000
     49     -15.0061      1.00000
     50     -14.9418      1.00000
     51     -14.9418      1.00000
     52     -14.8986      1.00000
     53     -14.7575      1.00000
     54     -14.7575      1.00000
     55     -14.3817      1.00000
     56     -14.3817      1.00000
     57     -14.2882      1.00000
     58     -14.1833      1.00000
     59     -14.0632      1.00000
     60     -13.9269      1.00000
     61     -13.9269      1.00000
     62     -13.8928      1.00000
     63     -13.5322      1.00000
     64     -13.5321      1.00000
     65     -12.8390      1.00000
     66     -12.7539      1.00000
     67     -12.6241      1.00000
     68     -12.6241      1.00000
     69     -12.5235      1.00000
     70     -12.5235      1.00000
     71     -12.5147      1.00000
     72     -12.4247      1.00000
     73     -12.2650      1.00000
     74     -12.2650      1.00000
     75     -12.1369      1.00000
     76     -12.1369      1.00000
     77     -12.0440      1.00000
     78     -11.9938      1.00000
     79     -11.9705      1.00000
     80     -11.9704      1.00000
     81     -11.7483      1.00000
     82     -11.4854      1.00000
     83     -11.4854      1.00000
     84     -11.4713      1.00000
     85     -11.4713      1.00000
     86     -11.0968      1.00000
     87     -11.0861      1.00000
     88     -11.0861      1.00000
     89     -10.9940      1.00000
     90     -10.9585      1.00000
     91     -10.9584      1.00000
     92     -10.9451      1.00000
     93     -10.9126      1.00000
     94     -10.9126      1.00000
     95     -10.9106      1.00000
     96     -10.6906      1.00000
     97     -10.4230      1.00000
     98     -10.4229      1.00000
     99     -10.3775      1.00000
    100     -10.3775      1.00000
    101     -10.3499      1.00000
    102     -10.3069      1.00000
    103     -10.2982      1.00000
    104     -10.2982      1.00000
    105     -10.2817      1.00000
    106     -10.1999      1.00000
    107     -10.1998      1.00000
    108     -10.0922      1.00000
    109     -10.0922      1.00000
    110     -10.0023      1.00000
    111      -9.9005      1.00000
    112      -9.9005      1.00000
    113      -9.7833      1.00000
    114      -9.3409      1.00000
    115      -9.3327      1.00000
    116      -9.3326      1.00000
    117      -9.2169      1.00000
    118      -9.2120      1.00000
    119      -9.2120      1.00000
    120      -9.1995      1.00000
    121      -9.1995      1.00000
    122      -9.1093      1.00000
    123      -8.9313      1.00000
    124      -8.9313      1.00000
    125      -8.8352      1.00000
    126      -8.5030      1.00000
    127      -8.5030      1.00000
    128      -8.3496      1.00000
    129      -8.0675      1.00000
    130      -8.0674      1.00000
    131      -7.8192      1.00000
    132      -7.7761      1.00000
    133      -7.7760      1.00000
    134      -7.6386      1.00000
    135      -7.6386      1.00000
    136      -7.6078      1.00000
    137      -7.5227      1.00000
    138      -7.4862      1.00000
    139      -7.4862      1.00000
    140      -7.3788      1.00000
    141      -7.3747      1.00000
    142      -7.3747      1.00000
    143      -6.6366      1.00000
    144      -6.6366      1.00000
    145      -5.3077      0.00000
    146      -1.4168      0.00000
    147      -1.4168      0.00000
    148      -1.3822      0.00000
    149      -1.2013      0.00000
    150      -0.9199      0.00000
    151      -0.8518      0.00000
    152      -0.7809      0.00000
    153      -0.7809      0.00000
    154      -0.6028      0.00000
    155      -0.5063      0.00000
    156      -0.5062      0.00000
    157      -0.4485      0.00000
    158      -0.4485      0.00000
    159      -0.4377      0.00000
    160      -0.3507      0.00000
    161      -0.3507      0.00000
    162      -0.3354      0.00000
    163      -0.3031      0.00000
    164      -0.1760      0.00000
    165      -0.1162      0.00000
    166      -0.0468      0.00000
    167      -0.0468      0.00000
    168      -0.0396      0.00000
    169      -0.0011      0.00000
    170      -0.0010      0.00000
    171       0.1212      0.00000
    172       0.1514      0.00000
    173       0.2513      0.00000
    174       0.5788      0.00000
    175       0.6727      0.00000
    176       0.6745      0.00000
    177       0.6746      0.00000
    178       0.6844      0.00000
    179       0.6846      0.00000
    180       0.7132      0.00000
    181       0.7657      0.00000
    182       0.7658      0.00000
    183       0.7659      0.00000
    184       0.7668      0.00000
    185       0.7669      0.00000
    186       0.7680      0.00000
    187       0.7714      0.00000
    188       0.9224      0.00000
    189       0.9912      0.00000
    190       0.9913      0.00000
    191       1.0120      0.00000
    192       1.0136      0.00000
    193       1.0138      0.00000
    194       1.0228      0.00000
    195       1.0230      0.00000
    196       1.0333      0.00000
    197       1.1228      0.00000
    198       1.1229      0.00000
    199       1.1289      0.00000
    200       1.1309      0.00000
    201       1.1312      0.00000
    202       1.1379      0.00000
    203       1.1698      0.00000
    204       1.1698      0.00000
    205       1.2029      0.00000
    206       1.4129      0.00000
    207       1.4130      0.00000
    208       1.6197      0.00000
    209       1.6211      0.00000
    210       1.6212      0.00000
    211       1.6255      0.00000
    212       1.6257      0.00000
    213       1.6295      0.00000
    214       1.6684      0.00000
    215       1.7118      0.00000
    216       1.7486      0.00000
    217       1.7487      0.00000
    218       1.7738      0.00000
    219       1.7756      0.00000
    220       1.7811      0.00000

 k-point     2 :       0.3333    0.0000    0.0000
  band No.  band energies     occupation 
      1     -31.9860      1.00000
      2     -26.2073      1.00000
      3     -26.2067      1.00000
      4     -25.1666      1.00000
      5     -24.9501      1.00000
      6     -24.8113      1.00000
      7     -24.7412      1.00000
      8     -24.5141      1.00000
      9     -24.3623      1.00000
     10     -24.2585      1.00000
     11     -24.1564      1.00000
     12     -23.9726      1.00000
     13     -23.8321      1.00000
     14     -23.6455      1.00000
     15     -23.5851      1.00000
     16     -23.4762      1.00000
     17     -23.3555      1.00000
     18     -23.2197      1.00000
     19     -23.0678      1.00000
     20     -22.9583      1.00000
     21     -22.8520      1.00000
     22     -22.7051      1.00000
     23     -22.6982      1.00000
     24     -22.5913      1.00000
     25     -22.5348      1.00000
     26     -22.3413      1.00000
     27     -22.2787      1.00000
     28     -22.2079      1.00000
     29     -22.1182      1.00000
     30     -22.1155      1.00000
     31     -22.0524      1.00000
     32     -22.0139      1.00000
     33     -21.8028      1.00000
     34     -21.8013      1.00000
     35     -21.6357      1.00000
     36     -21.6306      1.00000
     37     -20.0505      1.00000
     38     -17.6955      1.00000
     39     -17.6952      1.00000
     40     -15.9119      1.00000
     41     -15.8604      1.00000
     42     -15.6203      1.00000
     43     -15.5517      1.00000
     44     -15.5166      1.00000
     45     -15.3705      1.00000
     46     -15.2531      1.00000
     47     -15.1194      1.00000
     48     -15.0912      1.00000
     49     -15.0730      1.00000
     50     -14.9051      1.00000
     51     -14.8973      1.00000
     52     -14.7436      1.00000
     53     -14.7096      1.00000
     54     -14.5715      1.00000
     55     -14.5589      1.00000
     56     -14.4716      1.00000
     57     -14.3439      1.00000
     58     -14.0596      1.00000
     59     -14.0498      1.00000
     60     -13.8806      1.00000
     61     -13.7394      1.00000
     62     -13.4972      1.00000
     63     -13.4470      1.00000
     64     -13.3260      1.00000
     65     -13.2598      1.00000
     66     -13.0106      1.00000
     67     -12.9675      1.00000
     68     -12.8602      1.00000
     69     -12.7701      1.00000
     70     -12.6652      1.00000
     71     -12.6411      1.00000
     72     -12.4657      1.00000
     73     -12.2904      1.00000
     74     -12.1861      1.00000
     75     -11.9768      1.00000
     76     -11.9142      1.00000
     77     -11.7370      1.00000
     78     -11.7276      1.00000
     79     -11.7117      1.00000
     80     -11.6518      1.00000
     81     -11.6308      1.00000
     82     -11.5258      1.00000
     83     -11.5221      1.00000
     84     -11.3822      1.00000
     85     -11.3714      1.00000
     86     -11.3163      1.00000
     87     -11.1932      1.00000
     88     -11.1820      1.00000
     89     -11.1671      1.00000
     90     -11.0722      1.00000
     91     -10.9858      1.00000
     92     -10.9685      1.00000
     93     -10.9041      1.00000
     94     -10.8796      1.00000
     95     -10.8114      1.00000
     96     -10.7650      1.00000
     97     -10.6219      1.00000
     98     -10.5964      1.00000
     99     -10.5947      1.00000
    100     -10.5605      1.00000
    101     -10.5018      1.00000
    102     -10.4865      1.00000
    103     -10.4735      1.00000
    104     -10.2101      1.00000
    105     -10.1809      1.00000
    106     -10.1449      1.00000
    107     -10.0266      1.00000
    108      -9.9943      1.00000
    109      -9.9061      1.00000
    110      -9.8324      1.00000
    111      -9.8064      1.00000
    112      -9.6012      1.00000
    113      -9.5542      1.00000
    114      -9.5522      1.00000
    115      -9.5388      1.00000
    116      -9.4827      1.00000
    117      -9.3058      1.00000
    118      -9.2700      1.00000
    119      -9.2556      1.00000
    120      -9.0329      1.00000
    121      -8.9235      1.00000
    122      -8.8740      1.00000
    123      -8.8114      1.00000
    124      -8.7899      1.00000
    125      -8.6125      1.00000
    126      -8.5650      1.00000
    127      -8.4947      1.00000
    128      -8.3068      1.00000
    129      -8.2832      1.00000
    130      -8.2458      1.00000
    131      -8.1585      1.00000
    132      -8.0327      1.00000
    133      -8.0326      1.00000
    134      -7.8298      1.00000
    135      -7.6274      1.00000
    136      -7.6145      1.00000
    137      -7.4484      1.00000
    138      -7.4261      1.00000
    139      -7.3819      1.00000
    140      -7.3498      1.00000
    141      -7.0539      1.00000
    142      -7.0459      1.00000
    143      -6.7597      1.00000
    144      -6.7466      1.00000
    145      -5.3063      0.00000
    146      -1.4026      0.00000
    147      -1.3733      0.00000
    148      -1.3391      0.00000
    149      -1.0911      0.00000
    150      -1.0109      0.00000
    151      -0.8868      0.00000
    152      -0.8439      0.00000
    153      -0.8164      0.00000
    154      -0.8159      0.00000
    155      -0.8092      0.00000
    156      -0.7863      0.00000
    157      -0.5227      0.00000
    158      -0.3984      0.00000
    159      -0.3740      0.00000
    160      -0.2868      0.00000
    161      -0.2133      0.00000
    162      -0.1621      0.00000
    163      -0.1419      0.00000
    164      -0.0800      0.00000
    165      -0.0408      0.00000
    166      -0.0272      0.00000
    167      -0.0177      0.00000
    168       0.2074      0.00000
    169       0.2488      0.00000
    170       0.2763      0.00000
    171       0.3313      0.00000
    172       0.3457      0.00000
    173       0.3593      0.00000
    174       0.4023      0.00000
    175       0.4366      0.00000
    176       0.4399      0.00000
    177       0.4905      0.00000
    178       0.4974      0.00000
    179       0.5345      0.00000
    180       0.5397      0.00000
    181       0.5703      0.00000
    182       0.5706      0.00000
    183       0.6410      0.00000
    184       0.6632      0.00000
    185       0.8245      0.00000
    186       0.8269      0.00000
    187       0.8647      0.00000
    188       0.9323      0.00000
    189       0.9345      0.00000
    190       0.9353      0.00000
    191       0.9877      0.00000
    192       1.0226      0.00000
    193       1.0520      0.00000
    194       1.0526      0.00000
    195       1.1463      0.00000
    196       1.1556      0.00000
    197       1.1582      0.00000
    198       1.1590      0.00000
    199       1.3060      0.00000
    200       1.3293      0.00000
    201       1.3444      0.00000
    202       1.3491      0.00000
    203       1.3965      0.00000
    204       1.3991      0.00000
    205       1.4168      0.00000
    206       1.4346      0.00000
    207       1.4434      0.00000
    208       1.4532      0.00000
    209       1.4785      0.00000
    210       1.5183      0.00000
    211       1.5237      0.00000
    212       1.5530      0.00000
    213       1.5862      0.00000
    214       1.5945      0.00000
    215       1.6094      0.00000
    216       1.6155      0.00000
    217       1.6503      0.00000
    218       1.6770      0.00000
    219       1.7475      0.00000
    220       1.7480      0.00000

 k-point     3 :       0.3333    0.3333    0.0000
  band No.  band energies     occupation 
      1     -31.9860      1.00000
      2     -26.2073      1.00000
      3     -26.2072      1.00000
      4     -25.0924      1.00000
      5     -25.0122      1.00000
      6     -24.9392      1.00000
      7     -24.6520      1.00000
      8     -24.4520      1.00000
      9     -24.3618      1.00000
     10     -24.2688      1.00000
     11     -24.0147      1.00000
     12     -24.0005      1.00000
     13     -23.8729      1.00000
     14     -23.8698      1.00000
     15     -23.6934      1.00000
     16     -23.3880      1.00000
     17     -23.1721      1.00000
     18     -23.0963      1.00000
     19     -23.0329      1.00000
     20     -22.9867      1.00000
     21     -22.9810      1.00000
     22     -22.7425      1.00000
     23     -22.6580      1.00000
     24     -22.5474      1.00000
     25     -22.4749      1.00000
     26     -22.4046      1.00000
     27     -22.3730      1.00000
     28     -22.3691      1.00000
     29     -22.0951      1.00000
     30     -22.0890      1.00000
     31     -22.0769      1.00000
     32     -21.8401      1.00000
     33     -21.7882      1.00000
     34     -21.7687      1.00000
     35     -21.6750      1.00000
     36     -21.6613      1.00000
     37     -20.0521      1.00000
     38     -17.6968      1.00000
     39     -17.6947      1.00000
     40     -15.8970      1.00000
     41     -15.7987      1.00000
     42     -15.7065      1.00000
     43     -15.4991      1.00000
     44     -15.4871      1.00000
     45     -15.2318      1.00000
     46     -15.2148      1.00000
     47     -15.2099      1.00000
     48     -15.1735      1.00000
     49     -15.0736      1.00000
     50     -15.0730      1.00000
     51     -15.0427      1.00000
     52     -15.0426      1.00000
     53     -14.6525      1.00000
     54     -14.5599      1.00000
     55     -14.3479      1.00000
     56     -14.1141      1.00000
     57     -14.0241      1.00000
     58     -14.0125      1.00000
     59     -13.9386      1.00000
     60     -13.8860      1.00000
     61     -13.8147      1.00000
     62     -13.5866      1.00000
     63     -13.5583      1.00000
     64     -13.5353      1.00000
     65     -13.4209      1.00000
     66     -13.2295      1.00000
     67     -13.1112      1.00000
     68     -12.8957      1.00000
     69     -12.7815      1.00000
     70     -12.4646      1.00000
     71     -12.3071      1.00000
     72     -12.2816      1.00000
     73     -12.2103      1.00000
     74     -12.0397      1.00000
     75     -12.0382      1.00000
     76     -11.9885      1.00000
     77     -11.9467      1.00000
     78     -11.9161      1.00000
     79     -11.8759      1.00000
     80     -11.6769      1.00000
     81     -11.6552      1.00000
     82     -11.4589      1.00000
     83     -11.3889      1.00000
     84     -11.3293      1.00000
     85     -11.2827      1.00000
     86     -11.2273      1.00000
     87     -11.1879      1.00000
     88     -11.1738      1.00000
     89     -11.0970      1.00000
     90     -11.0859      1.00000
     91     -11.0354      1.00000
     92     -10.9866      1.00000
     93     -10.9841      1.00000
     94     -10.8441      1.00000
     95     -10.8086      1.00000
     96     -10.8012      1.00000
     97     -10.7647      1.00000
     98     -10.6468      1.00000
     99     -10.6005      1.00000
    100     -10.5791      1.00000
    101     -10.5763      1.00000
    102     -10.5068      1.00000
    103     -10.2427      1.00000
    104     -10.1947      1.00000
    105     -10.1635      1.00000
    106     -10.1577      1.00000
    107     -10.0794      1.00000
    108     -10.0424      1.00000
    109      -9.9382      1.00000
    110      -9.9021      1.00000
    111      -9.8209      1.00000
    112      -9.6570      1.00000
    113      -9.5990      1.00000
    114      -9.5753      1.00000
    115      -9.4426      1.00000
    116      -9.4250      1.00000
    117      -9.3442      1.00000
    118      -9.1120      1.00000
    119      -8.9778      1.00000
    120      -8.9607      1.00000
    121      -8.9085      1.00000
    122      -8.8951      1.00000
    123      -8.7735      1.00000
    124      -8.7174      1.00000
    125      -8.6946      1.00000
    126      -8.5387      1.00000
    127      -8.5364      1.00000
    128      -8.3900      1.00000
    129      -8.3012      1.00000
    130      -8.2928      1.00000
    131      -8.1575      1.00000
    132      -8.1215      1.00000
    133      -7.9361      1.00000
    134      -7.9338      1.00000
    135      -7.9157      1.00000
    136      -7.7620      1.00000
    137      -7.4409      1.00000
    138      -7.3564      1.00000
    139      -7.2434      1.00000
    140      -7.1011      1.00000
    141      -7.0211      1.00000
    142      -7.0209      1.00000
    143      -6.8554      1.00000
    144      -6.7956      1.00000
    145      -5.3073      0.00000
    146      -1.4309      0.00000
    147      -1.3775      0.00000
    148      -1.3629      0.00000
    149      -1.0996      0.00000
    150      -1.0664      0.00000
    151      -0.8892      0.00000
    152      -0.8027      0.00000
    153      -0.7206      0.00000
    154      -0.6794      0.00000
    155      -0.6248      0.00000
    156      -0.6247      0.00000
    157      -0.5945      0.00000
    158      -0.5936      0.00000
    159      -0.5299      0.00000
    160      -0.4036      0.00000
    161      -0.3757      0.00000
    162      -0.3551      0.00000
    163      -0.3544      0.00000
    164       0.1047      0.00000
    165       0.1049      0.00000
    166       0.1275      0.00000
    167       0.1774      0.00000
    168       0.1783      0.00000
    169       0.1787      0.00000
    170       0.2630      0.00000
    171       0.2773      0.00000
    172       0.2778      0.00000
    173       0.3242      0.00000
    174       0.4364      0.00000
    175       0.4374      0.00000
    176       0.4510      0.00000
    177       0.4647      0.00000
    178       0.5402      0.00000
    179       0.5428      0.00000
    180       0.5478      0.00000
    181       0.5564      0.00000
    182       0.7215      0.00000
    183       0.8075      0.00000
    184       0.9530      0.00000
    185       0.9632      0.00000
    186       0.9659      0.00000
    187       0.9690      0.00000
    188       1.0165      0.00000
    189       1.0482      0.00000
    190       1.0503      0.00000
    191       1.0524      0.00000
    192       1.0608      0.00000
    193       1.0610      0.00000
    194       1.0622      0.00000
    195       1.0663      0.00000
    196       1.1120      0.00000
    197       1.1317      0.00000
    198       1.1514      0.00000
    199       1.1553      0.00000
    200       1.1619      0.00000
    201       1.1782      0.00000
    202       1.1987      0.00000
    203       1.2152      0.00000
    204       1.2169      0.00000
    205       1.2416      0.00000
    206       1.3022      0.00000
    207       1.3025      0.00000
    208       1.3052      0.00000
    209       1.4204      0.00000
    210       1.4240      0.00000
    211       1.4297      0.00000
    212       1.6485      0.00000
    213       1.6520      0.00000
    214       1.6656      0.00000
    215       1.6973      0.00000
    216       1.7095      0.00000
    217       1.7222      0.00000
    218       1.7224      0.00000
    219       1.7231      0.00000
    220       1.9010      0.00000

 spin component 2

 k-point     1 :       0.0000    0.0000    0.0000
  band No.  band energies     occupation 
      1     -31.9860      1.00000
      2     -26.2066      1.00000
      3     -26.2066      1.00000
      4     -25.2307      1.00000
      5     -24.7839      1.00000
      6     -24.7839      1.00000
      7     -24.6122      1.00000
      8     -24.6122      1.00000
      9     -24.5589      1.00000
     10     -24.4901      1.00000
     11     -23.9227      1.00000
     12     -23.9227      1.00000
     13     -23.7612      1.00000
     14     -23.5178      1.00000
     15     -23.5178      1.00000
     16     -23.4979      1.00000
     17     -23.3135      1.00000
     18     -23.3135      1.00000
     19     -23.3096      1.00000
     20     -23.0613      1.00000
     21     -23.0613      1.00000
     22     -22.7206      1.00000
     23     -22.4911      1.00000
     24     -22.4911      1.00000
     25     -22.3832      1.00000
     26     -22.2641      1.00000
     27     -22.1977      1.00000
     28     -22.1977      1.00000
     29     -22.1456      1.00000
     30     -22.0651      1.00000
     31     -22.0651      1.00000
     32     -22.0078      1.00000
     33     -22.0078      1.00000
     34     -21.9980      1.00000
     35     -21.5760      1.00000
     36     -21.5760      1.00000
     37     -20.0481      1.00000
     38     -17.6947      1.00000
     39     -17.6947      1.00000
     40     -15.9682      1.00000
     41     -15.9682      1.00000
     42     -15.5865      1.00000
     43     -15.4247      1.00000
     44     -15.3840      1.00000
     45     -15.3840      1.00000
     46     -15.0947      1.00000
     47     -15.0947      1.00000
     48     -15.0730      1.00000
     49     -15.0061      1.00000
     50     -14.9418      1.00000
     51     -14.9418      1.00000
     52     -14.8986      1.00000
     53     -14.7575      1.00000
     54     -14.7575      1.00000
     55     -14.3817      1.00000
     56     -14.3817      1.00000
     57     -14.2882      1.00000
     58     -14.1833      1.00000
     59     -14.0632      1.00000
     60     -13.9269      1.00000
     61     -13.9269      1.00000
     62     -13.8928      1.00000
     63     -13.5322      1.00000
     64     -13.5321      1.00000
     65     -12.8390      1.00000
     66     -12.7539      1.00000
     67     -12.6241      1.00000
     68     -12.6241      1.00000
     69     -12.5235      1.00000
     70     -12.5235      1.00000
     71     -12.5147      1.00000
     72     -12.4247      1.00000
     73     -12.2650      1.00000
     74     -12.2650      1.00000
     75     -12.1369      1.00000
     76     -12.1369      1.00000
     77     -12.0440      1.00000
     78     -11.9938      1.00000
     79     -11.9705      1.00000
     80     -11.9704      1.00000
     81     -11.7483      1.00000
     82     -11.4854      1.00000
     83     -11.4854      1.00000
     84     -11.4713      1.00000
     85     -11.4713      1.00000
     86     -11.0968      1.00000
     87     -11.0861      1.00000
     88     -11.0861      1.00000
     89     -10.9940      1.00000
     90     -10.9585      1.00000
     91     -10.9584      1.00000
     92     -10.9451      1.00000
     93     -10.9126      1.00000
     94     -10.9126      1.00000
     95     -10.9106      1.00000
     96     -10.6906      1.00000
     97     -10.4230      1.00000
     98     -10.4229      1.00000
     99     -10.3775      1.00000
    100     -10.3775      1.00000
    101     -10.3499      1.00000
    102     -10.3069      1.00000
    103     -10.2982      1.00000
    104     -10.2982      1.00000
    105     -10.2817      1.00000
    106     -10.1999      1.00000
    107     -10.1998      1.00000
    108     -10.0922      1.00000
    109     -10.0922      1.00000
    110     -10.0023      1.00000
    111      -9.9005      1.00000
    112      -9.9005      1.00000
    113      -9.7833      1.00000
    114      -9.3409      1.00000
    115      -9.3327      1.00000
    116      -9.3326      1.00000
    117      -9.2169      1.00000
    118      -9.2120      1.00000
    119      -9.2120      1.00000
    120      -9.1995      1.00000
    121      -9.1995      1.00000
    122      -9.1093      1.00000
    123      -8.9313      1.00000
    124      -8.9313      1.00000
    125      -8.8352      1.00000
    126      -8.5030      1.00000
    127      -8.5030      1.00000
    128      -8.3496      1.00000
    129      -8.0675      1.00000
    130      -8.0674      1.00000
    131      -7.8192      1.00000
    132      -7.7761      1.00000
    133      -7.7760      1.00000
    134      -7.6386      1.00000
    135      -7.6386      1.00000
    136      -7.6078      1.00000
    137      -7.5227      1.00000
    138      -7.4862      1.00000
    139      -7.4862      1.00000
    140      -7.3788      1.00000
    141      -7.3747      1.00000
    142      -7.3747      1.00000
    143      -6.6366      1.00000
    144      -6.6366      1.00000
    145      -5.3077      0.00000
    146      -1.4168      0.00000
    147      -1.4168      0.00000
    148      -1.3822      0.00000
    149      -1.2013      0.00000
    150      -0.9200      0.00000
    151      -0.8518      0.00000
    152      -0.7809      0.00000
    153      -0.7809      0.00000
    154      -0.6027      0.00000
    155      -0.5063      0.00000
    156      -0.5062      0.00000
    157      -0.4485      0.00000
    158      -0.4485      0.00000
    159      -0.4377      0.00000
    160      -0.3507      0.00000
    161      -0.3507      0.00000
    162      -0.3354      0.00000
    163      -0.3031      0.00000
    164      -0.1761      0.00000
    165      -0.1163      0.00000
    166      -0.0470      0.00000
    167      -0.0469      0.00000
    168      -0.0397      0.00000
    169      -0.0012      0.00000
    170      -0.0010      0.00000
    171       0.1212      0.00000
    172       0.1513      0.00000
    173       0.2513      0.00000
    174       0.5789      0.00000
    175       0.6726      0.00000
    176       0.6742      0.00000
    177       0.6745      0.00000
    178       0.6844      0.00000
    179       0.6847      0.00000
    180       0.7133      0.00000
    181       0.7657      0.00000
    182       0.7657      0.00000
    183       0.7659      0.00000
    184       0.7667      0.00000
    185       0.7668      0.00000
    186       0.7680      0.00000
    187       0.7714      0.00000
    188       0.9223      0.00000
    189       0.9912      0.00000
    190       0.9912      0.00000
    191       1.0119      0.00000
    192       1.0134      0.00000
    193       1.0136      0.00000
    194       1.0227      0.00000
    195       1.0229      0.00000
    196       1.0333      0.00000
    197       1.1228      0.00000
    198       1.1229      0.00000
    199       1.1289      0.00000
    200       1.1309      0.00000
    201       1.1313      0.00000
    202       1.1379      0.00000
    203       1.1698      0.00000
    204       1.1698      0.00000
    205       1.2029      0.00000
    206       1.4129      0.00000
    207       1.4129      0.00000
    208       1.6196      0.00000
    209       1.6210      0.00000
    210       1.6212      0.00000
    211       1.6254      0.00000
    212       1.6257      0.00000
    213       1.6294      0.00000
    214       1.6683      0.00000
    215       1.7117      0.00000
    216       1.7485      0.00000
    217       1.7486      0.00000
    218       1.7735      0.00000
    219       1.7755      0.00000
    220       1.7771      0.00000

 k-point     2 :       0.3333    0.0000    0.0000
  band No.  band energies     occupation 
      1     -31.9860      1.00000
      2     -26.2073      1.00000
      3     -26.2067      1.00000
      4     -25.1666      1.00000
      5     -24.9501      1.00000
      6     -24.8113      1.00000
      7     -24.7412      1.00000
      8     -24.5141      1.00000
      9     -24.3623      1.00000
     10     -24.2585      1.00000
     11     -24.1564      1.00000
     12     -23.9726      1.00000
     13     -23.8321      1.00000
     14     -23.6455      1.00000
     15     -23.5851      1.00000
     16     -23.4762      1.00000
     17     -23.3555      1.00000
     18     -23.2197      1.00000
     19     -23.0678      1.00000
     20     -22.9583      1.00000
     21     -22.8520      1.00000
     22     -22.7051      1.00000
     23     -22.6982      1.00000
     24     -22.5913      1.00000
     25     -22.5348      1.00000
     26     -22.3413      1.00000
     27     -22.2787      1.00000
     28     -22.2079      1.00000
     29     -22.1182      1.00000
     30     -22.1155      1.00000
     31     -22.0524      1.00000
     32     -22.0139      1.00000
     33     -21.8028      1.00000
     34     -21.8013      1.00000
     35     -21.6357      1.00000
     36     -21.6306      1.00000
     37     -20.0505      1.00000
     38     -17.6955      1.00000
     39     -17.6952      1.00000
     40     -15.9119      1.00000
     41     -15.8604      1.00000
     42     -15.6203      1.00000
     43     -15.5517      1.00000
     44     -15.5166      1.00000
     45     -15.3705      1.00000
     46     -15.2531      1.00000
     47     -15.1194      1.00000
     48     -15.0912      1.00000
     49     -15.0730      1.00000
     50     -14.9051      1.00000
     51     -14.8973      1.00000
     52     -14.7436      1.00000
     53     -14.7096      1.00000
     54     -14.5715      1.00000
     55     -14.5589      1.00000
     56     -14.4716      1.00000
[...]
   0.242E+01 0.140E+01 -.306E-04   -.411E+01 -.238E+01 0.322E-17   0.545E+00 0.314E+00 0.397E-22   -.538E-02 -.311E-02 -.925E-08
   0.895E+01 0.476E+01 -.306E-04   -.134E+02 -.611E+01 0.258E-17   0.197E+01 0.859E+00 0.000E+00   -.402E-02 0.652E-02 0.724E-09
   0.186E+02 -.107E+02 -.130E-03   -.236E+02 0.136E+02 -.492E-18   0.257E+01 -.149E+01 0.212E-21   0.178E-03 -.103E-03 -.120E-07
   0.351E+00 -.101E+02 0.207E-03   -.139E+01 0.146E+02 -.238E-17   0.243E+00 -.214E+01 -.318E-21   -.766E-02 0.217E-03 0.139E-07
   -.165E-02 -.279E+01 0.505E-04   -.110E-08 0.475E+01 -.221E-17   0.000E+00 -.629E+00 0.000E+00   -.429E-07 0.622E-02 -.582E-08
   0.282E+00 -.194E+01 0.102E-04   0.120E+00 0.314E+01 -.183E-17   -.133E+00 -.374E+00 0.132E-22   -.725E-04 0.232E-02 0.221E-07
   0.182E+01 0.724E+00 0.116E-04   -.266E+01 -.167E+01 0.204E-17   0.257E+00 0.302E+00 -.529E-22   -.205E-02 -.110E-02 -.768E-07
   0.860E+01 0.537E+01 0.466E-04   -.120E+02 -.853E+01 0.216E-17   0.173E+01 0.128E+01 0.212E-21   0.364E-02 -.674E-02 -.164E-07
   0.877E+02 0.507E+02 -.625E-04   -.106E+03 -.609E+02 0.411E-18   0.160E+02 0.924E+01 0.000E+00   0.120E-02 0.694E-03 0.649E-08
   -.182E-02 -.101E+03 0.357E-03   0.136E-08 0.122E+03 -.251E-17   0.000E+00 -.185E+02 -.159E-21   0.236E-07 -.139E-02 0.955E-08
   -.354E+00 -.101E+02 -.392E-04   0.139E+01 0.146E+02 -.490E-17   -.243E+00 -.214E+01 -.212E-21   0.766E-02 0.217E-03 0.297E-07
   -.165E+01 -.516E+01 -.876E-05   0.313E+01 0.703E+01 -.348E-17   -.318E+00 -.751E+00 0.000E+00   -.806E-04 -.426E-02 0.409E-07
   0.131E+01 -.758E+00 0.147E-04   -.126E+01 0.728E+00 -.134E-17   0.978E-01 -.564E-01 0.000E+00   0.751E-02 -.433E-02 -.796E-07
   0.364E+01 0.401E+01 -.988E-05   -.452E+01 -.622E+01 0.163E-17   0.491E+00 0.651E+00 0.000E+00   0.365E-02 0.220E-02 0.349E-07
   -.165E-02 0.215E+02 0.163E-03   -.293E-09 -.272E+02 0.194E-17   0.000E+00 0.297E+01 0.000E+00   -.657E-08 0.205E-03 0.200E-07
   -.877E+02 0.507E+02 -.295E-03   0.106E+03 -.609E+02 -.103E-17   -.160E+02 0.924E+01 0.000E+00   -.120E-02 0.694E-03 -.160E-07
   -.186E+02 -.107E+02 -.334E-04   0.236E+02 0.136E+02 -.373E-17   -.257E+01 -.149E+01 0.212E-21   -.178E-03 -.103E-03 -.811E-08
   -.529E+01 0.115E+01 0.136E-04   0.765E+01 -.807E+00 -.262E-17   -.809E+00 0.999E-01 0.000E+00   -.373E-02 0.206E-02 -.418E-07
   -.695E+00 -.401E+00 -.418E-04   0.123E+01 0.711E+00 -.197E-17   -.941E-01 -.544E-01 0.000E+00   0.101E-01 0.581E-02 -.317E-08
   -.166E-02 0.801E+00 0.317E-04   -.114E-08 -.142E+01 0.908E-18   0.000E+00 0.109E+00 0.000E+00   -.137E-07 -.116E-01 0.433E-07
   -.364E+01 0.401E+01 0.820E-04   0.452E+01 -.622E+01 0.282E-17   -.491E+00 0.651E+00 -.529E-22   -.365E-02 0.220E-02 0.352E-07
   -.860E+01 0.537E+01 -.211E-03   0.120E+02 -.853E+01 0.487E-18   -.173E+01 0.128E+01 0.529E-22   -.364E-02 -.674E-02 -.521E-08
   -.895E+01 0.476E+01 0.269E-04   0.134E+02 -.611E+01 -.129E-17   -.197E+01 0.859E+00 0.000E+00   0.402E-02 0.652E-02 -.226E-07
   -.154E+01 0.122E+01 -.752E-05   0.278E+01 -.147E+01 0.253E-19   -.390E+00 0.717E-01 0.000E+00   0.198E-02 -.122E-02 -.287E-07
   -.165E-02 0.152E+01 0.200E-04   0.136E-08 -.146E+01 -.325E-18   0.000E+00 0.113E+00 -.212E-21   -.380E-07 0.867E-02 0.827E-07
   0.692E+00 -.401E+00 0.102E-04   -.123E+01 0.711E+00 0.104E-17   0.941E-01 -.544E-01 0.212E-21   -.101E-01 0.581E-02 -.402E-07
   -.131E+01 -.758E+00 -.344E-04   0.126E+01 0.728E+00 0.123E-17   -.978E-01 -.564E-01 0.000E+00   -.751E-02 -.433E-02 -.305E-08
   -.182E+01 0.724E+00 -.376E-04   0.266E+01 -.167E+01 0.405E-18   -.257E+00 0.302E+00 -.529E-22   0.205E-02 -.110E-02 -.218E-07
   -.242E+01 0.140E+01 -.200E-04   0.411E+01 -.238E+01 0.116E-17   -.545E+00 0.314E+00 0.000E+00   0.538E-02 -.311E-02 0.151E-07
   -.165E-02 0.495E+00 0.339E-04   -.216E-09 -.828E+00 0.199E-17   0.000E+00 0.851E-01 0.000E+00   0.417E-08 -.613E-02 0.587E-08
   0.154E+01 0.122E+01 -.124E-04   -.278E+01 -.147E+01 0.439E-17   0.390E+00 0.717E-01 -.106E-21   -.198E-02 -.122E-02 0.822E-07
   0.529E+01 0.115E+01 -.141E-04   -.765E+01 -.807E+00 0.154E-17   0.809E+00 0.999E-01 0.000E+00   0.373E-02 0.206E-02 -.233E-07
   0.165E+01 -.516E+01 -.625E-04   -.313E+01 0.703E+01 0.833E-18   0.318E+00 -.751E+00 0.000E+00   0.807E-04 -.426E-02 -.460E-07
   -.285E+00 -.194E+01 0.356E-04   -.120E+00 0.314E+01 0.359E-18   0.133E+00 -.374E+00 0.000E+00   0.724E-04 0.232E-02 0.229E-07
   -.430E+00 -.248E+00 -.247E-04   0.716E+00 0.413E+00 0.157E-17   -.737E-01 -.425E-01 -.212E-21   0.531E-02 0.307E-02 -.111E-07
 -----------------------------------------------------------------------------------------------
   -.559E-01 -.205E-01 0.465E-05   -.346E-13 -.533E-13 0.000E+00   -.645E-14 0.236E-14 -.124E-21   -.358E-07 -.613E-07 0.178E-09
 
 
 POSITION                                       TOTAL-FORCE (eV/Angst)
 -----------------------------------------------------------------------------------
      1.25633     -0.72829     17.55733         0.002105      0.005069     -0.000000
      2.51497      1.45176     17.55733        -0.003338     -0.004357      0.000000
      3.77545      3.63018     17.55733        -0.000631     -0.000364     -0.000000
      5.01927      5.83751     17.55733        -0.001886      0.003760      0.000000
      6.24687      7.96379     17.55733        -0.004200     -0.000246     -0.000000
      7.53656     10.14463     17.55733        -0.000000      0.000728      0.000000
      2.51199     -2.90758     17.55733        -0.001909     -0.002468      0.000000
      3.76894     -0.72559     17.55733         0.004094     -0.002364     -0.000000
      5.03012      1.45397     17.55733         0.001182      0.002887      0.000000
      6.30895      3.60370     17.55733         0.002313     -0.003514      0.000000
      8.82624      7.96379     17.55733         0.004200     -0.000246      0.000000
      3.78784     -5.06516     17.55733         0.002324      0.001342      0.000000
      5.02765     -2.89815     17.55733         0.000122     -0.006329      0.000000
      6.27978     -0.72939     17.55733         0.005542      0.003059      0.000000
      7.53656      1.42783     17.55733        -0.000000     -0.002683      0.000000
      8.76416      3.60370     17.55733        -0.002313     -0.003514      0.000000
     10.05384      5.83751     17.55733         0.001886      0.003760      0.000000
      5.01843     -7.24888     17.55733        -0.003092     -0.000420      0.000000
      6.28442     -5.07496     17.55733        -0.005420      0.003270      0.000000
      7.53656     -2.90083     17.55733        -0.000000     -0.000000      0.000000
      8.79333     -0.72939     17.55733        -0.005542      0.003059      0.000000
     10.04299      1.45397     17.55733        -0.001182      0.002887      0.000000
     11.29766      3.63018     17.55733         0.000631     -0.000364      0.000000
      6.27791     -9.42597     17.55733         0.005442     -0.000712      0.000000
      7.53656     -7.25131     17.55733        -0.000000      0.004727      0.000000
      8.78869     -5.07496     17.55733         0.005420      0.003270      0.000000
     10.04546     -2.89815     17.55733        -0.000122     -0.006329      0.000000
     11.30417     -0.72559     17.55733        -0.004094     -0.002364      0.000000
     12.55814      1.45176     17.55733         0.003338     -0.004357      0.000000
      7.53656    -11.60333     17.55733        -0.000000     -0.000000      0.000000
      8.79520     -9.42597     17.55733        -0.005442     -0.000712     -0.000000
     10.05468     -7.24888     17.55733         0.003092     -0.000420     -0.000000
     11.28527     -5.06516     17.55733        -0.002324      0.001342     -0.000000
     12.56112     -2.90758     17.55733         0.001909     -0.002468      0.000000
     13.81678     -0.72829     17.55733        -0.002105      0.005069      0.000000
      7.53656      5.80167     17.55733        -0.000000     -0.000000      0.000000
      1.25811      0.72405     17.55733         0.006876     -0.003970     -0.000000
      2.52400      2.90765     17.55733        -0.002978     -0.001719      0.000000
      3.80291      5.08358     17.55733        -0.004058     -0.013189      0.000000
      5.02081      7.25414     17.55733        -0.008186      0.004726      0.000000
      6.29161      9.39415     17.55733         0.009393      0.010109      0.000000
      7.53656     11.58970     17.55733        -0.000000      0.003439      0.000000
      2.50972     -1.45873     17.55733         0.002290     -0.001092      0.000000
      3.77425      0.73150     17.55733         0.002091     -0.001437      0.000000
      5.04785      2.92727     17.55733        -0.013451      0.003080      0.000000
      6.36613      5.12591     17.55733        -0.006965     -0.004021      0.000000
      7.53656      7.15317     17.55733        -0.000000      0.008043      0.000000
      8.78150      9.39415     17.55733        -0.009393      0.010109      0.000000
      3.76691     -3.62743     17.55733        -0.002371      0.004460     -0.000000
      5.02387     -1.45013     17.55733        -0.000872      0.000503     -0.000000
      6.28098      0.72709     17.55733        -0.005048     -0.000177     -0.000000
      7.53656      2.89671     17.55733        -0.000000     -0.009452     -0.000000
      8.70698      5.12591     17.55733         0.006965     -0.004021      0.000000
     10.05230      7.25414     17.55733         0.008186      0.004726      0.000000
      5.02248     -5.80216     17.55733         0.002677     -0.004283      0.000000
      6.27976     -3.62645     17.55733        -0.006102     -0.003523      0.000000
      7.53656     -1.44960     17.55733        -0.000000      0.007046     -0.000000
      8.79213      0.72709     17.55733         0.005048     -0.000177     -0.000000
     10.02526      2.92727     17.55733         0.013451      0.003080     -0.000000
     11.27020      5.08358     17.55733         0.004058     -0.013189      0.000000
      6.27203     -7.97526     17.55733         0.000199      0.002529      0.000000
      7.53656     -5.80225     17.55733        -0.000000     -0.001007      0.000000
      8.79335     -3.62645     17.55733         0.006102     -0.003523     -0.000000
     10.04924     -1.45013     17.55733         0.000872      0.000503      0.000000
     11.29886      0.73150     17.55733        -0.002091     -0.001437      0.000000
     12.54911      2.90765     17.55733         0.002978     -0.001719     -0.000000
      7.53656    -10.15059     17.55733        -0.000000      0.007939     -0.000000
      8.80108     -7.97526     17.55733        -0.000199      0.002529      0.000000
     10.05063     -5.80216     17.55733        -0.002677     -0.004283      0.000000
     11.30620     -3.62743     17.55733         0.002371      0.004460     -0.000000
     12.56339     -1.45873     17.55733        -0.002290     -0.001092     -0.000000
     13.81500      0.72405     17.55733        -0.006876     -0.003970      0.000000
 -----------------------------------------------------------------------------------
    total drift:                               -0.055945     -0.020471      0.000005


--------------------------------------------------------------------------------------------------------



  FREE ENERGIE OF THE ION-ELECTRON SYSTEM (eV)
  ---------------------------------------------------
  free  energy   TOTEN  =      -684.66465241 eV

  energy  without entropy=     -684.66465241  energy(sigma->0) =     -684.66465241
 
 d Force = 0.9396889E-04[ 0.113E-04, 0.177E-03]  d Energy = 0.9454153E-04-0.573E-06
 d Force =-0.3322711E-01[-0.336E-01,-0.329E-01]  d Ewald  =-0.3322712E-01 0.706E-08


--------------------------------------------------------------------------------------------------------


    POTLOK:  cpu time   15.2917: real time   15.1234


--------------------------------------------------------------------------------------------------------




--------------------------------------------------------------------------------------------------------


  
 reached required accuracy - stopping structural energy minimisation
 writing wavefunctions
     LOOP+:  cpu time  464.1463: real time  323.6188
    4ORBIT:  cpu time    0.0000: real time    0.0000
 


 total charge     
 
# of ion       s       p       d       tot
------------------------------------------
    1        0.741   1.383   0.000   2.124
    2        0.741   1.383   0.000   2.124
    3        0.741   1.385   0.000   2.126
    4        0.737   1.377   0.000   2.114
    5        0.737   1.377   0.000   2.114
    6        0.741   1.385   0.000   2.126
    7        0.737   1.372   0.000   2.110
    8        0.740   1.379   0.000   2.118
    9        0.737   1.372   0.000   2.109
   10        0.737   1.377   0.000   2.114
   11        0.737   1.377   0.000   2.114
   12        0.745   1.395   0.000   2.139
   13        0.743   1.389   0.000   2.131
   14        0.743   1.389   0.000   2.131
   15        0.745   1.395   0.000   2.139
   16        0.737   1.376   0.000   2.114
   17        0.737   1.376   0.000   2.114
   18        0.737   1.372   0.000   2.109
   19        0.743   1.389   0.000   2.131
   20        0.743   1.389   0.000   2.131
   21        0.743   1.389   0.000   2.131
   22        0.737   1.372   0.000   2.109
   23        0.741   1.385   0.000   2.126
   24        0.741   1.383   0.000   2.124
   25        0.740   1.379   0.000   2.118
   26        0.743   1.389   0.000   2.132
   27        0.743   1.389   0.000   2.132
   28        0.740   1.379   0.000   2.118
   29        0.741   1.383   0.000   2.124
   30        0.741   1.384   0.000   2.125
   31        0.741   1.383   0.000   2.124
   32        0.737   1.372   0.000   2.110
   33        0.745   1.395   0.000   2.140
   34        0.737   1.372   0.000   2.110
   35        0.741   1.383   0.000   2.124
   36        1.208   2.601   0.000   3.809
   37        1.237   2.818   0.000   4.055
   38        1.236   2.818   0.000   4.055
   39        1.236   2.817   0.000   4.053
   40        1.245   2.842   0.000   4.086
   41        1.236   2.817   0.000   4.053
   42        1.236   2.818   0.000   4.055
   43        1.236   2.819   0.000   4.055
   44        1.236   2.819   0.000   4.055
   45        1.236   2.816   0.000   4.052
   46        1.229   2.696   0.000   3.925
   47        1.229   2.696   0.000   3.925
   48        1.236   2.816   0.000   4.052
   49        1.239   2.826   0.000   4.065
   50        1.238   2.825   0.000   4.063
   51        1.239   2.826   0.000   4.065
   52        1.245   2.843   0.000   4.088
   53        1.229   2.697   0.000   3.926
   54        1.245   2.843   0.000   4.088
   55        1.239   2.827   0.000   4.065
   56        1.238   2.823   0.000   4.061
   57        1.238   2.823   0.000   4.061
   58        1.239   2.827   0.000   4.065
   59        1.236   2.817   0.000   4.052
   60        1.236   2.817   0.000   4.052
   61        1.236   2.819   0.000   4.055
   62        1.238   2.825   0.000   4.063
   63        1.238   2.821   0.000   4.059
   64        1.238   2.825   0.000   4.063
   65        1.236   2.819   0.000   4.055
   66        1.236   2.818   0.000   4.055
   67        1.236   2.819   0.000   4.055
   68        1.236   2.819   0.000   4.055
   69        1.239   2.826   0.000   4.065
   70        1.239   2.826   0.000   4.065
   71        1.236   2.819   0.000   4.055
   72        1.236   2.819   0.000   4.055
--------------------------------------------------
tot         71.654 152.207   0.000 223.861
 


 magnetization (x)
 
# of ion       s       p       d       tot
------------------------------------------
    1        0.000   0.000   0.000   0.000
    2        0.000   0.000   0.000   0.000
    3       -0.000   0.000   0.000   0.000
    4        0.000  -0.000   0.000  -0.000
    5       -0.000  -0.000   0.000  -0.000
    6       -0.000  -0.000   0.000  -0.000
    7        0.000   0.000   0.000   0.000
    8        0.000   0.000   0.000   0.000
    9       -0.000   0.000   0.000   0.000
   10       -0.000   0.000   0.000   0.000
   11       -0.000  -0.000   0.000  -0.000
   12       -0.000  -0.000   0.000  -0.000
   13       -0.000  -0.000   0.000  -0.000
   14       -0.000  -0.000   0.000  -0.000
   15       -0.000   0.000   0.000   0.000
   16       -0.000  -0.000   0.000  -0.000
   17       -0.000  -0.000   0.000  -0.000
   18       -0.000  -0.000   0.000  -0.000
   19       -0.000  -0.000   0.000  -0.000
   20       -0.000   0.000   0.000  -0.000
   21       -0.000  -0.000   0.000  -0.000
   22       -0.000   0.000   0.000   0.000
   23       -0.000  -0.000   0.000  -0.000
   24        0.000   0.000   0.000   0.000
   25        0.000  -0.000   0.000  -0.000
   26       -0.000  -0.000   0.000  -0.000
   27       -0.000   0.000   0.000  -0.000
   28        0.000   0.000   0.000   0.000
   29        0.000   0.000   0.000   0.000
   30        0.000   0.000   0.000   0.000
   31        0.000  -0.000   0.000   0.000
   32        0.000  -0.000   0.000  -0.000
   33       -0.000  -0.000   0.000  -0.000
   34       -0.000   0.000   0.000   0.000
   35        0.000   0.000   0.000   0.000
   36       -0.000   0.000   0.000   0.000
   37       -0.000  -0.000   0.000  -0.000
   38        0.000   0.000   0.000   0.000
   39        0.000  -0.000   0.000  -0.000
   40        0.000   0.000   0.000   0.000
   41        0.000  -0.000   0.000  -0.000
   42        0.000   0.000   0.000   0.000
   43       -0.000   0.000   0.000   0.000
   44       -0.000   0.000   0.000   0.000
   45        0.000  -0.000   0.000  -0.000
   46        0.000  -0.000   0.000  -0.000
   47        0.000  -0.000   0.000  -0.000
   48        0.000  -0.000   0.000  -0.000
   49        0.000  -0.000   0.000  -0.000
   50        0.000  -0.000   0.000   0.000
   51       -0.000  -0.000   0.000  -0.000
   52        0.000  -0.000   0.000   0.000
   53        0.000  -0.000   0.000  -0.000
   54        0.000   0.000   0.000   0.000
   55       -0.000  -0.000   0.000  -0.000
   56        0.000   0.000   0.000   0.000
   57        0.000   0.000   0.000   0.000
   58       -0.000  -0.000   0.000  -0.000
   59        0.000  -0.000   0.000  -0.000
   60        0.000   0.000   0.000   0.000
   61       -0.000   0.000   0.000   0.000
   62        0.000   0.000   0.000   0.000
   63        0.000   0.000   0.000   0.000
   64        0.000  -0.000   0.000   0.000
   65       -0.000   0.000   0.000   0.000
   66        0.000   0.000   0.000   0.000
   67       -0.000   0.000   0.000   0.000
   68       -0.000   0.000   0.000   0.000
   69       -0.000  -0.000   0.000  -0.000
   70        0.000  -0.000   0.000  -0.000
   71       -0.000   0.000   0.000   0.000
   72       -0.000  -0.000   0.000  -0.000
--------------------------------------------------
tot         -0.000   0.000   0.000   0.000
 

 total amount of memory used by VASP MPI-rank0   110881. kBytes
=======================================================================

   base      :      30000. kBytes
   nonlr-proj:       8753. kBytes
   fftplans  :      10805. kBytes
   grid      :      38967. kBytes
   one-center:         12. kBytes
   wavefun   :      22344. kBytes
 
  
  
 General timing and accounting informations for this job:
 ========================================================
  
                  Total CPU time used (sec):     3879.175
                            User time (sec):     3637.833
                          System time (sec):      241.342
                         Elapsed time (sec):     2643.479
  
                   Maximum memory used (kb):     1196528.
                   Average memory used (kb):           0.
  
                          Minor page faults:      1116024
                          Major page faults:            0
                 Voluntary context switches:        23261
