 vasp.5.4.4.18Apr17-6-g9f103f2a35 (build May 01 2020 14:57:12) complex          
  
 executed on             LinuxIFC date 2020.10.12  05:55:16
 running on   96 total cores
 distrk:  each k-point on   24 cores,    4 groups
 distr:  one band on NCORES_PER_BAND=   1 cores,   24 groups


--------------------------------------------------------------------------------------------------------


 INCAR:
 POTCAR:    PAW_PBE B 06Sep2000                   
 POTCAR:    PAW_PBE N 08Apr2002                   
 POTCAR:    PAW_PBE C 08Apr2002                   
 POTCAR:    PAW_PBE F 08Apr2002                   
 POTCAR:    PAW_PBE O 08Apr2002                   

 ----------------------------------------------------------------------------- 
|                                                                             |
|           W    W    AA    RRRRR   N    N  II  N    N   GGGG   !!!           |
|           W    W   A  A   R    R  NN   N  II  NN   N  G    G  !!!           |
|           W    W  A    A  R    R  N N  N  II  N N  N  G       !!!           |
|           W WW W  AAAAAA  RRRRR   N  N N  II  N  N N  G  GGG   !            |
|           WW  WW  A    A  R   R   N   NN  II  N   NN  G    G                |
|           W    W  A    A  R    R  N    N  II  N    N   GGGG   !!!           |
|                                                                             |
|      For optimal performance we recommend to set                            |
|        NCORE= 4 - approx SQRT( number of cores)                             |
|      NCORE specifies how many cores store one orbital (NPAR=cpu/NCORE).     |
|      This setting can  greatly improve the performance of VASP for DFT.     |
|      The default,   NCORE=1            might be grossly inefficient         |
|      on modern multi-core architectures or massively parallel machines.     |
|      Do your own testing !!!!                                               |
|      Unfortunately you need to use the default for GW and RPA calculations. |
|      (for HF NCORE is supported but not extensively tested yet)             |
|                                                                             |
 ----------------------------------------------------------------------------- 


 ----------------------------------------------------------------------------- 
|                                                                             |
|           W    W    AA    RRRRR   N    N  II  N    N   GGGG   !!!           |
|           W    W   A  A   R    R  NN   N  II  NN   N  G    G  !!!           |
|           W    W  A    A  R    R  N N  N  II  N N  N  G       !!!           |
|           W WW W  AAAAAA  RRRRR   N  N N  II  N  N N  G  GGG   !            |
|           WW  WW  A    A  R   R   N   NN  II  N   NN  G    G                |
|           W    W  A    A  R    R  N    N  II  N    N   GGGG   !!!           |
|                                                                             |
|      You have enabled k-point parallelism (KPAR>1).                         |
|      This developmental code was originally  written by Paul Kent at ORNL,  |
|      and carefully double checked in Vienna.                                |
|      GW as well as linear response parallelism added by Martijn Marsman     |
|      and Georg Kresse.                                                      |
|      Carefully verify results versus KPAR=1.                                |
|      Report problems to Paul Kent and Vienna.                               |
|                                                                             |
 ----------------------------------------------------------------------------- 

 POTCAR:    PAW_PBE B 06Sep2000                   
   VRHFIN =B: s2p1                                                              
   LEXCH  = PE                                                                  
   EATOM  =    71.1703 eV,    5.2309 Ry                                         
                                                                                
   TITEL  = PAW_PBE B 06Sep2000                                                 
   LULTRA =        F    use ultrasoft PP ?                                      
   IUNSCR =        1    unscreen: 0-lin 1-nonlin 2-no                           
   RPACOR =    1.200    partial core radius                                     
   POMASS =   10.811; ZVAL   =    3.000    mass and valenz                      
   RCORE  =    1.700    outmost cutoff radius                                   
   RWIGS  =    1.710; RWIGS  =    0.905    wigner-seitz radius (au A)           
   ENMAX  =  318.614; ENMIN  =  238.960 eV                                      
   ICORE  =        2    local potential                                         
   LCOR   =        T    correct aug charges                                     
   LPAW   =        T    paw PP                                                  
   EAUG   =  535.514                                                            
   DEXC   =    0.000                                                            
   RMAX   =    1.732    core radius for proj-oper                               
   RAUG   =    1.300    factor for augmentation sphere                          
   RDEP   =    1.757    radius for radial grids                                 
   RDEPT  =    1.436    core radius for aug-charge                              
                                                                                
   Atomic configuration                                                         
    4 entries                                                                   
     n  l   j            E        occ.                                          
     1  0  0.50      -180.5896   2.0000                                         
     2  0  0.50        -9.4431   2.0000                                         
     2  1  0.50        -3.6068   1.0000                                         
     3  2  1.50        -4.0817   0.0000                                         
   Description                                                                  
     l       E           TYP  RCUT    TYP  RCUT                                 
     0     -9.4430752     23  1.500                                             
     0      0.8675899     23  1.500                                             
     1     -3.6067955     23  1.700                                             
     1      6.1086146     23  1.700                                             
     2     -4.0817478      7  1.700                                             
  local pseudopotential read in
  partial core-charges read in
  partial kinetic energy density read in
  atomic valenz-charges read in
  non local Contribution for L=           0  read in
    real space projection operators read in
  non local Contribution for L=           0  read in
    real space projection operators read in
  non local Contribution for L=           1  read in
    real space projection operators read in
  non local Contribution for L=           1  read in
    real space projection operators read in
    PAW grid and wavefunctions read in
 
   number of l-projection  operators is LMAX  =           4
   number of lm-projection operators is LMMAX =           8
 
 POTCAR:    PAW_PBE N 08Apr2002                   
   VRHFIN =N: s2p3                                                              
   LEXCH  = PE                                                                  
   EATOM  =   264.5486 eV,   19.4438 Ry                                         
                                                                                
   TITEL  = PAW_PBE N 08Apr2002                                                 
   LULTRA =        F    use ultrasoft PP ?                                      
   IUNSCR =        1    unscreen: 0-lin 1-nonlin 2-no                           
   RPACOR =    1.200    partial core radius                                     
   POMASS =   14.001; ZVAL   =    5.000    mass and valenz                      
   RCORE  =    1.500    outmost cutoff radius                                   
   RWIGS  =    1.400; RWIGS  =    0.741    wigner-seitz radius (au A)           
   ENMAX  =  400.000; ENMIN  =  300.000 eV                                      
   ICORE  =        2    local potential                                         
   LCOR   =        T    correct aug charges                                     
   LPAW   =        T    paw PP                                                  
   EAUG   =  627.112                                                            
   DEXC   =    0.000                                                            
   RMAX   =    1.529    core radius for proj-oper                               
   RAUG   =    1.300    factor for augmentation sphere                          
   RDEP   =    1.514    radius for radial grids                                 
   RDEPT  =    1.338    core radius for aug-charge                              
                                                                                
   Atomic configuration                                                         
    4 entries                                                                   
     n  l   j            E        occ.                                          
     1  0  0.50      -384.7179   2.0000                                         
     2  0  0.50       -18.5828   2.0000                                         
     2  1  0.50        -7.0898   3.0000                                         
     3  2  1.50        -6.8029   0.0000                                         
   Description                                                                  
     l       E           TYP  RCUT    TYP  RCUT                                 
     0    -18.5828119     23  1.200                                             
     0    -13.5018863     23  1.200                                             
     1     -7.0897853     23  1.500                                             
     1      9.5240782     23  1.500                                             
     2     -6.8029130      7  1.500                                             
  local pseudopotential read in
  partial core-charges read in
  partial kinetic energy density read in
  atomic valenz-charges read in
  non local Contribution for L=           0  read in
    real space projection operators read in
  non local Contribution for L=           0  read in
    real space projection operators read in
  non local Contribution for L=           1  read in
    real space projection operators read in
  non local Contribution for L=           1  read in
    real space projection operators read in
    PAW grid and wavefunctions read in
 
   number of l-projection  operators is LMAX  =           4
   number of lm-projection operators is LMMAX =           8
 
 POTCAR:    PAW_PBE C 08Apr2002                   
   VRHFIN =C: s2p2                                                              
   LEXCH  = PE                                                                  
   EATOM  =   147.1560 eV,   10.8157 Ry                                         
                                                                                
   TITEL  = PAW_PBE C 08Apr2002                                                 
   LULTRA =        F    use ultrasoft PP ?                                      
   IUNSCR =        1    unscreen: 0-lin 1-nonlin 2-no                           
   RPACOR =    1.200    partial core radius                                     
   POMASS =   12.011; ZVAL   =    4.000    mass and valenz                      
   RCORE  =    1.500    outmost cutoff radius                                   
   RWIGS  =    1.630; RWIGS  =    0.863    wigner-seitz radius (au A)           
   ENMAX  =  400.000; ENMIN  =  300.000 eV                                      
   ICORE  =        2    local potential                                         
   LCOR   =        T    correct aug charges                                     
   LPAW   =        T    paw PP                                                  
   EAUG   =  644.873                                                            
   DEXC   =    0.000                                                            
   RMAX   =    1.529    core radius for proj-oper                               
   RAUG   =    1.300    factor for augmentation sphere                          
   RDEP   =    1.501    radius for radial grids                                 
   RDEPT  =    1.300    core radius for aug-charge                              
                                                                                
   Atomic configuration                                                         
    4 entries                                                                   
     n  l   j            E        occ.                                          
     1  0  0.50      -273.3789   2.0000                                         
     2  0  0.50       -13.7508   2.0000                                         
     2  1  0.50        -5.2854   2.0000                                         
     3  2  1.50        -5.4423   0.0000                                         
   Description                                                                  
     l       E           TYP  RCUT    TYP  RCUT                                 
     0    -13.7508458     23  1.200                                             
     0     -8.2022199     23  1.200                                             
     1     -5.2854383     23  1.500                                             
     1     34.0145650     23  1.500                                             
     2     -5.4423304      7  1.500                                             
  local pseudopotential read in
  partial core-charges read in
  partial kinetic energy density read in
  atomic valenz-charges read in
  non local Contribution for L=           0  read in
    real space projection operators read in
  non local Contribution for L=           0  read in
    real space projection operators read in
  non local Contribution for L=           1  read in
    real space projection operators read in
  non local Contribution for L=           1  read in
    real space projection operators read in
    PAW grid and wavefunctions read in
 
   number of l-projection  operators is LMAX  =           4
   number of lm-projection operators is LMMAX =           8
 
 POTCAR:    PAW_PBE F 08Apr2002                   
   VRHFIN =F: s2p5                                                              
   LEXCH  = PE                                                                  
   EATOM  =   659.6475 eV,   48.4827 Ry                                         
                                                                                
   TITEL  = PAW_PBE F 08Apr2002                                                 
   LULTRA =        F    use ultrasoft PP ?                                      
   IUNSCR =        1    unscreen: 0-lin 1-nonlin 2-no                           
   RPACOR =    1.200    partial core radius                                     
   POMASS =   18.998; ZVAL   =    7.000    mass and valenz                      
   RCORE  =    1.520    outmost cutoff radius                                   
   RWIGS  =    1.500; RWIGS  =    0.794    wigner-seitz radius (au A)           
   ENMAX  =  400.000; ENMIN  =  300.000 eV                                      
   ICORE  =        2    local potential                                         
   LCOR   =        T    correct aug charges                                     
   LPAW   =        T    paw PP                                                  
   EAUG   =  613.614                                                            
   RMAX   =    1.555    core radius for proj-oper                               
   RAUG   =    1.300    factor for augmentation sphere                          
   RDEP   =    1.539    radius for radial grids                                 
   RDEPT  =    1.299    core radius for aug-charge                              
                                                                                
   Atomic configuration                                                         
    4 entries                                                                   
     n  l   j            E        occ.                                          
     1  0  0.50      -663.3661   2.0000                                         
     2  0  0.50       -29.8995   2.0000                                         
     2  1  0.50       -11.1114   5.0000                                         
     3  2  1.50       -10.8847   0.0000                                         
   Description                                                                  
     l       E           TYP  RCUT    TYP  RCUT                                 
     0    -29.8995018     23  1.200                                             
     0     -9.5240782     23  1.200                                             
     1    -11.1113914     23  1.520                                             
     1      1.3605826     23  1.520                                             
     2    -10.8846608      7  1.500                                             
  local pseudopotential read in
  partial core-charges read in
  partial kinetic energy density read in
  atomic valenz-charges read in
  non local Contribution for L=           0  read in
    real space projection operators read in
  non local Contribution for L=           0  read in
    real space projection operators read in
  non local Contribution for L=           1  read in
    real space projection operators read in
  non local Contribution for L=           1  read in
    real space projection operators read in
    PAW grid and wavefunctions read in
 
   number of l-projection  operators is LMAX  =           4
   number of lm-projection operators is LMMAX =           8
 
 POTCAR:    PAW_PBE O 08Apr2002                   
   VRHFIN =O: s2p4                                                              
   LEXCH  = PE                                                                  
   EATOM  =   432.3788 eV,   31.7789 Ry                                         
                                                                                
   TITEL  = PAW_PBE O 08Apr2002                                                 
   LULTRA =        F    use ultrasoft PP ?                                      
   IUNSCR =        1    unscreen: 0-lin 1-nonlin 2-no                           
   RPACOR =    1.200    partial core radius                                     
   POMASS =   16.000; ZVAL   =    6.000    mass and valenz                      
   RCORE  =    1.520    outmost cutoff radius                                   
   RWIGS  =    1.550; RWIGS  =    0.820    wigner-seitz radius (au A)           
   ENMAX  =  400.000; ENMIN  =  300.000 eV                                      
   ICORE  =        2    local potential                                         
   LCOR   =        T    correct aug charges                                     
   LPAW   =        T    paw PP                                                  
   EAUG   =  605.392                                                            
   DEXC   =    0.000                                                            
   RMAX   =    1.553    core radius for proj-oper                               
   RAUG   =    1.300    factor for augmentation sphere                          
   RDEP   =    1.550    radius for radial grids                                 
   RDEPT  =    1.329    core radius for aug-charge                              
                                                                                
   Atomic configuration                                                         
    4 entries                                                                   
     n  l   j            E        occ.                                          
     1  0  0.50      -514.6923   2.0000                                         
     2  0  0.50       -23.9615   2.0000                                         
     2  1  0.50        -9.0305   4.0000                                         
     3  2  1.50        -9.5241   0.0000                                         
   Description                                                                  
     l       E           TYP  RCUT    TYP  RCUT                                 
     0    -23.9615318     23  1.200                                             
     0     -9.5240782     23  1.200                                             
     1     -9.0304911     23  1.520                                             
     1      8.1634956     23  1.520                                             
     2     -9.5240782      7  1.500                                             
  local pseudopotential read in
  partial core-charges read in
  partial kinetic energy density read in
  kinetic energy density of atom read in
  atomic valenz-charges read in
  non local Contribution for L=           0  read in
    real space projection operators read in
  non local Contribution for L=           0  read in
    real space projection operators read in
  non local Contribution for L=           1  read in
    real space projection operators read in
  non local Contribution for L=           1  read in
    real space projection operators read in
    PAW grid and wavefunctions read in
 
   number of l-projection  operators is LMAX  =           4
   number of lm-projection operators is LMMAX =           8
 
 Optimization of the real space projectors (new method)

 maximal supplied QI-value         = 22.11
 optimisation between [QCUT,QGAM] = [ 11.94, 23.88] = [ 39.92,159.67] Ry 
 Optimized for a Real-space Cutoff    1.18 Angstroem

   l    n(q)    QCUT    max X(q) W(low)/X(q) W(high)/X(q)  e(spline) 
   0      8    11.939    53.033    0.11E-03    0.34E-03    0.60E-07
   0      8    11.939    34.740    0.11E-03    0.34E-03    0.59E-07
   1      8    11.939    30.949    0.22E-03    0.20E-03    0.17E-06
   1      8    11.939    19.518    0.20E-03    0.18E-03    0.16E-06
 Optimization of the real space projectors (new method)

 maximal supplied QI-value         = 25.13
 optimisation between [QCUT,QGAM] = [ 11.81, 23.88] = [ 39.08,159.64] Ry 
 Optimized for a Real-space Cutoff    1.41 Angstroem

   l    n(q)    QCUT    max X(q) W(low)/X(q) W(high)/X(q)  e(spline) 
   0     10    11.813    79.467    0.48E-04    0.30E-04    0.67E-06
   0     10    11.813    66.151    0.47E-04    0.30E-04    0.67E-06
   1     10    11.813    20.169    0.11E-03    0.17E-03    0.11E-05
   1     10    11.813    14.454    0.11E-03    0.17E-03    0.11E-05
 Optimization of the real space projectors (new method)

 maximal supplied QI-value         = 25.13
 optimisation between [QCUT,QGAM] = [ 11.81, 23.88] = [ 39.08,159.64] Ry 
 Optimized for a Real-space Cutoff    1.18 Angstroem

   l    n(q)    QCUT    max X(q) W(low)/X(q) W(high)/X(q)  e(spline) 
   0      8    11.813   115.676    0.10E-03    0.16E-03    0.35E-06
   0      8    11.813    87.132    0.10E-03    0.16E-03    0.35E-06
   1      8    11.813     4.429    0.16E-03    0.13E-04    0.22E-06
   1      8    11.813     2.733    0.13E-03    0.10E-04    0.18E-06
 Optimization of the real space projectors (new method)

 maximal supplied QI-value         = 24.76
 optimisation between [QCUT,QGAM] = [ 11.88, 24.01] = [ 39.54,161.47] Ry 
 Optimized for a Real-space Cutoff    1.18 Angstroem

   l    n(q)    QCUT    max X(q) W(low)/X(q) W(high)/X(q)  e(spline) 
   0      8    11.883    14.049    0.56E-04    0.86E-04    0.22E-06
   0      8    11.883     8.945    0.81E-04    0.11E-03    0.30E-06
   1      8    11.883     7.086    0.16E-03    0.15E-04    0.31E-06
   1      8    11.883     6.747    0.15E-03    0.14E-04    0.28E-06
 Optimization of the real space projectors (new method)

 maximal supplied QI-value         = 24.76
 optimisation between [QCUT,QGAM] = [ 11.88, 24.01] = [ 39.54,161.47] Ry 
 Optimized for a Real-space Cutoff    1.18 Angstroem

   l    n(q)    QCUT    max X(q) W(low)/X(q) W(high)/X(q)  e(spline) 
   0      8    11.883    20.381    0.86E-04    0.11E-03    0.31E-06
   0      8    11.883    15.268    0.94E-04    0.12E-03    0.33E-06
   1      8    11.883     5.964    0.19E-03    0.18E-04    0.33E-06
   1      8    11.883     5.382    0.17E-03    0.20E-04    0.29E-06
  PAW_PBE B 06Sep2000                   :
 energy of atom  1       EATOM=  -71.1703
 kinetic energy error for atom=    0.0009 (will be added to EATOM!!)
  PAW_PBE N 08Apr2002                   :
 energy of atom  2       EATOM= -264.5486
 kinetic energy error for atom=    0.0116 (will be added to EATOM!!)
  PAW_PBE C 08Apr2002                   :
 energy of atom  3       EATOM= -147.1560
 kinetic energy error for atom=    0.0066 (will be added to EATOM!!)
  PAW_PBE F 08Apr2002                   :
 energy of atom  4       EATOM= -659.6475
 kinetic energy error for atom=    0.0296 (will be added to EATOM!!)
  PAW_PBE O 08Apr2002                   :
 energy of atom  5       EATOM= -432.3788
 kinetic energy error for atom=    0.0194 (will be added to EATOM!!)
 
 
 POSCAR: B N C F O                               
  positions in direct lattice
  velocities in cartesian coordinates

 METAGGA = SCAN     LMAXTAU =  6    LMIXTAU =  F

 exchange correlation table for  LEXCH =        8
   RHO(1)=    0.500       N(1)  =     2000
   RHO(2)=  100.500       N(2)  =     4000
 


--------------------------------------------------------------------------------------------------------


 ion  position               nearest neighbor table
   1  0.111  0.056  0.500-  42 1.45  37 1.45  43 1.45
   2  0.111  0.222  0.500-  38 1.45  37 1.45  44 1.45
   3  0.111  0.389  0.500-  39 1.45  38 1.45  45 1.45
   4  0.111  0.556  0.500-  46 1.45  39 1.45  40 1.45
   5  0.111  0.722  0.500-  40 1.45  47 1.45  41 1.45
   6  0.111  0.889  0.500-  41 1.45  48 1.45  42 1.45
   7  0.278  0.056  0.500-  48 1.45  49 1.45  43 1.45
   8  0.278  0.222  0.500-  43 1.45  44 1.45  50 1.45
   9  0.278  0.389  0.500-  45 1.45  51 1.45  44 1.45
  10  0.278  0.556  0.500-  46 1.45  52 1.45  45 1.45
  11  0.278  0.722  0.500-  46 1.45  53 1.45  47 1.45
  12  0.278  0.889  0.500-  47 1.45  54 1.45  48 1.45
  13  0.444  0.056  0.500-  55 1.45  54 1.45  49 1.45
  14  0.444  0.222  0.500-  56 1.45  49 1.45  50 1.45
  15  0.444  0.389  0.500-  57 1.45  51 1.45  50 1.45
  16  0.444  0.556  0.500-  52 1.45  58 1.45  51 1.45
  17  0.444  0.722  0.500-  59 1.45  53 1.45  52 1.45
  18  0.444  0.889  0.500-  53 1.45  60 1.45  54 1.45
  19  0.611  0.056  0.500-  60 1.45  61 1.45  55 1.45
  20  0.611  0.222  0.500-  62 1.45  55 1.45  56 1.45
  21  0.611  0.389  0.500-  63 1.45  56 1.45  57 1.45
  22  0.611  0.556  0.500-  58 1.45  64 1.45  57 1.45
  23  0.611  0.722  0.500-  59 1.45  65 1.45  58 1.45
  24  0.611  0.889  0.500-  59 1.45  66 1.45  60 1.45
  25  0.778  0.056  0.500-  67 1.45  66 1.45  61 1.45
  26  0.778  0.222  0.500-  68 1.45  61 1.45  62 1.45
  27  0.778  0.389  0.500-  63 1.45  69 1.45  62 1.45
  28  0.778  0.556  0.500-  64 1.45  63 1.45  70 1.45
  29  0.778  0.722  0.500-  64 1.45  65 1.45  71 1.45
  30  0.778  0.889  0.500-  65 1.45  66 1.45  72 1.45
  31  0.944  0.056  0.500-  67 1.45  72 1.45  37 1.45
  32  0.944  0.222  0.500-  67 1.45  68 1.45  38 1.45
  33  0.944  0.389  0.500-  39 1.45  68 1.45  69 1.45
  34  0.944  0.556  0.500-  40 1.45  69 1.45  70 1.45
  35  0.944  0.722  0.500-  70 1.45  71 1.45  41 1.45
  36  0.944  0.889  0.500-  71 1.45  72 1.45  42 1.45
  37  0.056  0.111  0.500-   2 1.45   1 1.45  31 1.45
  38  0.056  0.278  0.500-   2 1.45   3 1.45  32 1.45
  39  0.056  0.444  0.500-   3 1.45  33 1.45   4 1.45
  40  0.056  0.611  0.500-   5 1.45  34 1.45   4 1.45
  41  0.056  0.778  0.500-   6 1.45  35 1.45   5 1.45
  42  0.056  0.944  0.500-   1 1.45   6 1.45  36 1.45
  43  0.222  0.111  0.500-   8 1.45   7 1.45   1 1.45
  44  0.222  0.278  0.500-   8 1.45   9 1.45   2 1.45
  45  0.222  0.444  0.500-   9 1.45   3 1.45  10 1.45
  46  0.222  0.611  0.500-  11 1.45  10 1.45   4 1.45
  47  0.222  0.778  0.500-  12 1.45   5 1.45  11 1.45
  48  0.222  0.944  0.500-   7 1.45   6 1.45  12 1.45
  49  0.389  0.111  0.500-  14 1.45   7 1.45  13 1.45
  50  0.389  0.278  0.500-   8 1.45  15 1.45  14 1.45
  51  0.389  0.444  0.500-   9 1.45  15 1.45  16 1.45
  52  0.389  0.611  0.500-  16 1.45  10 1.45  17 1.45
  53  0.389  0.778  0.500-  18 1.45  11 1.45  17 1.45
  54  0.389  0.944  0.500-  13 1.45  12 1.45  18 1.45
  55  0.556  0.111  0.500-  20 1.45  13 1.45  19 1.45
  56  0.556  0.278  0.500-  14 1.45  21 1.45  20 1.45
  57  0.556  0.444  0.500-  15 1.45  21 1.45  22 1.45
  58  0.556  0.611  0.500-  16 1.45  22 1.45  23 1.45
  59  0.556  0.778  0.500-  24 1.45  17 1.45  23 1.45
  60  0.556  0.944  0.500-  19 1.45  18 1.45  24 1.45
  61  0.722  0.111  0.500-  19 1.45  26 1.45  25 1.45
  62  0.722  0.278  0.500-  20 1.45  26 1.45  27 1.45
  63  0.722  0.444  0.500-  21 1.45  27 1.45  28 1.45
  64  0.722  0.611  0.500-  22 1.45  29 1.45  28 1.45
  65  0.722  0.778  0.500-  30 1.45  29 1.45  23 1.45
  66  0.722  0.944  0.500-  25 1.45  30 1.45  24 1.45
  67  0.889  0.111  0.500-  31 1.45  25 1.45  32 1.45
  68  0.889  0.278  0.500-  32 1.45  26 1.45  33 1.45
  69  0.889  0.444  0.500-  27 1.45  34 1.45  33 1.45
  70  0.889  0.611  0.500-  35 1.45  34 1.45  28 1.45
  71  0.889  0.778  0.500-  36 1.45  35 1.45  29 1.45
  72  0.889  0.944  0.500-  31 1.45  36 1.45  30 1.45
  73  0.373  0.313  0.673-  76 1.34  78 1.34  77 1.34  74 1.54
  74  0.354  0.316  0.630-  80 1.36  79 1.36  73 1.54  75 1.54
  75  0.343  0.409  0.618-  82 1.25  81 1.25  74 1.54
  76  0.461  0.396  0.684-  73 1.34
  77  0.377  0.229  0.682-  73 1.34
  78  0.296  0.312  0.693-  73 1.34
  79  0.434  0.318  0.612-  74 1.36
  80  0.268  0.227  0.622-  74 1.36
  81  0.424  0.491  0.612-  75 1.25
  82  0.254  0.395  0.615-  75 1.25
 

IMPORTANT INFORMATION: All symmetrisations will be switched off!
NOSYMM: (Re-)initialisation of all symmetry stuff for point group C_1.

 
 
 KPOINTS: K-Point Grid                            

Automatic generation of k-mesh.
Space group operators:
 irot       det(A)        alpha          n_x          n_y          n_z        tau_x        tau_y        tau_z
    1     1.000000     0.000000     1.000000     0.000000     0.000000     0.000000     0.000000     0.000000
 
 Subroutine IBZKPT returns following result:
 ===========================================
 
 Found      5 irreducible k-points:
 
 Following reciprocal coordinates:
            Coordinates               Weight
  0.000000  0.000000  0.000000      1.000000
  0.333333  0.000000  0.000000      2.000000
  0.000000  0.333333  0.000000      2.000000
  0.333333  0.333333  0.000000      2.000000
 -0.333333  0.333333  0.000000      2.000000
 
 Following cartesian coordinates:
            Coordinates               Weight
  0.000000  0.000000  0.000000      1.000000
  0.022114 -0.012768  0.000000      2.000000
  0.022114  0.012768  0.000000      2.000000
  0.044229  0.000000  0.000000      2.000000
  0.000000  0.025535  0.000000      2.000000
 


--------------------------------------------------------------------------------------------------------




 Dimension of arrays:
   k-points           NKPTS =      5   k-points in BZ     NKDIM =      5   number of bands    NBANDS=    264
   number of dos      NEDOS =   1200   number of ions     NIONS =     82
   non local maximal  LDIM  =      4   non local SUM 2l+1 LMDIM =      8
   total plane-waves  NPLWV = ******
   max r-space proj   IRMAX =   6598   max aug-charges    IRDMAX=   8974
   dimension x,y,z NGX =   120 NGY =  120 NGZ =  270
   dimension x,y,z NGXF=   240 NGYF=  240 NGZF=  540
   support grid    NGXF=   240 NGYF=  240 NGZF=  540
   ions per type =              36  36   3   5   2
   NGX,Y,Z   is equivalent  to a cutoff of  13.24, 13.24, 12.78 a.u.
   NGXF,Y,Z  is equivalent  to a cutoff of  26.47, 26.47, 25.57 a.u.

 SYSTEM =  SiC                                     
 POSCAR =  B N C F O                               

 Startparameter for this run:
   NWRITE =      2    write-flag & timer
   PREC   = accura    normal or accurate (medium, high low for compatibility)
   ISTART =      1    job   : 0-new  1-cont  2-samecut
   ICHARG =      0    charge: 1-file 2-atom 10-const
   ISPIN  =      2    spin polarized calculation?
   LNONCOLLINEAR =      F non collinear calculations
   LSORBIT =      F    spin-orbit coupling
   INIWAV =      1    electr: 0-lowe 1-rand  2-diag
   LASPH  =      T    aspherical Exc in radial PAW
   METAGGA=      F    non-selfconsistent MetaGGA calc.

 Electronic Relaxation 1
   ENCUT  =  550.0 eV  40.42 Ry    6.36 a.u.  28.82 28.82 67.15*2*pi/ulx,y,z
   ENINI  =  550.0     initial cutoff
   ENAUG  =  644.9 eV  augmentation charge cutoff
   NELM   =    100;   NELMIN=  2; NELMDL=  0     # of ELM steps 
   EDIFF  = 0.1E-04   stopping-criterion for ELM
   LREAL  =      T    real-space projection
   NLSPLINE    = F    spline interpolate recip. space projectors
   LCOMPAT=      F    compatible to vasp.4.4
   GGA_COMPAT  = T    GGA compatible to vasp.4.4-vasp.4.6
   LMAXPAW     = -100 max onsite density
   LMAXMIX     =    2 max onsite mixed and CHGCAR
   VOSKOWN=      0    Vosko Wilk Nusair interpolation
   ROPT   =   -0.00025  -0.00025  -0.00025  -0.00025
   ROPT   =   -0.00025
 Ionic relaxation
   EDIFFG = -.2E-01   stopping-criterion for IOM
   NSW    =    500    number of steps for IOM
   NBLOCK =      1;   KBLOCK =    500    inner block; outer block 
   IBRION =      2    ionic relax: 0-MD 1-quasi-New 2-CG
   NFREE  =      1    steps in history (QN), initial steepest desc. (CG)
   ISIF   =      2    stress and relaxation
   IWAVPR =     11    prediction:  0-non 1-charg 2-wave 3-comb
   ISYM   =      0    0-nonsym 1-usesym 2-fastsym
   LCORR  =      T    Harris-Foulkes like correction to forces

   POTIM  = 0.5000    time-step for ionic-motion
   TEIN   =    0.0    initial temperature
   TEBEG  =    0.0;   TEEND  =   0.0 temperature during run
   SMASS  =  -3.00    Nose mass-parameter (am)
   estimated Nose-frequenzy (Omega)   =  0.10E-29 period in steps =****** mass=  -0.519E-26a.u.
   SCALEE = 1.0000    scale energy and forces
   NPACO  =    256;   APACO  = 16.0  distance and # of slots for P.C.
   PSTRESS=    0.0 pullay stress

  Mass of Ions in am
   POMASS =  10.81 14.00 12.01 19.00 16.00
  Ionic Valenz
   ZVAL   =   3.00  5.00  4.00  7.00  6.00
  Atomic Wigner-Seitz radii
   RWIGS  =  -1.00 -1.00 -1.00 -1.00 -1.00
  virtual crystal weights 
   VCA    =   1.00  1.00  1.00  1.00  1.00
   NELECT =     345.9000    total number of electrons
   NUPDOWN=      -1.0000    fix difference up-down

 DOS related values:
   EMIN   =  10.00;   EMAX   =-10.00  energy-range for DOS
   EFERMI =   0.00
   ISMEAR =     0;   SIGMA  =   0.05  broadening in eV -4-tet -1-fermi 0-gaus

 Electronic relaxation 2 (details)
   IALGO  =     68    algorithm
   LDIAG  =      T    sub-space diagonalisation (order eigenvalues)
   LSUBROT=      F    optimize rotation matrix (better conditioning)
   TURBO    =      0    0=normal 1=particle mesh
   IRESTART =      0    0=no restart 2=restart with 2 vectors
   NREBOOT  =      0    no. of reboots
   NMIN     =      0    reboot dimension
   EREF     =   0.00    reference energy to select bands
   IMIX   =      4    mixing-type and parameters
     AMIX     =   0.40;   BMIX     =  1.00
     AMIX_MAG =   1.60;   BMIX_MAG =  1.00
     AMIN     =   0.10
     WC   =   100.;   INIMIX=   1;  MIXPRE=   1;  MAXMIX= -45

 Intra band minimization:
   WEIMIN = 0.0010     energy-eigenvalue tresh-hold
   EBREAK =  0.95E-08  absolut break condition
   DEPER  =   0.30     relativ break condition  

   TIME   =   0.40     timestep for ELM

  volume/ion in A,a.u.               =      84.26       568.60
  Fermi-wavevector in a.u.,A,eV,Ry     =   0.603369  1.140202  4.953256  0.364054
  Thomas-Fermi vector in A             =   1.656324
 
 Write flags
   LWAVE        =      T    write WAVECAR
   LDOWNSAMPLE  =      F    k-point downsampling of WAVECAR
   LCHARG       =      F    write CHGCAR
   LVTOT        =      F    write LOCPOT, total local potential
   LVHAR        =      T    write LOCPOT, Hartree potential only
   LELF         =      F    write electronic localiz. function (ELF)
   LORBIT       =     11    0 simple, 1 ext, 2 COOP (PROOUT), +10 PAW based schemes


 Dipole corrections
   LMONO  =      F    monopole corrections only (constant potential shift)
   LDIPOL =      F    correct potential (dipole corrections)
   IDIPOL =      0    1-x, 2-y, 3-z, 4-all directions 
   EPSILON=  1.0000000 bulk dielectric constant

 Exchange correlation treatment:
   GGA     =    --    GGA type
   LEXCH   =     8    internal setting for exchange type
   VOSKOWN=      0    Vosko Wilk Nusair interpolation
   LHFCALC =     F    Hartree Fock is set to
   LHFONE  =     F    Hartree Fock one center treatment
   AEXX    =    0.0000 exact exchange contribution

 Linear response parameters
   LEPSILON=     F    determine dielectric tensor
   LRPA    =     F    only Hartree local field effects (RPA)
   LNABLA  =     F    use nabla operator in PAW spheres
   LVEL    =     F    velocity operator in full k-point grid
   LINTERFAST=   F  fast interpolation
   KINTER  =     0    interpolate to denser k-point grid
   CSHIFT  =0.1000    complex shift for real part using Kramers Kronig
   OMEGAMAX=  -1.0    maximum frequency
   DEG_THRESHOLD= 0.2000000E-02 threshold for treating states as degnerate
   RTIME   =   -0.100 relaxation time in fs
  (WPLASMAI=    0.000 imaginary part of plasma frequency in eV, 0.658/RTIME)
   DFIELD  = 0.0000000 0.0000000 0.0000000 field for delta impulse in time
 
 Orbital magnetization related:
   ORBITALMAG=     F  switch on orbital magnetization
   LCHIMAG   =     F  perturbation theory with respect to B field
   DQ        =  0.001000  dq finite difference perturbation B field
   LLRAUG    =     F  two centre corrections for induced B field

 Solvation model:
   LSOL    =     T         switch on solvation model
   EB_K    = 78.400000     relative permittivity of the bulk solvent
   SIGMA_K =  0.600000     width of the dielectric cavity
   NC_K    =  0.002500     cutoff charge density
   TAU     =  0.000000     cavity surface tension
   LAMBDA_D_K    =  3.040000     Debye length in Angstroms
   LRHOB     =     F     write boundcharge  density
   LRHOION     =     F     write ioniccharge density



--------------------------------------------------------------------------------------------------------


 conjugate gradient relaxation of ions
   using selective dynamics as specified on POSCAR
 charge density and potential will be updated during run
 spin polarized calculation
 RMM-DIIS sequential band-by-band and
  variant of blocked Davidson during initial phase
 perform sub-space diagonalisation
    before iterative eigenvector-optimisation
 modified Broyden-mixing scheme, WC =      100.0
 initial mixing is a Kerker type mixing with AMIX =  0.4000 and BMIX =      1.0000
 Hartree-type preconditioning will be used
 using additional bands           91
 real space projection scheme for non local part
 use partial core corrections
 calculate Harris-corrections to forces 
   (improved forces if not selfconsistent)
 use gradient corrections 
 use of overlap-Matrix (Vanderbilt PP)
 Gauss-broadening in eV      SIGMA  =   0.05


--------------------------------------------------------------------------------------------------------


  energy-cutoff  :      550.00
  volume of cell :     6909.18
      direct lattice vectors                 reciprocal lattice vectors
     7.536550057-13.053746059  0.000000000     0.066343353 -0.038303181  0.000000000
     7.536550057 13.053746059  0.000000000     0.066343353  0.038303181  0.000000000
     0.000000000  0.000000000 35.114664386     0.000000000  0.000000000  0.028478131

  length of vectors
    15.073150730 15.073150730 35.114664386     0.076606620  0.076606620  0.028478131


 
 old parameters found on file WAVECAR:
  energy-cutoff  :      550.00
  volume of cell :     6909.18
      direct lattice vectors                 reciprocal lattice vectors
     7.536550057-13.053746059  0.000000000     0.066343353 -0.038303181  0.000000000
     7.536550057 13.053746059  0.000000000     0.066343353  0.038303181  0.000000000
     0.000000000  0.000000000 35.114664386     0.000000000  0.000000000  0.028478131

  length of vectors

 
 k-points in units of 2pi/SCALE and weight: K-Point Grid                            
   0.00000000  0.00000000  0.00000000       0.111
   0.02211445 -0.01276773  0.00000000       0.222
   0.02211445  0.01276773  0.00000000       0.222
   0.04422890  0.00000000  0.00000000       0.222
   0.00000000  0.02553545  0.00000000       0.222
 
 k-points in reciprocal lattice and weights: K-Point Grid                            
   0.00000000  0.00000000  0.00000000       0.111
   0.33333333  0.00000000  0.00000000       0.222
   0.00000000  0.33333333  0.00000000       0.222
   0.33333333  0.33333333  0.00000000       0.222
  -0.33333333  0.33333333  0.00000000       0.222
 
 position of ions in fractional coordinates (direct lattice) 
   0.11110508  0.05555208  0.50001115
   0.11109826  0.22221722  0.49998278
   0.11110747  0.38888837  0.49994449
   0.11111231  0.55555437  0.49997990
   0.11111114  0.72222077  0.50001378
   0.11111051  0.88888802  0.50002050
   0.27777795  0.05555126  0.50001855
   0.27776883  0.22220917  0.49996938
   0.27776668  0.38889634  0.49988990
   0.27777861  0.55555792  0.49992742
   0.27777770  0.72221956  0.49998894
   0.27777734  0.88888696  0.50002040
   0.44444592  0.05555362  0.50002322
   0.44444923  0.22221581  0.50001261
   0.44445502  0.38889637  0.49993190
   0.44444630  0.55556307  0.49992839
   0.44444529  0.72222116  0.49996783
   0.44444444  0.88888629  0.50000961
   0.61111103  0.05555401  0.50001768
   0.61111217  0.22222010  0.50001903
   0.61111333  0.38888912  0.49999647
   0.61111018  0.55555853  0.49996933
   0.61110794  0.72222072  0.49997787
   0.61110996  0.88888619  0.50000439
   0.77777769  0.05555441  0.50001568
   0.77777801  0.22222183  0.50001460
   0.77777728  0.38888930  0.50001636
   0.77777544  0.55555485  0.50000548
   0.77777467  0.72221989  0.50000274
   0.77777526  0.88888624  0.50001287
   0.94444187  0.05555467  0.50001334
   0.94444313  0.22222120  0.49999708
   0.94444585  0.38888945  0.50000043
   0.94444437  0.55555525  0.50001497
   0.94444319  0.72222083  0.50001756
   0.94444296  0.88888733  0.50001933
   0.05555513  0.11111151  0.50000148
   0.05555513  0.27777748  0.49996610
   0.05555467  0.44444397  0.49996850
   0.05555560  0.61111020  0.50000414
   0.05555515  0.77777679  0.50001753
   0.05555472  0.94444360  0.50001717
   0.22222074  0.11110876  0.50000484
   0.22222445  0.27777918  0.49996350
   0.22221882  0.44444541  0.49988366
   0.22222215  0.61111075  0.49995681
   0.22222229  0.77777657  0.50000963
   0.22222204  0.94444329  0.50002025
   0.38888882  0.11111095  0.50002107
   0.38888517  0.27777841  0.49999521
   0.38887938  0.44443375  0.49990803
   0.38888859  0.61110890  0.49992456
   0.38888904  0.77777596  0.49998543
   0.38888908  0.94444363  0.50001919
   0.55555566  0.11111039  0.50001845
   0.55555370  0.27777685  0.50001145
   0.55555415  0.44444284  0.49996028
   0.55555041  0.61110757  0.49994552
   0.55555482  0.77777685  0.49997739
   0.55555541  0.94444340  0.50001030
   0.72222208  0.11111052  0.50001415
   0.72222157  0.27777706  0.50001585
   0.72222129  0.44444367  0.50000424
   0.72221983  0.61110955  0.49998774
   0.72221950  0.77777552  0.49999581
   0.72222152  0.94444340  0.50001178
   0.88888824  0.11111055  0.50000834
   0.88888896  0.27777735  0.50000171
   0.88888845  0.44444400  0.50001365
   0.88888793  0.61111018  0.50001389
   0.88888742  0.77777637  0.50001354
   0.88888790  0.94444360  0.50001725
   0.37253502  0.31349378  0.67317907
   0.35376135  0.31646484  0.63031073
   0.34262718  0.40882243  0.61799490
   0.46091615  0.39590770  0.68374591
   0.37739997  0.22926297  0.68195020
   0.29588207  0.31181991  0.69329252
   0.43390619  0.31762357  0.61177555
   0.26766353  0.22654273  0.62158163
   0.42373573  0.49117230  0.61241763
   0.25403165  0.39468367  0.61519276
 
 position of ions in cartesian coordinates  (Angst):
   1.25602004 -0.72517473 17.55772385
   2.51204880  1.45051861 17.55672744
   3.76824369  3.62608136 17.55538303
   5.02436676  5.80163384 17.55662627
   6.28044764  7.97727003 17.55781603
   7.53653892 10.15291007 17.55805201
   2.51215227 -2.90089089 17.55798345
   3.76810924 -0.72526169 17.55625694
   5.02433924  1.45065837 17.55346606
   6.28048250  3.62606062 17.55478357
   7.53652938  5.80163122 17.55694382
   8.79262385  7.97726979 17.55804856
   3.76827158 -5.07650136 17.55814757
   5.02435448 -2.90097864 17.55777506
   6.28059447 -0.72524851 17.55494080
   7.53662067  1.45049006 17.55481754
   8.79264008  3.62601573 17.55620260
  10.04871376  5.80163107 17.55766968
   5.02435450 -7.25210026 17.55795286
   6.28045039 -5.07649835 17.55800029
   7.53656853 -2.90085848 17.55720820
   8.79265712 -0.72515715 17.55625527
  10.04869817  1.45043804 17.55655523
  11.30479611  3.62602038 17.55748644
   6.28044911 -9.42771936 17.55788268
   7.53654884 -7.25208934 17.55784473
   8.79264109 -5.07644486 17.55790678
  10.04871042 -2.90081113 17.55752447
  11.30478407 -0.72519801 17.55742827
  12.56087784  1.45041445 17.55778429
   7.53652398-11.60330788 17.55780063
   8.79262417 -9.42770170 17.55722974
  10.04874820 -7.25209212 17.55734720
  11.30482226 -5.07645978 17.55785784
  12.56089680 -2.90083418 17.55794865
  13.81698551 -0.72520906 17.55801097
   1.25609141  0.72521887 17.55738404
   2.51217790  2.90083418 17.55614192
   3.76826483  5.07646220 17.55622601
   5.02436015  7.25206862 17.55747753
   6.28044789  9.42769791 17.55794758
   7.53653740 11.60332983 17.55793504
   2.51215447 -1.45042754 17.55750231
   3.76830235  0.72519727 17.55605048
   5.02434840  2.90088946 17.55324694
   6.28045505  5.07645302 17.55581569
   7.53654149  7.25206454 17.55767043
   8.79263162  9.42769274 17.55804322
   3.76827323 -3.62604177 17.55807202
   5.02434341 -1.45035949 17.55716407
   6.28030609  0.72519261 17.55410264
   7.53653116  2.90080743 17.55468301
   8.79262916  5.07643102 17.55682058
  10.04872876  7.25206798 17.55800593
   5.02436208 -5.80167574 17.55797995
   6.28043743 -3.62602847 17.55773430
   7.53652739 -1.45041885 17.55593745
   8.79257626  0.72522900 17.55541919
  10.04872087  2.90082993 17.55653837
  11.30481613  5.07644510 17.55769380
   6.28045290 -7.97729513 17.55782911
   7.53653969 -5.80166573 17.55788866
   8.79262885 -3.62603855 17.55748116
  10.04870360 -1.45040547 17.55690164
  11.30478756  0.72521412 17.55718508
  12.56090360  2.90082810 17.55774568
   7.53654096-10.15291237 17.55762500
   8.79263900 -7.97729575 17.55739213
  10.04872672 -5.80166498 17.55781145
  11.30481084 -3.62604022 17.55782010
  12.56089509 -1.45041539 17.55780750
  13.81699459  0.72521002 17.55793790
   5.17029039 -0.77070929 23.63845705
   5.05119324 -0.48685919 22.13314975
   5.66333756  0.86409594 21.70068333
   6.45749578 -0.84860377 24.00950833
   4.57214562 -1.93374285 23.94645231
   4.57997636  0.20804850 24.34473410
   5.66394170 -1.51792384 21.48229314
   3.72461019 -0.53678044 21.82663022
   6.89525021  0.88029984 21.50483941
   4.88907553  1.83603572 21.60228745
 


--------------------------------------------------------------------------------------------------------


 k-point  1 :   0.0000 0.0000 0.0000  plane waves:  202395
 k-point  2 :   0.3333 0.0000 0.0000  plane waves:  202358
 k-point  3 :   0.0000 0.3333 0.0000  plane waves:  202358
 k-point  4 :   0.3333 0.3333 0.0000  plane waves:  202335
 k-point  5 :  -0.3333 0.3333 0.0000  plane waves:  202358

 maximum and minimum number of plane-waves per node :    202395   202335

 maximum number of plane-waves:    202395
 maximum index in each direction: 
   IXMAX=   29   IYMAX=   28   IZMAX=   67
   IXMIN=  -29   IYMIN=  -29   IZMIN=  -67


 serial   3D FFT for wavefunctions
 parallel 3D FFT for charge:
    minimum data exchange during FFTs selected (reduces bandwidth)


 total amount of memory used by VASP MPI-rank0  1200920. kBytes
=======================================================================

   base      :      30000. kBytes
   nonlr-proj:      37382. kBytes
   fftplans  :      59250. kBytes
   grid      :     716351. kBytes
   one-center:        503. kBytes
   wavefun   :     357434. kBytes
 
     INWAV:  cpu time   41.2407: real time   41.8234
 Broyden mixing: mesh for mixing (old mesh)
   NGX = 57   NGY = 57   NGZ =135
  (NGX  =240   NGY  =240   NGZ  =540)
  gives a total of 438615 points

 charge density for first step will be calculated from the start-wavefunctions


--------------------------------------------------------------------------------------------------------


 Maximum index for non-local projection operator         6369
 Maximum index for augmentation-charges          433 (set IRDMAX)


--------------------------------------------------------------------------------------------------------


 initial charge from wavefunction
 First call to EWALD:  gamma=   0.093
 Maximum number of real-space cells 4x 4x 2
 Maximum number of reciprocal cells 2x 2x 5

    FEWALD:  cpu time    0.0195: real time    0.0304


--------------------------------------- Iteration      1(   1)  ---------------------------------------


    POTLOK:  cpu time   66.4929: real time   66.7334
    SETDIJ:  cpu time    0.6561: real time    0.4532
     EDDAV:  cpu time  190.3687: real time  129.0022
       DOS:  cpu time    0.0995: real time    0.0961
    CHARGE:  cpu time   25.4139: real time   23.9248
    MIXING:  cpu time    0.1730: real time    0.1722
    --------------------------------------------
      LOOP:  cpu time  283.2042: real time  220.3820

 eigenvalue-minimisations  :  5520
 total energy-change (2. order) :-0.7721837E+03  (-0.1080741E+00)
 number of electron     345.8999975 magnetization       0.2986824
 augmentation part       15.9365930 magnetization      -0.4256025

 Broyden mixing:
  rms(total) = 0.51066E+00    rms(broyden)= 0.51000E+00
  rms(prec ) = 0.52660E+00
  weight for this iteration     100.00

 Free energy of the ion-electron system (eV)
  ---------------------------------------------------
  alpha Z        PSCENC =        92.14382556
  Ewald energy   TEWEN  =    110896.06024119
  -Hartree energ DENC   =   -124698.32140478
  -exchange      EXHF   =         0.00000000
  -V(xc)+E(xc)   XCENC  =      1587.42068723
  PAW double counting   =     40430.49941919   -40597.40073446
  entropy T*S    EENTRO =        -0.03628687
  eigenvalues    EBANDS =     -5057.36234314
  atomic energy  EATOM  =     16689.68470767
  Solvation  Ediel_sol  =      -114.87184100
  ---------------------------------------------------
  free energy    TOTEN  =      -772.18372941 eV

  energy without entropy =     -772.14744254  energy(sigma->0) =     -772.16558597


--------------------------------------------------------------------------------------------------------




--------------------------------------- Iteration      1(   2)  ---------------------------------------


    POTLOK:  cpu time   59.1058: real time   59.2562
    SETDIJ:  cpu time    1.0333: real time    0.6449
    EDDIAG:  cpu time   38.6405: real time   28.5986
  RMM-DIIS:  cpu time  216.4567: real time  161.4928
    ORTHCH:  cpu time    1.6841: real time    0.8460
       DOS:  cpu time    0.0047: real time    0.0024
    CHARGE:  cpu time   25.5973: real time   24.0850
    MIXING:  cpu time    0.1608: real time    0.1312
    --------------------------------------------
      LOOP:  cpu time  342.6833: real time  275.0572

 eigenvalue-minimisations  :  5280
 total energy-change (2. order) : 0.1803424E+00  (-0.2039961E+00)
 number of electron     345.8999976 magnetization       0.2920381
 augmentation part       16.0860620 magnetization       0.3554182

 Broyden mixing:
  rms(total) = 0.67767E+00    rms(broyden)= 0.67705E+00
  rms(prec ) = 0.68868E+00
  weight for this iteration     100.00

 eigenvalues of (default mixing * dielectric matrix)
  average eigenvalue GAMMA=   0.4028
  0.4028

 Free energy of the ion-electron system (eV)
  ---------------------------------------------------
  alpha Z        PSCENC =        92.14382556
  Ewald energy   TEWEN  =    110896.06024119
  -Hartree energ DENC   =   -124661.15002407
  -exchange      EXHF   =         0.00000000
  -V(xc)+E(xc)   XCENC  =      1586.17714295
  PAW double counting   =     40397.79664835   -40564.67458654
  entropy T*S    EENTRO =        -0.03589904
  eigenvalues    EBANDS =     -5076.82629561
  atomic energy  EATOM  =     16689.68470767
  Solvation  Ediel_sol  =      -131.17914748
  ---------------------------------------------------
  free energy    TOTEN  =      -772.00338702 eV

  energy without entropy =     -771.96748798  energy(sigma->0) =     -771.98543750


--------------------------------------------------------------------------------------------------------




--------------------------------------- Iteration      1(   3)  ---------------------------------------


    POTLOK:  cpu time   59.6362: real time   59.7684
    SETDIJ:  cpu time    0.6621: real time    0.4589
    EDDIAG:  cpu time   38.5766: real time   28.5506
  RMM-DIIS:  cpu time  216.7910: real time  161.9860
    ORTHCH:  cpu time    1.6597: real time    0.8340
       DOS:  cpu time    0.0033: real time    0.0017
    CHARGE:  cpu time   25.3077: real time   23.7756
    MIXING:  cpu time    0.1689: real time    0.1326
    --------------------------------------------
      LOOP:  cpu time  342.8055: real time  275.5076

 eigenvalue-minimisations  :  5280
 total energy-change (2. order) :-0.2208657E+00  (-0.6173411E-01)
 number of electron     345.8999976 magnetization       0.2855810
 augmentation part       16.0793070 magnetization       0.3258366

 Broyden mixing:
  rms(total) = 0.40713E+00    rms(broyden)= 0.40705E+00
  rms(prec ) = 0.42013E+00
  weight for this iteration     100.00

 eigenvalues of (default mixing * dielectric matrix)
  average eigenvalue GAMMA=   0.4834
  0.4834  0.4834

 Free energy of the ion-electron system (eV)
  ---------------------------------------------------
  alpha Z        PSCENC =        92.14382556
  Ewald energy   TEWEN  =    110896.06024119
  -Hartree energ DENC   =   -124647.90341277
  -exchange      EXHF   =         0.00000000
  -V(xc)+E(xc)   XCENC  =      1586.57639138
  PAW double counting   =     40390.24285518   -40557.00989436
  entropy T*S    EENTRO =        -0.03587480
  eigenvalues    EBANDS =     -5079.20508747
  atomic energy  EATOM  =     16689.68470767
  Solvation  Ediel_sol  =      -142.77800424
  ---------------------------------------------------
  free energy    TOTEN  =      -772.22425267 eV

  energy without entropy =     -772.18837787  energy(sigma->0) =     -772.20631527


--------------------------------------------------------------------------------------------------------




--------------------------------------- Iteration      1(   4)  ---------------------------------------


    POTLOK:  cpu time   57.9005: real time   58.0269
    SETDIJ:  cpu time    0.6600: real time    0.4577
    EDDIAG:  cpu time   38.6232: real time   28.5970
  RMM-DIIS:  cpu time  216.5300: real time  161.7946
    ORTHCH:  cpu time    1.6729: real time    0.8400
       DOS:  cpu time    0.0029: real time    0.0014
    CHARGE:  cpu time   25.3216: real time   23.7962
    MIXING:  cpu time    0.1700: real time    0.1338
    --------------------------------------------
      LOOP:  cpu time  340.8810: real time  273.6476

 eigenvalue-minimisations  :  5280
 total energy-change (2. order) : 0.1187915E+00  (-0.1673974E-01)
 number of electron     345.8999976 magnetization       0.2784608
 augmentation part       16.0649880 magnetization       0.2559452

 Broyden mixing:
  rms(total) = 0.25967E+00    rms(broyden)= 0.25966E+00
  rms(prec ) = 0.27049E+00
  weight for this iteration     100.00

 eigenvalues of (default mixing * dielectric matrix)
  average eigenvalue GAMMA=   0.6840
  0.7587  0.7587  0.5347

 Free energy of the ion-electron system (eV)
  ---------------------------------------------------
  alpha Z        PSCENC =        92.14382556
  Ewald energy   TEWEN  =    110896.06024119
  -Hartree energ DENC   =   -124635.16996664
  -exchange      EXHF   =         0.00000000
  -V(xc)+E(xc)   XCENC  =      1586.56448005
  PAW double counting   =     40381.29730227   -40548.07038185
  entropy T*S    EENTRO =        -0.04085866
  eigenvalues    EBANDS =     -5080.76566179
  atomic energy  EATOM  =     16689.68470767
  Solvation  Ediel_sol  =      -153.80914899
  ---------------------------------------------------
  free energy    TOTEN  =      -772.10546118 eV

  energy without entropy =     -772.06460252  energy(sigma->0) =     -772.08503185


--------------------------------------------------------------------------------------------------------




--------------------------------------- Iteration      1(   5)  ---------------------------------------


    POTLOK:  cpu time   57.7657: real time   57.8974
    SETDIJ:  cpu time    0.6593: real time    0.4571
    EDDIAG:  cpu time   38.6356: real time   28.6032
  RMM-DIIS:  cpu time  216.7731: real time  161.9241
    ORTHCH:  cpu time    1.6643: real time    0.8357
       DOS:  cpu time    0.0029: real time    0.0014
    CHARGE:  cpu time   25.3158: real time   23.7893
    MIXING:  cpu time    0.1703: real time    0.1339
    --------------------------------------------
      LOOP:  cpu time  340.9870: real time  273.6421

 eigenvalue-minimisations  :  5280
 total energy-change (2. order) :-0.1764534E-01  (-0.9787368E-02)
 number of electron     345.8999975 magnetization       0.2895055
 augmentation part       15.9758998 magnetization      -0.4178723

 Broyden mixing:
  rms(total) = 0.47493E+00    rms(broyden)= 0.47375E+00
  rms(prec ) = 0.48919E+00
  weight for this iteration     100.00

 eigenvalues of (default mixing * dielectric matrix)
  average eigenvalue GAMMA=   0.7908
  1.7061  0.5448  0.5448  0.3676

 Free energy of the ion-electron system (eV)
  ---------------------------------------------------
  alpha Z        PSCENC =        92.14382556
  Ewald energy   TEWEN  =    110896.06024119
  -Hartree energ DENC   =   -124614.08224468
  -exchange      EXHF   =         0.00000000
  -V(xc)+E(xc)   XCENC  =      1586.50219233
  PAW double counting   =     40368.77445600   -40535.54524277
  entropy T*S    EENTRO =        -0.03684145
  eigenvalues    EBANDS =     -5083.94413670
  atomic energy  EATOM  =     16689.68470767
  Solvation  Ediel_sol  =      -171.68006367
  ---------------------------------------------------
  free energy    TOTEN  =      -772.12310652 eV

  energy without entropy =     -772.08626507  energy(sigma->0) =     -772.10468579


--------------------------------------------------------------------------------------------------------




--------------------------------------- Iteration      1(   6)  ---------------------------------------


    POTLOK:  cpu time   58.9739: real time   59.1034
    SETDIJ:  cpu time    0.8996: real time    0.5778
    EDDIAG:  cpu time   38.6548: real time   28.6248
  RMM-DIIS:  cpu time  217.1652: real time  162.2260
    ORTHCH:  cpu time    1.6663: real time    0.8367
       DOS:  cpu time    0.0032: real time    0.0016
    CHARGE:  cpu time   25.3716: real time   23.8429
    MIXING:  cpu time    0.1983: real time    0.1635
    --------------------------------------------
      LOOP:  cpu time  342.9330: real time  275.3766

 eigenvalue-minimisations  :  5280
 total energy-change (2. order) :-0.4475996E-01  (-0.9798764E-02)
 number of electron     345.8999975 magnetization       0.2985498
 augmentation part       15.9972837 magnetization      -0.2416010

 Broyden mixing:
  rms(total) = 0.30091E+00    rms(broyden)= 0.30091E+00
  rms(prec ) = 0.31138E+00
  weight for this iteration     100.00

 eigenvalues of (default mixing * dielectric matrix)
  average eigenvalue GAMMA=   0.7677
  1.7806  0.5460  0.5460  0.5486  0.4171

 Free energy of the ion-electron system (eV)
  ---------------------------------------------------
  alpha Z        PSCENC =        92.14382556
  Ewald energy   TEWEN  =    110896.06024119
  -Hartree energ DENC   =   -124575.95919922
  -exchange      EXHF   =         0.00000000
  -V(xc)+E(xc)   XCENC  =      1585.91010547
  PAW double counting   =     40348.02885656   -40514.77612068
  entropy T*S    EENTRO =        -0.04630384
  eigenvalues    EBANDS =     -5090.02049783
  atomic energy  EATOM  =     16689.68470767
  Solvation  Ediel_sol  =      -203.19348136
  ---------------------------------------------------
  free energy    TOTEN  =      -772.16786648 eV

  energy without entropy =     -772.12156264  energy(sigma->0) =     -772.14471456


--------------------------------------------------------------------------------------------------------




--------------------------------------- Iteration      1(   7)  ---------------------------------------


    POTLOK:  cpu time   55.8756: real time   55.9941
    SETDIJ:  cpu time    0.6553: real time    0.4530
    EDDIAG:  cpu time   38.6552: real time   28.6282
  RMM-DIIS:  cpu time  216.8199: real time  162.0046
    ORTHCH:  cpu time    1.6650: real time    0.8360
       DOS:  cpu time    0.0030: real time    0.0015
    CHARGE:  cpu time   25.2935: real time   23.7712
    MIXING:  cpu time    0.1734: real time    0.1383
    --------------------------------------------
      LOOP:  cpu time  339.1410: real time  271.8269

 eigenvalue-minimisations  :  5280
 total energy-change (2. order) : 0.4022592E-01  (-0.3951559E-02)
 number of electron     345.8999976 magnetization       0.2993782
 augmentation part       16.0731030 magnetization       0.3554610

 Broyden mixing:
  rms(total) = 0.29530E+00    rms(broyden)= 0.29394E+00
  rms(prec ) = 0.30521E+00
  weight for this iteration     100.00

 eigenvalues of (default mixing * dielectric matrix)
  average eigenvalue GAMMA=   0.8618
  2.0903  0.7961  0.7961  0.5231  0.5231  0.4422

 Free energy of the ion-electron system (eV)
  ---------------------------------------------------
  alpha Z        PSCENC =        92.14382556
  Ewald energy   TEWEN  =    110896.06024119
  -Hartree energ DENC   =   -124557.02533175
  -exchange      EXHF   =         0.00000000
  -V(xc)+E(xc)   XCENC  =      1585.88432887
  PAW double counting   =     40346.32651908   -40513.06702692
  entropy T*S    EENTRO =        -0.03650576
  eigenvalues    EBANDS =     -5092.26066390
  atomic energy  EATOM  =     16689.68470767
  Solvation  Ediel_sol  =      -219.83773461
  ---------------------------------------------------
  free energy    TOTEN  =      -772.12764056 eV

  energy without entropy =     -772.09113480  energy(sigma->0) =     -772.10938768


--------------------------------------------------------------------------------------------------------




--------------------------------------- Iteration      1(   8)  ---------------------------------------


    POTLOK:  cpu time   58.0611: real time   58.1897
    SETDIJ:  cpu time    1.1426: real time    0.7385
    EDDIAG:  cpu time   38.6554: real time   28.6282
  RMM-DIIS:  cpu time  217.0168: real time  162.1884
    ORTHCH:  cpu time    1.6903: real time    0.8489
       DOS:  cpu time    0.0032: real time    0.0016
    CHARGE:  cpu time   25.3200: real time   23.7910
    MIXING:  cpu time    0.1732: real time    0.1392
    --------------------------------------------
      LOOP:  cpu time  342.0626: real time  274.5254

 eigenvalue-minimisations  :  5280
 total energy-change (2. order) : 0.9670054E-02  (-0.8790100E-02)
 number of electron     345.8999976 magnetization       0.2977348
 augmentation part       16.0770793 magnetization       0.3683219

 Broyden mixing:
  rms(total) = 0.30680E+00    rms(broyden)= 0.30675E+00
  rms(prec ) = 0.31752E+00
  weight for this iteration     100.00

 eigenvalues of (default mixing * dielectric matrix)
  average eigenvalue GAMMA=   0.8322
  2.1270  0.9078  0.5107  0.5107  0.6752  0.6752  0.4186

 Free energy of the ion-electron system (eV)
  ---------------------------------------------------
  alpha Z        PSCENC =        92.14382556
  Ewald energy   TEWEN  =    110896.06024119
  -Hartree energ DENC   =   -124528.28707901
  -exchange      EXHF   =         0.00000000
  -V(xc)+E(xc)   XCENC  =      1586.02843461
  PAW double counting   =     40342.35710346   -40509.09786169
  entropy T*S    EENTRO =        -0.03647440
  eigenvalues    EBANDS =     -5095.48685279
  atomic energy  EATOM  =     16689.68470767
  Solvation  Ediel_sol  =      -245.48401511
  ---------------------------------------------------
  free energy    TOTEN  =      -772.11797051 eV

  energy without entropy =     -772.08149610  energy(sigma->0) =     -772.09973331


--------------------------------------------------------------------------------------------------------




--------------------------------------- Iteration      1(   9)  ---------------------------------------


    POTLOK:  cpu time   55.5831: real time   55.7064
    SETDIJ:  cpu time    0.6598: real time    0.4575
    EDDIAG:  cpu time   38.5997: real time   28.5639
  RMM-DIIS:  cpu time  217.2146: real time  162.2549
    ORTHCH:  cpu time    1.6582: real time    0.8326
       DOS:  cpu time    0.0029: real time    0.0014
    CHARGE:  cpu time   25.3106: real time   23.7813
    MIXING:  cpu time    0.1789: real time    0.1423
    --------------------------------------------
      LOOP:  cpu time  339.2078: real time  271.7405

 eigenvalue-minimisations  :  5280
 total energy-change (2. order) : 0.2086153E-01  (-0.8436689E-03)
 number of electron     345.8999976 magnetization       0.2900537
 augmentation part       16.0680631 magnetization       0.3132286

 Broyden mixing:
  rms(total) = 0.22656E+00    rms(broyden)= 0.22656E+00
  rms(prec ) = 0.23507E+00
  weight for this iteration     100.00

 eigenvalues of (default mixing * dielectric matrix)
  average eigenvalue GAMMA=   0.8806
  2.0451  1.1497  0.8546  0.8546  0.5340  0.5340  0.6375  0.4354

 Free energy of the ion-electron system (eV)
  ---------------------------------------------------
  alpha Z        PSCENC =        92.14382556
  Ewald energy   TEWEN  =    110896.06024119
  -Hartree energ DENC   =   -124512.84104894
  -exchange      EXHF   =         0.00000000
  -V(xc)+E(xc)   XCENC  =      1586.01052742
  PAW double counting   =     40341.93929638   -40508.68585936
  entropy T*S    EENTRO =        -0.04217709
  eigenvalues    EBANDS =     -5096.67537172
  atomic energy  EATOM  =     16689.68470767
  Solvation  Ediel_sol  =      -259.69125008
  ---------------------------------------------------
  free energy    TOTEN  =      -772.09710898 eV

  energy without entropy =     -772.05493189  energy(sigma->0) =     -772.07602043


--------------------------------------------------------------------------------------------------------




--------------------------------------- Iteration      1(  10)  ---------------------------------------


    POTLOK:  cpu time   56.5678: real time   56.6945
    SETDIJ:  cpu time    0.6522: real time    0.4499
    EDDIAG:  cpu time   38.5786: real time   28.5463
  RMM-DIIS:  cpu time  216.8496: real time  161.9771
    ORTHCH:  cpu time    1.6669: real time    0.8370
       DOS:  cpu time    0.0028: real time    0.0014
    CHARGE:  cpu time   25.3303: real time   23.8026
    MIXING:  cpu time    0.1831: real time    0.1453
    --------------------------------------------
      LOOP:  cpu time  339.8315: real time  272.4541

 eigenvalue-minimisations  :  5280
 total energy-change (2. order) :-0.8009382E-02  (-0.2946515E-02)
 number of electron     345.8999975 magnetization       0.2885752
 augmentation part       15.9939505 magnetization      -0.1878212

 Broyden mixing:
  rms(total) = 0.36870E+00    rms(broyden)= 0.36759E+00
  rms(prec ) = 0.37958E+00
  weight for this iteration     100.00

 eigenvalues of (default mixing * dielectric matrix)
  average eigenvalue GAMMA=   0.8201
  2.0606  1.1012  0.8499  0.8499  0.5332  0.5332  0.5833  0.4348  0.4348

 Free energy of the ion-electron system (eV)
  ---------------------------------------------------
  alpha Z        PSCENC =        92.14382556
  Ewald energy   TEWEN  =    110896.06024119
  -Hartree energ DENC   =   -124469.22954232
  -exchange      EXHF   =         0.00000000
  -V(xc)+E(xc)   XCENC  =      1585.92048153
  PAW double counting   =     40342.13296304   -40508.89766401
  entropy T*S    EENTRO =        -0.04258923
  eigenvalues    EBANDS =     -5099.86242487
  atomic energy  EATOM  =     16689.68470767
  Solvation  Ediel_sol  =      -300.01511692
  ---------------------------------------------------
  free energy    TOTEN  =      -772.10511836 eV

  energy without entropy =     -772.06252914  energy(sigma->0) =     -772.08382375


--------------------------------------------------------------------------------------------------------




--------------------------------------- Iteration      1(  11)  ---------------------------------------


    POTLOK:  cpu time   57.6582: real time   57.7858
    SETDIJ:  cpu time    0.6602: real time    0.4579
    EDDIAG:  cpu time   38.6398: real time   28.6068
  RMM-DIIS:  cpu time  217.2099: real time  162.2253
    ORTHCH:  cpu time    1.6635: real time    0.8353
       DOS:  cpu time    0.0079: real time    0.0040
    CHARGE:  cpu time   25.3201: real time   23.8038
    MIXING:  cpu time    0.2110: real time    0.1743
    --------------------------------------------
      LOOP:  cpu time  341.3707: real time  273.8932

 eigenvalue-minimisations  :  5280
 total energy-change (2. order) :-0.3256043E-01  (-0.7498729E-02)
 number of electron     345.8999975 magnetization       0.2867558
 augmentation part       16.0064662 magnetization       0.0016587

 Broyden mixing:
  rms(total) = 0.26832E+00    rms(broyden)= 0.26831E+00
  rms(prec ) = 0.27693E+00
  weight for this iteration     100.00

 eigenvalues of (default mixing * dielectric matrix)
  average eigenvalue GAMMA=   0.7687
  2.0600  1.0811  0.8804  0.8804  0.5334  0.5334  0.6268  0.4353  0.4353  0.2213

 Free energy of the ion-electron system (eV)
  ---------------------------------------------------
  alpha Z        PSCENC =        92.14382556
  Ewald energy   TEWEN  =    110896.06024119
  -Hartree energ DENC   =   -124447.51596955
  -exchange      EXHF   =         0.00000000
  -V(xc)+E(xc)   XCENC  =      1585.56155217
  PAW double counting   =     40344.78969137   -40511.55734290
  entropy T*S    EENTRO =        -0.04634454
  eigenvalues    EBANDS =     -5100.95823347
  atomic energy  EATOM  =     16689.68470767
  Solvation  Ediel_sol  =      -320.29980630
  ---------------------------------------------------
  free energy    TOTEN  =      -772.13767879 eV

  energy without entropy =     -772.09133426  energy(sigma->0) =     -772.11450653


--------------------------------------------------------------------------------------------------------




--------------------------------------- Iteration      1(  12)  ---------------------------------------


    POTLOK:  cpu time   53.3616: real time   53.4783
    SETDIJ:  cpu time    0.6592: real time    0.4569
    EDDIAG:  cpu time   38.6452: real time   28.6053
  RMM-DIIS:  cpu time  217.0952: real time  162.1257
    ORTHCH:  cpu time    1.6880: real time    0.8475
       DOS:  cpu time    0.0029: real time    0.0014
    CHARGE:  cpu time   25.3453: real time   23.8136
    MIXING:  cpu time    0.1797: real time    0.1481
    --------------------------------------------
      LOOP:  cpu time  336.9771: real time  269.4768

 eigenvalue-minimisations  :  5279
 total energy-change (2. order) : 0.2855868E-01  (-0.9285254E-03)
 number of electron     345.8999975 magnetization       0.2885922
 augmentation part       16.0398285 magnetization       0.3219188

 Broyden mixing:
  rms(total) = 0.26427E-01    rms(broyden)= 0.23371E-01
  rms(prec ) = 0.25052E-01
  weight for this iteration     100.00
  WARNING: grid for Broyden might be to small

 eigenvalues of (default mixing * dielectric matrix)
  average eigenvalue GAMMA=   0.9059
  2.1708  1.1161  1.6364  0.8770  0.8770  0.5370  0.5370  0.6798  0.4261  0.5536
  0.5536

 Free energy of the ion-electron system (eV)
  ---------------------------------------------------
  alpha Z        PSCENC =        92.14382556
  Ewald energy   TEWEN  =    110896.06024119
  -Hartree energ DENC   =   -124441.31982631
  -exchange      EXHF   =         0.00000000
  -V(xc)+E(xc)   XCENC  =      1585.57962261
  PAW double counting   =     40346.46876405   -40513.23595048
  entropy T*S    EENTRO =        -0.04868906
  eigenvalues    EBANDS =     -5101.21470426
  atomic energy  EATOM  =     16689.68470767
  Solvation  Ediel_sol  =      -326.22711108
  ---------------------------------------------------
  free energy    TOTEN  =      -772.10912011 eV

  energy without entropy =     -772.06043105  energy(sigma->0) =     -772.08477558


--------------------------------------------------------------------------------------------------------




--------------------------------------- Iteration      1(  13)  ---------------------------------------


    POTLOK:  cpu time   55.8460: real time   55.9680
    SETDIJ:  cpu time    0.6595: real time    0.4573
    EDDIAG:  cpu time   38.6748: real time   28.6195
  RMM-DIIS:  cpu time  216.4207: real time  161.5242
    ORTHCH:  cpu time    1.6619: real time    0.8349
       DOS:  cpu time    0.0028: real time    0.0014
    CHARGE:  cpu time   25.3354: real time   23.8080
    MIXING:  cpu time    0.1857: real time    0.1532
    --------------------------------------------
      LOOP:  cpu time  338.7868: real time  271.3665

 eigenvalue-minimisations  :  5280
 total energy-change (2. order) : 0.6366910E-02  (-0.2488852E-02)
 number of electron     345.8999976 magnetization       0.2913235
 augmentation part       16.0562269 magnetization       0.4213737

 Broyden mixing:
  rms(total) = 0.11667E+00    rms(broyden)= 0.11635E+00
  rms(prec ) = 0.12109E+00
  weight for this iteration     100.00

 eigenvalues of (default mixing * dielectric matrix)
  average eigenvalue GAMMA=   0.8788
  2.1035  1.8594  1.1782  0.9094  0.9094  0.5356  0.5356  0.6974  0.6974  0.4395
  0.5111  0.1684

 Free energy of the ion-electron system (eV)
  ---------------------------------------------------
  alpha Z        PSCENC =        92.14382556
  Ewald energy   TEWEN  =    110896.06024119
  -Hartree energ DENC   =   -124441.76659918
  -exchange      EXHF   =         0.00000000
  -V(xc)+E(xc)   XCENC  =      1585.72073350
  PAW double counting   =     40346.27646025   -40513.04328939
  entropy T*S    EENTRO =        -0.04568962
  eigenvalues    EBANDS =     -5101.36190546
  atomic energy  EATOM  =     16689.68470767
  Solvation  Ediel_sol  =      -325.77123772
  ---------------------------------------------------
  free energy    TOTEN  =      -772.10275320 eV

  energy without entropy =     -772.05706358  energy(sigma->0) =     -772.07990839


--------------------------------------------------------------------------------------------------------




--------------------------------------- Iteration      1(  14)  ---------------------------------------


    POTLOK:  cpu time   55.6111: real time   55.7338
    SETDIJ:  cpu time    0.9843: real time    0.6213
    EDDIAG:  cpu time   38.6230: real time   28.5922
  RMM-DIIS:  cpu time  217.1304: real time  162.1319
    ORTHCH:  cpu time    1.6682: real time    0.8377
       DOS:  cpu time    0.0028: real time    0.0014
    CHARGE:  cpu time   25.3698: real time   23.8312
    MIXING:  cpu time    0.1884: real time    0.1555
    --------------------------------------------
      LOOP:  cpu time  339.5781: real time  271.9051

 eigenvalue-minimisations  :  5280
 total energy-change (2. order) : 0.5276923E-02  (-0.1343344E-02)
 number of electron     345.8999975 magnetization       0.2978710
 augmentation part       16.0401013 magnetization       0.2465109

 Broyden mixing:
  rms(total) = 0.24120E-01    rms(broyden)= 0.23656E-01
  rms(prec ) = 0.25042E-01
  weight for this iteration     100.00

 eigenvalues of (default mixing * dielectric matrix)
  average eigenvalue GAMMA=   0.9053
  2.2463  1.2411  1.8783  1.0190  1.0190  0.5326  0.5326  0.7065  0.7065  0.5971
  0.4677  0.4677  0.3540

 Free energy of the ion-electron system (eV)
  ---------------------------------------------------
  alpha Z        PSCENC =        92.14382556
  Ewald energy   TEWEN  =    110896.06024119
  -Hartree energ DENC   =   -124432.22720174
  -exchange      EXHF   =         0.00000000
  -V(xc)+E(xc)   XCENC  =      1585.75613054
  PAW double counting   =     40346.22664844   -40512.99936158
  entropy T*S    EENTRO =        -0.04963060
  eigenvalues    EBANDS =     -5102.05057367
  atomic energy  EATOM  =     16689.68470767
  Solvation  Ediel_sol  =      -334.64226209
  ---------------------------------------------------
  free energy    TOTEN  =      -772.09747628 eV

  energy without entropy =     -772.04784568  energy(sigma->0) =     -772.07266098


--------------------------------------------------------------------------------------------------------




--------------------------------------- Iteration      1(  15)  ---------------------------------------


    POTLOK:  cpu time   55.2472: real time   55.3698
    SETDIJ:  cpu time    0.6622: real time    0.4597
    EDDIAG:  cpu time   38.6177: real time   28.5784
  RMM-DIIS:  cpu time  216.8461: real time  162.0848
    ORTHCH:  cpu time    1.6657: real time    0.8373
       DOS:  cpu time    0.0034: real time    0.0017
    CHARGE:  cpu time   25.3463: real time   23.8210
    MIXING:  cpu time    0.1919: real time    0.1591
    --------------------------------------------
      LOOP:  cpu time  338.5804: real time  271.3117

 eigenvalue-minimisations  :  5280
 total energy-change (2. order) :-0.4917987E-02  (-0.7740082E-03)
 number of electron     345.8999975 magnetization       0.3030348
 augmentation part       16.0177355 magnetization      -0.0153990

 Broyden mixing:
  rms(total) = 0.20334E+00    rms(broyden)= 0.20311E+00
  rms(prec ) = 0.20921E+00
  weight for this iteration     100.00

 eigenvalues of (default mixing * dielectric matrix)
  average eigenvalue GAMMA=   0.9722
  2.4301  2.1819  1.2869  1.2925  1.2925  0.5331  0.5331  0.7459  0.7459  0.6889
  0.6889  0.4313  0.4313  0.3281

 Free energy of the ion-electron system (eV)
  ---------------------------------------------------
  alpha Z        PSCENC =        92.14382556
  Ewald energy   TEWEN  =    110896.06024119
  -Hartree energ DENC   =   -124413.87296369
  -exchange      EXHF   =         0.00000000
  -V(xc)+E(xc)   XCENC  =      1585.67267502
  PAW double counting   =     40346.58069979   -40513.36336549
  entropy T*S    EENTRO =        -0.04947996
  eigenvalues    EBANDS =     -5102.92661856
  atomic energy  EATOM  =     16689.68470767
  Solvation  Ediel_sol  =      -352.03211580
  ---------------------------------------------------
  free energy    TOTEN  =      -772.10239427 eV

  energy without entropy =     -772.05291431  energy(sigma->0) =     -772.07765429


[...]
   -.323E+02 0.100E+02 0.917E+02   0.319E+02 -.973E+01 -.906E+02   -.146E-02 0.899E-03 0.320E-02   0.182E-02 -.110E-02 -.374E-02
   -.202E+02 -.317E+01 0.798E+02   0.197E+02 0.320E+01 -.788E+02   0.101E-02 -.906E-04 0.552E-03   0.154E-02 -.980E-04 -.322E-02
   -.307E+01 -.436E+01 0.706E+02   0.293E+01 0.427E+01 -.698E+02   0.769E-03 -.414E-04 -.323E-02   0.415E-03 0.300E-03 -.255E-02
   0.190E+02 -.104E+02 0.784E+02   -.188E+02 0.103E+02 -.775E+02   -.165E-03 -.697E-03 -.157E-02   -.112E-02 0.392E-03 -.296E-02
   0.991E+01 -.937E+01 0.767E+02   -.964E+01 0.916E+01 -.758E+02   -.143E-02 -.275E-03 0.569E-03   -.961E-03 0.790E-03 -.294E-02
   -.469E+01 0.416E-01 0.737E+02   0.474E+01 -.158E+00 -.729E+02   -.629E-03 0.516E-03 -.341E-02   -.147E-03 0.393E-03 -.259E-02
   -.112E+02 0.607E+01 0.728E+02   0.110E+02 -.602E+01 -.720E+02   0.711E-03 0.308E-03 -.320E-02   0.460E-03 -.219E-03 -.251E-02
   -.306E+01 0.390E+01 0.733E+02   0.293E+01 -.380E+01 -.725E+02   0.132E-02 -.139E-03 -.254E-02   0.413E-03 -.330E-03 -.254E-02
   0.125E+02 -.323E+01 0.759E+02   -.124E+02 0.326E+01 -.751E+02   0.101E-02 -.133E-03 -.296E-02   -.332E-03 -.918E-04 -.264E-02
   0.636E+00 0.224E+02 -.419E+03   -.128E+01 -.201E+02 0.409E+03   0.844E+00 -.165E+01 0.999E+01   -.157E-02 -.525E-02 0.430E-02
   -.713E+01 -.355E+02 -.318E+03   0.129E+02 0.455E+02 0.324E+03   -.528E+01 -.898E+01 -.425E+01   -.497E-02 -.117E-01 0.186E-02
   -.328E+02 -.939E+02 -.306E+03   0.323E+02 0.929E+02 0.309E+03   0.115E+01 0.235E+01 -.337E+00   -.675E-02 -.160E-01 0.285E-02
   -.537E+03 0.837E+02 -.914E+03   0.593E+03 -.861E+02 0.931E+03   -.556E+02 0.344E+01 -.164E+02   0.178E-02 -.910E-02 0.813E-02
   0.245E+03 0.526E+03 -.875E+03   -.270E+03 -.575E+03 0.891E+03   0.255E+02 0.499E+02 -.139E+02   -.314E-02 -.630E-02 0.382E-02
   0.248E+03 -.359E+03 -.104E+04   -.273E+03 0.402E+03 0.107E+04   0.254E+02 -.418E+02 -.309E+02   -.308E-02 -.408E-02 0.100E-01
   -.213E+03 0.432E+03 -.311E+03   0.239E+03 -.471E+03 0.288E+03   -.244E+02 0.404E+02 0.269E+02   -.379E-02 -.162E-01 -.403E-02
   0.562E+03 0.400E+02 -.438E+03   -.615E+03 -.395E+02 0.429E+03   0.529E+02 0.135E+01 0.134E+02   -.108E-01 -.140E-01 -.166E-02
   -.448E+03 -.156E+03 -.427E+03   0.501E+03 0.159E+03 0.422E+03   -.507E+02 -.108E+01 0.859E+01   0.160E-01 -.369E-02 -.207E-02
   0.186E+03 -.451E+03 -.463E+03   -.218E+03 0.493E+03 0.462E+03   0.318E+02 -.403E+02 0.433E+01   -.125E-01 0.880E-02 -.368E-02
 -----------------------------------------------------------------------------------------------
   -.152E+01 -.356E+01 0.285E+01   0.341E-12 -.227E-12 0.114E-12   0.156E+01 0.362E+01 -.264E+01   -.287E-01 -.777E-01 -.207E+00
 
 
 POSITION                                       TOTAL-FORCE (eV/Angst)
 -----------------------------------------------------------------------------------
      1.25600     -0.72515     17.55792         0.000014      0.000126      0.000538
      2.51203      1.45056     17.55734        -0.000019      0.000016      0.001635
      3.76823      3.62612     17.55614        -0.000135      0.000113      0.001065
      5.02436      5.80168     17.55670        -0.000124      0.000014      0.000285
      6.28044      7.97730     17.55777        -0.000083      0.000199     -0.000132
      7.53653     10.15294     17.55816        -0.000126      0.000056      0.000115
      2.51213     -2.90087     17.55824         0.000106      0.000109      0.000641
      3.76810     -0.72524     17.55717        -0.000155      0.000076      0.002375
      5.02434      1.45067     17.55539        -0.000103      0.000416      0.002588
      6.28047      3.62610     17.55580         0.000235      0.000297      0.002052
      7.53653      5.80167     17.55692        -0.000081     -0.000053      0.000112
      8.79262      7.97730     17.55801        -0.000083      0.000139     -0.000061
      3.76826     -5.07648     17.55830         0.000149      0.000363      0.000332
      5.02435     -2.90096     17.55851        -0.000143     -0.000053      0.001294
      6.28061     -0.72523     17.55659         0.000185     -0.000036      0.002800
      7.53663      1.45053     17.55649         0.000222      0.000288      0.002346
      8.79265      3.62606     17.55655        -0.000110     -0.000002      0.000927
     10.04871      5.80167     17.55756        -0.000053     -0.000025     -0.000111
      5.02435     -7.25207     17.55802         0.000065      0.000025      0.000045
      6.28045     -5.07648     17.55824        -0.000125      0.000079      0.000515
      7.53657     -2.90085     17.55772        -0.000034      0.000126      0.001261
      8.79267     -0.72513     17.55697        -0.000118     -0.000029      0.001725
     10.04871      1.45047     17.55686        -0.000024      0.000061      0.000858
     11.30480      3.62606     17.55743         0.000025      0.000130     -0.000039
      6.28044     -9.42769     17.55787         0.000023      0.000181     -0.000089
      7.53654     -7.25205     17.55785        -0.000171      0.000027     -0.000008
      8.79264     -5.07642     17.55786        -0.000114      0.000281     -0.000045
     10.04871     -2.90079     17.55758        -0.000090      0.000088      0.000193
     11.30479     -0.72517     17.55745        -0.000074      0.000121      0.000164
     12.56088      1.45045     17.55767        -0.000246      0.000085     -0.000138
      7.53650    -11.60327     17.55783         0.000260      0.000083      0.000071
      8.79260     -9.42766     17.55734         0.000007      0.000040      0.000328
     10.04873     -7.25205     17.55725         0.000122     -0.000221      0.000018
     11.30481     -5.07643     17.55773         0.000057      0.000121     -0.000256
     12.56089     -2.90080     17.55798         0.000068      0.000023     -0.000031
     13.81698     -0.72517     17.55801         0.000029     -0.000059     -0.000004
      1.25607      0.72525     17.55761         0.000279      0.000149      0.000508
      2.51217      2.90087     17.55663         0.000138     -0.000132      0.001097
      3.76826      5.07650     17.55636         0.000087     -0.000064      0.000602
      5.02435      7.25210     17.55736        -0.000013      0.000173     -0.000140
      6.28044      9.42773     17.55803        -0.000095      0.000096     -0.000006
      7.53652     11.60336     17.55803        -0.000083      0.000067      0.000203
      2.51214     -1.45040     17.55780         0.000077      0.000228      0.001111
      3.76832      0.72523     17.55715        -0.000305      0.000086      0.002783
      5.02435      2.90089     17.55472        -0.000043      0.000334      0.002313
      6.28045      5.07649     17.55606        -0.000020     -0.000251      0.000729
      7.53654      7.25210     17.55754        -0.000127      0.000136     -0.000110
      8.79262      9.42772     17.55814        -0.000058      0.000078      0.000177
      3.76826     -3.62602     17.55843         0.000083      0.000096      0.000817
      5.02435     -1.45032     17.55836        -0.000170      0.000047      0.002360
      6.28030      0.72522     17.55647         0.000098     -0.000061      0.002770
      7.53652      2.90083     17.55578        -0.000003      0.000038      0.002126
      8.79263      5.07647     17.55674        -0.000204     -0.000125      0.000190
     10.04872      7.25209     17.55794        -0.000003      0.000233     -0.000041
      5.02435     -5.80165     17.55814        -0.000060     -0.000019      0.000397
      6.28043     -3.62601     17.55826         0.000037      0.000337      0.001119
      7.53652     -1.45038     17.55686         0.000155      0.000051      0.002229
      8.79256      0.72526     17.55634        -0.000060      0.000070      0.001976
     10.04873      2.90087     17.55664        -0.000330      0.000050      0.000541
     11.30481      5.07648     17.55764         0.000185      0.000144     -0.000110
      6.28045     -7.97726     17.55791        -0.000134      0.000099     -0.000008
      7.53654     -5.80164     17.55791        -0.000049     -0.000064      0.000168
      8.79263     -3.62602     17.55758        -0.000179      0.000280      0.000341
     10.04871     -1.45038     17.55705        -0.000280      0.000151      0.000612
     11.30479      0.72524     17.55714        -0.000098      0.000184      0.000134
     12.56090      2.90086     17.55766         0.000080      0.000120     -0.000179
      7.53653    -10.15288     17.55762        -0.000090      0.000190      0.000129
      8.79263     -7.97726     17.55733        -0.000086      0.000070      0.000034
     10.04872     -5.80163     17.55762         0.000062      0.000050     -0.000277
     11.30481     -3.62601     17.55778         0.000100      0.000078     -0.000113
     12.56089     -1.45038     17.55781         0.000095     -0.000021      0.000005
     13.81699      0.72524     17.55784        -0.000105      0.000056     -0.000074
      5.16958     -0.77220     23.63761         0.002319      0.004101     -0.011404
      5.05124     -0.48771     22.13149         0.002494      0.003356     -0.004139
      5.66436      0.86443     21.69805         0.000042      0.002854     -0.011017
      6.45766     -0.84730     24.00681        -0.006351      0.006754      0.000154
      4.57379     -1.93537     23.94945         0.002842      0.001589     -0.007075
      4.57800      0.20735     24.34182         0.004266     -0.004350     -0.004018
      5.66417     -1.51830     21.47996        -0.004653     -0.000839     -0.000016
      3.72478     -0.53507     21.82368         0.003654     -0.004729     -0.001942
      6.89563      0.88027     21.49716        -0.015887     -0.002491     -0.008156
      4.88851      1.83555     21.59990         0.013036     -0.012401     -0.000166
 -----------------------------------------------------------------------------------
    total drift:                                0.003359     -0.011990      0.002601


--------------------------------------------------------------------------------------------------------



  FREE ENERGIE OF THE ION-ELECTRON SYSTEM (eV)
  ---------------------------------------------------
  free  energy   TOTEN  =      -772.10306519 eV

  energy  without entropy=     -772.05246711  energy(sigma->0) =     -772.07776615
 
 d Force = 0.1727547E-04[ 0.143E-04, 0.202E-04]  d Energy =-0.2674701E-04 0.440E-04
 d Force =-0.5711042E+00[-0.571E+00,-0.571E+00]  d Ewald  =-0.5711042E+00-0.130E-08


--------------------------------------------------------------------------------------------------------


    POTLOK:  cpu time   47.7017: real time   47.4812


--------------------------------------------------------------------------------------------------------


 Conjugate gradient step on ions:
 trial-energy change:    0.000027  1 .order   -0.000017   -0.000020   -0.000014
  (g-gl).g = 0.641E-04      g.g   = 0.122E-03  gl.gl    = 0.133E-03
 g(Force)  = 0.122E-03   g(Stress)= 0.000E+00 ortho     = 0.202E-04
 gamma     =   0.48268
 trial     =   0.15322
 opt step  =   0.52689  (harmonic =   0.52689) maximal distance =0.00031090
 next E    =  -772.103127   (d E  =  -0.00003)


--------------------------------------------------------------------------------------------------------


  
 reached required accuracy - stopping structural energy minimisation
 writing wavefunctions
     LOOP+:  cpu time 2352.2882: real time 1929.5151
    4ORBIT:  cpu time    0.0000: real time    0.0000
 


 total charge     
 
# of ion       s       p       d       tot
------------------------------------------
    1        0.743   1.391   0.000   2.134
    2        0.743   1.391   0.000   2.134
    3        0.743   1.391   0.000   2.134
    4        0.743   1.391   0.000   2.134
    5        0.743   1.391   0.000   2.134
    6        0.743   1.391   0.000   2.134
    7        0.743   1.391   0.000   2.134
    8        0.743   1.391   0.000   2.134
    9        0.743   1.391   0.000   2.135
   10        0.743   1.391   0.000   2.134
   11        0.743   1.391   0.000   2.134
   12        0.743   1.391   0.000   2.134
   13        0.743   1.391   0.000   2.134
   14        0.743   1.391   0.000   2.134
   15        0.743   1.391   0.000   2.135
   16        0.743   1.391   0.000   2.134
   17        0.743   1.391   0.000   2.134
   18        0.743   1.391   0.000   2.134
   19        0.743   1.391   0.000   2.134
   20        0.743   1.391   0.000   2.134
   21        0.743   1.391   0.000   2.134
   22        0.743   1.391   0.000   2.134
   23        0.743   1.391   0.000   2.134
   24        0.743   1.391   0.000   2.134
   25        0.743   1.391   0.000   2.134
   26        0.743   1.391   0.000   2.134
   27        0.743   1.391   0.000   2.134
   28        0.743   1.391   0.000   2.134
   29        0.743   1.391   0.000   2.134
   30        0.743   1.391   0.000   2.134
   31        0.743   1.391   0.000   2.134
   32        0.743   1.391   0.000   2.134
   33        0.743   1.391   0.000   2.134
   34        0.743   1.391   0.000   2.134
   35        0.743   1.391   0.000   2.134
   36        0.743   1.391   0.000   2.134
   37        1.240   2.814   0.000   4.054
   38        1.240   2.814   0.000   4.054
   39        1.240   2.814   0.000   4.054
   40        1.240   2.814   0.000   4.054
   41        1.240   2.814   0.000   4.054
   42        1.240   2.814   0.000   4.054
   43        1.240   2.814   0.000   4.054
   44        1.240   2.814   0.000   4.054
   45        1.240   2.814   0.000   4.054
   46        1.240   2.814   0.000   4.054
   47        1.240   2.814   0.000   4.054
   48        1.240   2.814   0.000   4.054
   49        1.240   2.814   0.000   4.054
   50        1.240   2.814   0.000   4.054
   51        1.240   2.813   0.000   4.054
   52        1.240   2.814   0.000   4.054
   53        1.240   2.814   0.000   4.054
   54        1.240   2.814   0.000   4.054
   55        1.240   2.814   0.000   4.054
   56        1.240   2.814   0.000   4.054
   57        1.240   2.814   0.000   4.054
   58        1.240   2.814   0.000   4.054
   59        1.240   2.814   0.000   4.054
   60        1.240   2.814   0.000   4.054
   61        1.240   2.814   0.000   4.054
   62        1.240   2.814   0.000   4.054
   63        1.240   2.814   0.000   4.054
   64        1.240   2.814   0.000   4.054
   65        1.240   2.814   0.000   4.054
   66        1.240   2.814   0.000   4.054
   67        1.240   2.814   0.000   4.054
   68        1.240   2.814   0.000   4.054
   69        1.240   2.814   0.000   4.054
   70        1.240   2.814   0.000   4.054
   71        1.240   2.814   0.000   4.054
   72        1.240   2.814   0.000   4.054
   73        0.819   1.561   0.000   2.380
   74        0.835   1.599   0.000   2.434
   75        0.878   1.728   0.000   2.606
   76        1.758   4.413   0.000   6.171
   77        1.758   4.412   0.000   6.170
   78        1.758   4.413   0.000   6.171
   79        1.756   4.401   0.000   6.157
   80        1.756   4.403   0.000   6.159
   81        1.595   3.543   0.000   5.138
   82        1.595   3.544   0.000   5.139
--------------------------------------------------
tot         85.909 185.386   0.000 271.295
 


 magnetization (x)
 
# of ion       s       p       d       tot
------------------------------------------
    1        0.000   0.000   0.000   0.000
    2       -0.000  -0.000   0.000  -0.000
    3       -0.000  -0.000   0.000  -0.000
    4        0.000   0.000   0.000   0.000
    5        0.000   0.000   0.000   0.000
    6        0.000   0.000   0.000   0.000
    7        0.000   0.000   0.000   0.000
    8       -0.000  -0.000   0.000  -0.000
    9       -0.000  -0.000   0.000  -0.000
   10       -0.000  -0.000   0.000  -0.000
   11        0.000   0.000   0.000   0.000
   12        0.000   0.000   0.000   0.000
   13        0.000   0.000   0.000   0.000
   14        0.000   0.000   0.000   0.000
   15        0.000   0.000   0.000   0.000
   16       -0.000  -0.000   0.000  -0.000
   17       -0.000  -0.000   0.000  -0.000
   18        0.000   0.000   0.000   0.000
   19        0.000   0.000   0.000   0.000
   20        0.000   0.000   0.000   0.000
   21        0.000   0.000   0.000   0.000
   22        0.000   0.000   0.000   0.000
   23        0.000   0.000   0.000   0.000
   24        0.000   0.000   0.000   0.000
   25        0.000   0.000   0.000   0.000
   26        0.000   0.000   0.000   0.000
   27        0.000   0.000   0.000   0.000
   28        0.000   0.000   0.000   0.000
   29        0.000   0.000   0.000   0.000
   30        0.000   0.000   0.000   0.000
   31        0.000   0.000   0.000   0.000
   32        0.000   0.000   0.000   0.000
   33        0.000   0.000   0.000   0.000
   34        0.000   0.000   0.000   0.000
   35        0.000   0.000   0.000   0.000
   36        0.000   0.000   0.000   0.000
   37       -0.000   0.000   0.000   0.000
   38       -0.000  -0.000   0.000  -0.000
   39        0.000   0.000   0.000   0.000
   40       -0.000  -0.000   0.000  -0.000
   41       -0.000  -0.000   0.000  -0.000
   42       -0.000  -0.000   0.000  -0.000
   43       -0.000  -0.000   0.000  -0.000
   44        0.000   0.000   0.000   0.000
   45        0.000   0.000   0.000   0.000
   46       -0.000  -0.000   0.000  -0.000
   47       -0.000  -0.000   0.000  -0.000
   48       -0.000  -0.000   0.000  -0.000
   49       -0.000  -0.000   0.000  -0.000
   50        0.000   0.000   0.000   0.000
   51       -0.000  -0.000   0.000  -0.000
   52        0.000   0.000   0.000   0.000
   53       -0.000  -0.000   0.000  -0.000
   54       -0.000  -0.000   0.000  -0.000
   55       -0.000  -0.000   0.000  -0.000
   56       -0.000  -0.000   0.000  -0.000
   57       -0.000  -0.000   0.000  -0.000
   58       -0.000  -0.000   0.000  -0.000
   59       -0.000  -0.000   0.000  -0.000
   60       -0.000  -0.000   0.000  -0.000
   61       -0.000  -0.000   0.000  -0.000
   62       -0.000  -0.000   0.000  -0.000
   63       -0.000  -0.000   0.000  -0.000
   64       -0.000  -0.000   0.000  -0.000
   65       -0.000  -0.000   0.000  -0.000
   66       -0.000  -0.000   0.000  -0.000
   67       -0.000  -0.000   0.000  -0.000
   68       -0.000  -0.000   0.000  -0.000
   69       -0.000  -0.000   0.000  -0.000
   70       -0.000  -0.000   0.000  -0.000
   71       -0.000  -0.000   0.000  -0.000
   72       -0.000  -0.000   0.000  -0.000
   73       -0.000  -0.000   0.000  -0.000
   74       -0.001  -0.002   0.000  -0.002
   75       -0.002  -0.011   0.000  -0.013
   76        0.000   0.000   0.000   0.000
   77       -0.000  -0.000   0.000  -0.000
   78        0.000   0.000   0.000   0.000
   79        0.000   0.003   0.000   0.003
   80        0.000   0.004   0.000   0.004
   81        0.002   0.152   0.000   0.154
   82        0.002   0.150   0.000   0.151
--------------------------------------------------
tot          0.001   0.296   0.000   0.297
 

 total amount of memory used by VASP MPI-rank0  1200920. kBytes
=======================================================================

   base      :      30000. kBytes
   nonlr-proj:      37382. kBytes
   fftplans  :      59250. kBytes
   grid      :     716351. kBytes
   one-center:        503. kBytes
   wavefun   :     357434. kBytes
 
  
  
 General timing and accounting informations for this job:
 ========================================================
  
                  Total CPU time used (sec):    69232.375
                            User time (sec):    67211.245
                          System time (sec):     2021.131
                         Elapsed time (sec):    56828.484
  
                   Maximum memory used (kb):     3081400.
                   Average memory used (kb):           0.
  
                          Minor page faults:    272944831
                          Major page faults:           48
                 Voluntary context switches:       459790
