 vasp.5.4.4.18Apr17-6-g9f103f2a35 (build May 01 2020 14:57:12) complex          
  
 executed on             LinuxIFC date 2020.10.14  10:19:00
 running on   96 total cores
 distrk:  each k-point on   24 cores,    4 groups
 distr:  one band on NCORES_PER_BAND=   1 cores,   24 groups


--------------------------------------------------------------------------------------------------------


 INCAR:
 POTCAR:    PAW_PBE B 06Sep2000                   
 POTCAR:    PAW_PBE N 08Apr2002                   
 POTCAR:    PAW_PBE C 08Apr2002                   
 POTCAR:    PAW_PBE F 08Apr2002                   
 POTCAR:    PAW_PBE O 08Apr2002                   

 ----------------------------------------------------------------------------- 
|                                                                             |
|           W    W    AA    RRRRR   N    N  II  N    N   GGGG   !!!           |
|           W    W   A  A   R    R  NN   N  II  NN   N  G    G  !!!           |
|           W    W  A    A  R    R  N N  N  II  N N  N  G       !!!           |
|           W WW W  AAAAAA  RRRRR   N  N N  II  N  N N  G  GGG   !            |
|           WW  WW  A    A  R   R   N   NN  II  N   NN  G    G                |
|           W    W  A    A  R    R  N    N  II  N    N   GGGG   !!!           |
|                                                                             |
|      For optimal performance we recommend to set                            |
|        NCORE= 4 - approx SQRT( number of cores)                             |
|      NCORE specifies how many cores store one orbital (NPAR=cpu/NCORE).     |
|      This setting can  greatly improve the performance of VASP for DFT.     |
|      The default,   NCORE=1            might be grossly inefficient         |
|      on modern multi-core architectures or massively parallel machines.     |
|      Do your own testing !!!!                                               |
|      Unfortunately you need to use the default for GW and RPA calculations. |
|      (for HF NCORE is supported but not extensively tested yet)             |
|                                                                             |
 ----------------------------------------------------------------------------- 


 ----------------------------------------------------------------------------- 
|                                                                             |
|           W    W    AA    RRRRR   N    N  II  N    N   GGGG   !!!           |
|           W    W   A  A   R    R  NN   N  II  NN   N  G    G  !!!           |
|           W    W  A    A  R    R  N N  N  II  N N  N  G       !!!           |
|           W WW W  AAAAAA  RRRRR   N  N N  II  N  N N  G  GGG   !            |
|           WW  WW  A    A  R   R   N   NN  II  N   NN  G    G                |
|           W    W  A    A  R    R  N    N  II  N    N   GGGG   !!!           |
|                                                                             |
|      You have enabled k-point parallelism (KPAR>1).                         |
|      This developmental code was originally  written by Paul Kent at ORNL,  |
|      and carefully double checked in Vienna.                                |
|      GW as well as linear response parallelism added by Martijn Marsman     |
|      and Georg Kresse.                                                      |
|      Carefully verify results versus KPAR=1.                                |
|      Report problems to Paul Kent and Vienna.                               |
|                                                                             |
 ----------------------------------------------------------------------------- 

 POTCAR:    PAW_PBE B 06Sep2000                   
   VRHFIN =B: s2p1                                                              
   LEXCH  = PE                                                                  
   EATOM  =    71.1703 eV,    5.2309 Ry                                         
                                                                                
   TITEL  = PAW_PBE B 06Sep2000                                                 
   LULTRA =        F    use ultrasoft PP ?                                      
   IUNSCR =        1    unscreen: 0-lin 1-nonlin 2-no                           
   RPACOR =    1.200    partial core radius                                     
   POMASS =   10.811; ZVAL   =    3.000    mass and valenz                      
   RCORE  =    1.700    outmost cutoff radius                                   
   RWIGS  =    1.710; RWIGS  =    0.905    wigner-seitz radius (au A)           
   ENMAX  =  318.614; ENMIN  =  238.960 eV                                      
   ICORE  =        2    local potential                                         
   LCOR   =        T    correct aug charges                                     
   LPAW   =        T    paw PP                                                  
   EAUG   =  535.514                                                            
   DEXC   =    0.000                                                            
   RMAX   =    1.732    core radius for proj-oper                               
   RAUG   =    1.300    factor for augmentation sphere                          
   RDEP   =    1.757    radius for radial grids                                 
   RDEPT  =    1.436    core radius for aug-charge                              
                                                                                
   Atomic configuration                                                         
    4 entries                                                                   
     n  l   j            E        occ.                                          
     1  0  0.50      -180.5896   2.0000                                         
     2  0  0.50        -9.4431   2.0000                                         
     2  1  0.50        -3.6068   1.0000                                         
     3  2  1.50        -4.0817   0.0000                                         
   Description                                                                  
     l       E           TYP  RCUT    TYP  RCUT                                 
     0     -9.4430752     23  1.500                                             
     0      0.8675899     23  1.500                                             
     1     -3.6067955     23  1.700                                             
     1      6.1086146     23  1.700                                             
     2     -4.0817478      7  1.700                                             
  local pseudopotential read in
  partial core-charges read in
  partial kinetic energy density read in
  atomic valenz-charges read in
  non local Contribution for L=           0  read in
    real space projection operators read in
  non local Contribution for L=           0  read in
    real space projection operators read in
  non local Contribution for L=           1  read in
    real space projection operators read in
  non local Contribution for L=           1  read in
    real space projection operators read in
    PAW grid and wavefunctions read in
 
   number of l-projection  operators is LMAX  =           4
   number of lm-projection operators is LMMAX =           8
 
 POTCAR:    PAW_PBE N 08Apr2002                   
   VRHFIN =N: s2p3                                                              
   LEXCH  = PE                                                                  
   EATOM  =   264.5486 eV,   19.4438 Ry                                         
                                                                                
   TITEL  = PAW_PBE N 08Apr2002                                                 
   LULTRA =        F    use ultrasoft PP ?                                      
   IUNSCR =        1    unscreen: 0-lin 1-nonlin 2-no                           
   RPACOR =    1.200    partial core radius                                     
   POMASS =   14.001; ZVAL   =    5.000    mass and valenz                      
   RCORE  =    1.500    outmost cutoff radius                                   
   RWIGS  =    1.400; RWIGS  =    0.741    wigner-seitz radius (au A)           
   ENMAX  =  400.000; ENMIN  =  300.000 eV                                      
   ICORE  =        2    local potential                                         
   LCOR   =        T    correct aug charges                                     
   LPAW   =        T    paw PP                                                  
   EAUG   =  627.112                                                            
   DEXC   =    0.000                                                            
   RMAX   =    1.529    core radius for proj-oper                               
   RAUG   =    1.300    factor for augmentation sphere                          
   RDEP   =    1.514    radius for radial grids                                 
   RDEPT  =    1.338    core radius for aug-charge                              
                                                                                
   Atomic configuration                                                         
    4 entries                                                                   
     n  l   j            E        occ.                                          
     1  0  0.50      -384.7179   2.0000                                         
     2  0  0.50       -18.5828   2.0000                                         
     2  1  0.50        -7.0898   3.0000                                         
     3  2  1.50        -6.8029   0.0000                                         
   Description                                                                  
     l       E           TYP  RCUT    TYP  RCUT                                 
     0    -18.5828119     23  1.200                                             
     0    -13.5018863     23  1.200                                             
     1     -7.0897853     23  1.500                                             
     1      9.5240782     23  1.500                                             
     2     -6.8029130      7  1.500                                             
  local pseudopotential read in
  partial core-charges read in
  partial kinetic energy density read in
  atomic valenz-charges read in
  non local Contribution for L=           0  read in
    real space projection operators read in
  non local Contribution for L=           0  read in
    real space projection operators read in
  non local Contribution for L=           1  read in
    real space projection operators read in
  non local Contribution for L=           1  read in
    real space projection operators read in
    PAW grid and wavefunctions read in
 
   number of l-projection  operators is LMAX  =           4
   number of lm-projection operators is LMMAX =           8
 
 POTCAR:    PAW_PBE C 08Apr2002                   
   VRHFIN =C: s2p2                                                              
   LEXCH  = PE                                                                  
   EATOM  =   147.1560 eV,   10.8157 Ry                                         
                                                                                
   TITEL  = PAW_PBE C 08Apr2002                                                 
   LULTRA =        F    use ultrasoft PP ?                                      
   IUNSCR =        1    unscreen: 0-lin 1-nonlin 2-no                           
   RPACOR =    1.200    partial core radius                                     
   POMASS =   12.011; ZVAL   =    4.000    mass and valenz                      
   RCORE  =    1.500    outmost cutoff radius                                   
   RWIGS  =    1.630; RWIGS  =    0.863    wigner-seitz radius (au A)           
   ENMAX  =  400.000; ENMIN  =  300.000 eV                                      
   ICORE  =        2    local potential                                         
   LCOR   =        T    correct aug charges                                     
   LPAW   =        T    paw PP                                                  
   EAUG   =  644.873                                                            
   DEXC   =    0.000                                                            
   RMAX   =    1.529    core radius for proj-oper                               
   RAUG   =    1.300    factor for augmentation sphere                          
   RDEP   =    1.501    radius for radial grids                                 
   RDEPT  =    1.300    core radius for aug-charge                              
                                                                                
   Atomic configuration                                                         
    4 entries                                                                   
     n  l   j            E        occ.                                          
     1  0  0.50      -273.3789   2.0000                                         
     2  0  0.50       -13.7508   2.0000                                         
     2  1  0.50        -5.2854   2.0000                                         
     3  2  1.50        -5.4423   0.0000                                         
   Description                                                                  
     l       E           TYP  RCUT    TYP  RCUT                                 
     0    -13.7508458     23  1.200                                             
     0     -8.2022199     23  1.200                                             
     1     -5.2854383     23  1.500                                             
     1     34.0145650     23  1.500                                             
     2     -5.4423304      7  1.500                                             
  local pseudopotential read in
  partial core-charges read in
  partial kinetic energy density read in
  atomic valenz-charges read in
  non local Contribution for L=           0  read in
    real space projection operators read in
  non local Contribution for L=           0  read in
    real space projection operators read in
  non local Contribution for L=           1  read in
    real space projection operators read in
  non local Contribution for L=           1  read in
    real space projection operators read in
    PAW grid and wavefunctions read in
 
   number of l-projection  operators is LMAX  =           4
   number of lm-projection operators is LMMAX =           8
 
 POTCAR:    PAW_PBE F 08Apr2002                   
   VRHFIN =F: s2p5                                                              
   LEXCH  = PE                                                                  
   EATOM  =   659.6475 eV,   48.4827 Ry                                         
                                                                                
   TITEL  = PAW_PBE F 08Apr2002                                                 
   LULTRA =        F    use ultrasoft PP ?                                      
   IUNSCR =        1    unscreen: 0-lin 1-nonlin 2-no                           
   RPACOR =    1.200    partial core radius                                     
   POMASS =   18.998; ZVAL   =    7.000    mass and valenz                      
   RCORE  =    1.520    outmost cutoff radius                                   
   RWIGS  =    1.500; RWIGS  =    0.794    wigner-seitz radius (au A)           
   ENMAX  =  400.000; ENMIN  =  300.000 eV                                      
   ICORE  =        2    local potential                                         
   LCOR   =        T    correct aug charges                                     
   LPAW   =        T    paw PP                                                  
   EAUG   =  613.614                                                            
   RMAX   =    1.555    core radius for proj-oper                               
   RAUG   =    1.300    factor for augmentation sphere                          
   RDEP   =    1.539    radius for radial grids                                 
   RDEPT  =    1.299    core radius for aug-charge                              
                                                                                
   Atomic configuration                                                         
    4 entries                                                                   
     n  l   j            E        occ.                                          
     1  0  0.50      -663.3661   2.0000                                         
     2  0  0.50       -29.8995   2.0000                                         
     2  1  0.50       -11.1114   5.0000                                         
     3  2  1.50       -10.8847   0.0000                                         
   Description                                                                  
     l       E           TYP  RCUT    TYP  RCUT                                 
     0    -29.8995018     23  1.200                                             
     0     -9.5240782     23  1.200                                             
     1    -11.1113914     23  1.520                                             
     1      1.3605826     23  1.520                                             
     2    -10.8846608      7  1.500                                             
  local pseudopotential read in
  partial core-charges read in
  partial kinetic energy density read in
  atomic valenz-charges read in
  non local Contribution for L=           0  read in
    real space projection operators read in
  non local Contribution for L=           0  read in
    real space projection operators read in
  non local Contribution for L=           1  read in
    real space projection operators read in
  non local Contribution for L=           1  read in
    real space projection operators read in
    PAW grid and wavefunctions read in
 
   number of l-projection  operators is LMAX  =           4
   number of lm-projection operators is LMMAX =           8
 
 POTCAR:    PAW_PBE O 08Apr2002                   
   VRHFIN =O: s2p4                                                              
   LEXCH  = PE                                                                  
   EATOM  =   432.3788 eV,   31.7789 Ry                                         
                                                                                
   TITEL  = PAW_PBE O 08Apr2002                                                 
   LULTRA =        F    use ultrasoft PP ?                                      
   IUNSCR =        1    unscreen: 0-lin 1-nonlin 2-no                           
   RPACOR =    1.200    partial core radius                                     
   POMASS =   16.000; ZVAL   =    6.000    mass and valenz                      
   RCORE  =    1.520    outmost cutoff radius                                   
   RWIGS  =    1.550; RWIGS  =    0.820    wigner-seitz radius (au A)           
   ENMAX  =  400.000; ENMIN  =  300.000 eV                                      
   ICORE  =        2    local potential                                         
   LCOR   =        T    correct aug charges                                     
   LPAW   =        T    paw PP                                                  
   EAUG   =  605.392                                                            
   DEXC   =    0.000                                                            
   RMAX   =    1.553    core radius for proj-oper                               
   RAUG   =    1.300    factor for augmentation sphere                          
   RDEP   =    1.550    radius for radial grids                                 
   RDEPT  =    1.329    core radius for aug-charge                              
                                                                                
   Atomic configuration                                                         
    4 entries                                                                   
     n  l   j            E        occ.                                          
     1  0  0.50      -514.6923   2.0000                                         
     2  0  0.50       -23.9615   2.0000                                         
     2  1  0.50        -9.0305   4.0000                                         
     3  2  1.50        -9.5241   0.0000                                         
   Description                                                                  
     l       E           TYP  RCUT    TYP  RCUT                                 
     0    -23.9615318     23  1.200                                             
     0     -9.5240782     23  1.200                                             
     1     -9.0304911     23  1.520                                             
     1      8.1634956     23  1.520                                             
     2     -9.5240782      7  1.500                                             
  local pseudopotential read in
  partial core-charges read in
  partial kinetic energy density read in
  kinetic energy density of atom read in
  atomic valenz-charges read in
  non local Contribution for L=           0  read in
    real space projection operators read in
  non local Contribution for L=           0  read in
    real space projection operators read in
  non local Contribution for L=           1  read in
    real space projection operators read in
  non local Contribution for L=           1  read in
    real space projection operators read in
    PAW grid and wavefunctions read in
 
   number of l-projection  operators is LMAX  =           4
   number of lm-projection operators is LMMAX =           8
 
 Optimization of the real space projectors (new method)

 maximal supplied QI-value         = 22.11
 optimisation between [QCUT,QGAM] = [ 11.94, 23.88] = [ 39.92,159.67] Ry 
 Optimized for a Real-space Cutoff    1.18 Angstroem

   l    n(q)    QCUT    max X(q) W(low)/X(q) W(high)/X(q)  e(spline) 
   0      8    11.939    53.033    0.11E-03    0.34E-03    0.60E-07
   0      8    11.939    34.740    0.11E-03    0.34E-03    0.59E-07
   1      8    11.939    30.949    0.22E-03    0.20E-03    0.17E-06
   1      8    11.939    19.518    0.20E-03    0.18E-03    0.16E-06
 Optimization of the real space projectors (new method)

 maximal supplied QI-value         = 25.13
 optimisation between [QCUT,QGAM] = [ 11.81, 23.88] = [ 39.08,159.64] Ry 
 Optimized for a Real-space Cutoff    1.41 Angstroem

   l    n(q)    QCUT    max X(q) W(low)/X(q) W(high)/X(q)  e(spline) 
   0     10    11.813    79.467    0.48E-04    0.30E-04    0.67E-06
   0     10    11.813    66.151    0.47E-04    0.30E-04    0.67E-06
   1     10    11.813    20.169    0.11E-03    0.17E-03    0.11E-05
   1     10    11.813    14.454    0.11E-03    0.17E-03    0.11E-05
 Optimization of the real space projectors (new method)

 maximal supplied QI-value         = 25.13
 optimisation between [QCUT,QGAM] = [ 11.81, 23.88] = [ 39.08,159.64] Ry 
 Optimized for a Real-space Cutoff    1.18 Angstroem

   l    n(q)    QCUT    max X(q) W(low)/X(q) W(high)/X(q)  e(spline) 
   0      8    11.813   115.676    0.10E-03    0.16E-03    0.35E-06
   0      8    11.813    87.132    0.10E-03    0.16E-03    0.35E-06
   1      8    11.813     4.429    0.16E-03    0.13E-04    0.22E-06
   1      8    11.813     2.733    0.13E-03    0.10E-04    0.18E-06
 Optimization of the real space projectors (new method)

 maximal supplied QI-value         = 24.76
 optimisation between [QCUT,QGAM] = [ 11.88, 24.01] = [ 39.54,161.47] Ry 
 Optimized for a Real-space Cutoff    1.18 Angstroem

   l    n(q)    QCUT    max X(q) W(low)/X(q) W(high)/X(q)  e(spline) 
   0      8    11.883    14.049    0.56E-04    0.86E-04    0.22E-06
   0      8    11.883     8.945    0.81E-04    0.11E-03    0.30E-06
   1      8    11.883     7.086    0.16E-03    0.15E-04    0.31E-06
   1      8    11.883     6.747    0.15E-03    0.14E-04    0.28E-06
 Optimization of the real space projectors (new method)

 maximal supplied QI-value         = 24.76
 optimisation between [QCUT,QGAM] = [ 11.88, 24.01] = [ 39.54,161.47] Ry 
 Optimized for a Real-space Cutoff    1.18 Angstroem

   l    n(q)    QCUT    max X(q) W(low)/X(q) W(high)/X(q)  e(spline) 
   0      8    11.883    20.381    0.86E-04    0.11E-03    0.31E-06
   0      8    11.883    15.268    0.94E-04    0.12E-03    0.33E-06
   1      8    11.883     5.964    0.19E-03    0.18E-04    0.33E-06
   1      8    11.883     5.382    0.17E-03    0.20E-04    0.29E-06
  PAW_PBE B 06Sep2000                   :
 energy of atom  1       EATOM=  -71.1703
 kinetic energy error for atom=    0.0009 (will be added to EATOM!!)
  PAW_PBE N 08Apr2002                   :
 energy of atom  2       EATOM= -264.5486
 kinetic energy error for atom=    0.0116 (will be added to EATOM!!)
  PAW_PBE C 08Apr2002                   :
 energy of atom  3       EATOM= -147.1560
 kinetic energy error for atom=    0.0066 (will be added to EATOM!!)
  PAW_PBE F 08Apr2002                   :
 energy of atom  4       EATOM= -659.6475
 kinetic energy error for atom=    0.0296 (will be added to EATOM!!)
  PAW_PBE O 08Apr2002                   :
 energy of atom  5       EATOM= -432.3788
 kinetic energy error for atom=    0.0194 (will be added to EATOM!!)
 
 
 POSCAR: B N C F O                               
  positions in direct lattice
  velocities in cartesian coordinates

 METAGGA = SCAN     LMAXTAU =  6    LMIXTAU =  F

 exchange correlation table for  LEXCH =        8
   RHO(1)=    0.500       N(1)  =     2000
   RHO(2)=  100.500       N(2)  =     4000
 


--------------------------------------------------------------------------------------------------------


 ion  position               nearest neighbor table
   1  0.111  0.056  0.500-  42 1.45  43 1.45  37 1.45
   2  0.111  0.222  0.500-  38 1.45  37 1.45  44 1.45
   3  0.111  0.389  0.500-  38 1.45  39 1.45  45 1.45
   4  0.111  0.556  0.500-  40 1.45  46 1.45  39 1.45
   5  0.111  0.722  0.500-  47 1.45  40 1.45  41 1.45
   6  0.111  0.889  0.500-  48 1.45  42 1.45  41 1.45
   7  0.278  0.056  0.500-  48 1.45  43 1.45  49 1.45
   8  0.278  0.222  0.500-  43 1.45  50 1.45  44 1.45
   9  0.278  0.389  0.500-  44 1.45  51 1.45  45 1.45
  10  0.278  0.556  0.500-  46 1.45  52 1.45  45 1.45
  11  0.278  0.722  0.500-  47 1.45  46 1.45  53 1.45
  12  0.278  0.889  0.500-  48 1.45  47 1.45  54 1.45
  13  0.444  0.056  0.500-  54 1.45  49 1.45  55 1.45
  14  0.444  0.222  0.500-  49 1.45  56 1.45  50 1.45
  15  0.444  0.389  0.500-  57 1.45  50 1.45  51 1.45
  16  0.444  0.556  0.500-  51 1.45  52 1.45  58 1.45
  17  0.444  0.722  0.500-  53 1.45  59 1.45  52 1.45
  18  0.444  0.889  0.500-  54 1.45  53 1.45  60 1.45
  19  0.611  0.056  0.500-  55 1.45  60 1.45  61 1.45
  20  0.611  0.222  0.500-  56 1.45  55 1.45  62 1.45
  21  0.611  0.389  0.500-  57 1.45  63 1.45  56 1.45
  22  0.611  0.556  0.500-  57 1.45  64 1.45  58 1.45
  23  0.611  0.722  0.500-  59 1.45  65 1.45  58 1.45
  24  0.611  0.889  0.500-  60 1.45  59 1.45  66 1.45
  25  0.778  0.056  0.500-  67 1.45  61 1.45  66 1.45
  26  0.778  0.222  0.500-  68 1.45  62 1.45  61 1.45
  27  0.778  0.389  0.500-  63 1.45  62 1.45  69 1.45
  28  0.778  0.556  0.500-  70 1.45  64 1.45  63 1.45
  29  0.778  0.722  0.500-  71 1.45  64 1.45  65 1.45
  30  0.778  0.889  0.500-  72 1.45  66 1.45  65 1.45
  31  0.944  0.056  0.500-  37 1.45  72 1.45  67 1.45
  32  0.944  0.222  0.500-  68 1.45  38 1.45  67 1.45
  33  0.944  0.389  0.500-  39 1.45  69 1.45  68 1.45
  34  0.944  0.556  0.500-  40 1.45  70 1.45  69 1.45
  35  0.944  0.722  0.500-  41 1.45  70 1.45  71 1.45
  36  0.944  0.889  0.500-  42 1.45  71 1.45  72 1.45
  37  0.056  0.111  0.500-  31 1.45   2 1.45   1 1.45
  38  0.056  0.278  0.500-  32 1.45   3 1.45   2 1.45
  39  0.056  0.445  0.500-  33 1.45   3 1.45   4 1.45
  40  0.056  0.611  0.500-  34 1.45   4 1.45   5 1.45
  41  0.056  0.778  0.500-  35 1.45   5 1.45   6 1.45
  42  0.056  0.945  0.500-  36 1.45   1 1.45   6 1.45
  43  0.222  0.111  0.500-   8 1.45   7 1.45   1 1.45
  44  0.222  0.278  0.500-   9 1.45   2 1.45   8 1.45
  45  0.222  0.445  0.500-   3 1.45   9 1.45  10 1.45
  46  0.222  0.611  0.500-  10 1.45   4 1.45  11 1.45
  47  0.222  0.778  0.500-  11 1.45   5 1.45  12 1.45
  48  0.222  0.945  0.500-   6 1.45   7 1.45  12 1.45
  49  0.389  0.111  0.500-  14 1.45  13 1.45   7 1.45
  50  0.389  0.278  0.501-  14 1.45  15 1.45   8 1.45
  51  0.389  0.445  0.500-  16 1.45   9 1.45  15 1.45
  52  0.389  0.611  0.500-  16 1.45  10 1.45  17 1.45
  53  0.389  0.778  0.500-  17 1.45  18 1.45  11 1.45
  54  0.389  0.945  0.500-  13 1.45  18 1.45  12 1.45
  55  0.556  0.111  0.500-  19 1.45  20 1.45  13 1.45
  56  0.556  0.278  0.500-  20 1.45  14 1.45  21 1.45
  57  0.556  0.445  0.500-  15 1.45  21 1.45  22 1.45
  58  0.556  0.611  0.500-  23 1.45  22 1.45  16 1.45
  59  0.556  0.778  0.500-  24 1.45  23 1.45  17 1.45
  60  0.556  0.945  0.500-  24 1.45  19 1.45  18 1.45
  61  0.722  0.111  0.500-  25 1.45  26 1.45  19 1.45
  62  0.722  0.278  0.500-  26 1.45  20 1.45  27 1.45
  63  0.722  0.445  0.500-  27 1.45  28 1.45  21 1.45
  64  0.722  0.611  0.500-  28 1.45  29 1.45  22 1.45
  65  0.722  0.778  0.500-  30 1.45  23 1.45  29 1.45
  66  0.722  0.945  0.500-  24 1.45  30 1.45  25 1.45
  67  0.889  0.111  0.500-  25 1.45  31 1.45  32 1.45
  68  0.889  0.278  0.500-  26 1.45  32 1.45  33 1.45
  69  0.889  0.445  0.500-  33 1.45  27 1.45  34 1.45
  70  0.889  0.611  0.500-  28 1.45  34 1.45  35 1.45
  71  0.889  0.778  0.500-  29 1.45  35 1.45  36 1.45
  72  0.889  0.945  0.500-  30 1.45  31 1.45  36 1.45
  73  0.377  0.299  0.659-  76 1.34  78 1.34  77 1.35  74 1.51
  74  0.362  0.267  0.617-  80 1.33  79 1.33  73 1.51
  75  0.314  0.522  0.609-  81 1.16  82 1.16
  76  0.467  0.385  0.663-  73 1.34
  77  0.377  0.227  0.682-  73 1.35
  78  0.301  0.314  0.670-  73 1.34
  79  0.438  0.257  0.603-  74 1.33
  80  0.272  0.186  0.610-  74 1.33
  81  0.402  0.577  0.606-  75 1.16
  82  0.227  0.467  0.612-  75 1.16
 

IMPORTANT INFORMATION: All symmetrisations will be switched off!
NOSYMM: (Re-)initialisation of all symmetry stuff for point group C_1.

 
 
 KPOINTS: K-Point Grid                            

Automatic generation of k-mesh.
Space group operators:
 irot       det(A)        alpha          n_x          n_y          n_z        tau_x        tau_y        tau_z
    1     1.000000     0.000000     1.000000     0.000000     0.000000     0.000000     0.000000     0.000000
 
 Subroutine IBZKPT returns following result:
 ===========================================
 
 Found      5 irreducible k-points:
 
 Following reciprocal coordinates:
            Coordinates               Weight
  0.000000  0.000000  0.000000      1.000000
  0.333333  0.000000  0.000000      2.000000
  0.000000  0.333333  0.000000      2.000000
  0.333333  0.333333  0.000000      2.000000
 -0.333333  0.333333  0.000000      2.000000
 
 Following cartesian coordinates:
            Coordinates               Weight
  0.000000  0.000000  0.000000      1.000000
  0.022114 -0.012768  0.000000      2.000000
  0.022114  0.012768  0.000000      2.000000
  0.044229  0.000000  0.000000      2.000000
  0.000000  0.025535  0.000000      2.000000
 


--------------------------------------------------------------------------------------------------------




 Dimension of arrays:
   k-points           NKPTS =      5   k-points in BZ     NKDIM =      5   number of bands    NBANDS=    264
   number of dos      NEDOS =   1200   number of ions     NIONS =     82
   non local maximal  LDIM  =      4   non local SUM 2l+1 LMDIM =      8
   total plane-waves  NPLWV = ******
   max r-space proj   IRMAX =   6598   max aug-charges    IRDMAX=   8974
   dimension x,y,z NGX =   120 NGY =  120 NGZ =  270
   dimension x,y,z NGXF=   240 NGYF=  240 NGZF=  540
   support grid    NGXF=   240 NGYF=  240 NGZF=  540
   ions per type =              36  36   3   5   2
   NGX,Y,Z   is equivalent  to a cutoff of  13.24, 13.24, 12.78 a.u.
   NGXF,Y,Z  is equivalent  to a cutoff of  26.47, 26.47, 25.57 a.u.

 SYSTEM =  SiC                                     
 POSCAR =  B N C F O                               

 Startparameter for this run:
   NWRITE =      2    write-flag & timer
   PREC   = accura    normal or accurate (medium, high low for compatibility)
   ISTART =      1    job   : 0-new  1-cont  2-samecut
   ICHARG =      0    charge: 1-file 2-atom 10-const
   ISPIN  =      2    spin polarized calculation?
   LNONCOLLINEAR =      F non collinear calculations
   LSORBIT =      F    spin-orbit coupling
   INIWAV =      1    electr: 0-lowe 1-rand  2-diag
   LASPH  =      T    aspherical Exc in radial PAW
   METAGGA=      F    non-selfconsistent MetaGGA calc.

 Electronic Relaxation 1
   ENCUT  =  550.0 eV  40.42 Ry    6.36 a.u.  28.82 28.82 67.15*2*pi/ulx,y,z
   ENINI  =  550.0     initial cutoff
   ENAUG  =  644.9 eV  augmentation charge cutoff
   NELM   =    100;   NELMIN=  2; NELMDL=  0     # of ELM steps 
   EDIFF  = 0.1E-04   stopping-criterion for ELM
   LREAL  =      T    real-space projection
   NLSPLINE    = F    spline interpolate recip. space projectors
   LCOMPAT=      F    compatible to vasp.4.4
   GGA_COMPAT  = T    GGA compatible to vasp.4.4-vasp.4.6
   LMAXPAW     = -100 max onsite density
   LMAXMIX     =    2 max onsite mixed and CHGCAR
   VOSKOWN=      0    Vosko Wilk Nusair interpolation
   ROPT   =   -0.00025  -0.00025  -0.00025  -0.00025
   ROPT   =   -0.00025
 Ionic relaxation
   EDIFFG = -.2E-01   stopping-criterion for IOM
   NSW    =    500    number of steps for IOM
   NBLOCK =      1;   KBLOCK =    500    inner block; outer block 
   IBRION =      2    ionic relax: 0-MD 1-quasi-New 2-CG
   NFREE  =      1    steps in history (QN), initial steepest desc. (CG)
   ISIF   =      2    stress and relaxation
   IWAVPR =     11    prediction:  0-non 1-charg 2-wave 3-comb
   ISYM   =      0    0-nonsym 1-usesym 2-fastsym
   LCORR  =      T    Harris-Foulkes like correction to forces

   POTIM  = 0.5000    time-step for ionic-motion
   TEIN   =    0.0    initial temperature
   TEBEG  =    0.0;   TEEND  =   0.0 temperature during run
   SMASS  =  -3.00    Nose mass-parameter (am)
   estimated Nose-frequenzy (Omega)   =  0.10E-29 period in steps =****** mass=  -0.519E-26a.u.
   SCALEE = 1.0000    scale energy and forces
   NPACO  =    256;   APACO  = 16.0  distance and # of slots for P.C.
   PSTRESS=    0.0 pullay stress

  Mass of Ions in am
   POMASS =  10.81 14.00 12.01 19.00 16.00
  Ionic Valenz
   ZVAL   =   3.00  5.00  4.00  7.00  6.00
  Atomic Wigner-Seitz radii
   RWIGS  =  -1.00 -1.00 -1.00 -1.00 -1.00
  virtual crystal weights 
   VCA    =   1.00  1.00  1.00  1.00  1.00
   NELECT =     347.0000    total number of electrons
   NUPDOWN=      -1.0000    fix difference up-down

 DOS related values:
   EMIN   =  10.00;   EMAX   =-10.00  energy-range for DOS
   EFERMI =   0.00
   ISMEAR =     0;   SIGMA  =   0.05  broadening in eV -4-tet -1-fermi 0-gaus

 Electronic relaxation 2 (details)
   IALGO  =     68    algorithm
   LDIAG  =      T    sub-space diagonalisation (order eigenvalues)
   LSUBROT=      F    optimize rotation matrix (better conditioning)
   TURBO    =      0    0=normal 1=particle mesh
   IRESTART =      0    0=no restart 2=restart with 2 vectors
   NREBOOT  =      0    no. of reboots
   NMIN     =      0    reboot dimension
   EREF     =   0.00    reference energy to select bands
   IMIX   =      4    mixing-type and parameters
     AMIX     =   0.40;   BMIX     =  1.00
     AMIX_MAG =   1.60;   BMIX_MAG =  1.00
     AMIN     =   0.10
     WC   =   100.;   INIMIX=   1;  MIXPRE=   1;  MAXMIX= -45

 Intra band minimization:
   WEIMIN = 0.0010     energy-eigenvalue tresh-hold
   EBREAK =  0.95E-08  absolut break condition
   DEPER  =   0.30     relativ break condition  

   TIME   =   0.40     timestep for ELM

  volume/ion in A,a.u.               =      84.26       568.60
  Fermi-wavevector in a.u.,A,eV,Ry     =   0.604008  1.141409  4.963752  0.364825
  Thomas-Fermi vector in A             =   1.657201
 
 Write flags
   LWAVE        =      T    write WAVECAR
   LDOWNSAMPLE  =      F    k-point downsampling of WAVECAR
   LCHARG       =      F    write CHGCAR
   LVTOT        =      F    write LOCPOT, total local potential
   LVHAR        =      T    write LOCPOT, Hartree potential only
   LELF         =      F    write electronic localiz. function (ELF)
   LORBIT       =     11    0 simple, 1 ext, 2 COOP (PROOUT), +10 PAW based schemes


 Dipole corrections
   LMONO  =      F    monopole corrections only (constant potential shift)
   LDIPOL =      F    correct potential (dipole corrections)
   IDIPOL =      0    1-x, 2-y, 3-z, 4-all directions 
   EPSILON=  1.0000000 bulk dielectric constant

 Exchange correlation treatment:
   GGA     =    --    GGA type
   LEXCH   =     8    internal setting for exchange type
   VOSKOWN=      0    Vosko Wilk Nusair interpolation
   LHFCALC =     F    Hartree Fock is set to
   LHFONE  =     F    Hartree Fock one center treatment
   AEXX    =    0.0000 exact exchange contribution

 Linear response parameters
   LEPSILON=     F    determine dielectric tensor
   LRPA    =     F    only Hartree local field effects (RPA)
   LNABLA  =     F    use nabla operator in PAW spheres
   LVEL    =     F    velocity operator in full k-point grid
   LINTERFAST=   F  fast interpolation
   KINTER  =     0    interpolate to denser k-point grid
   CSHIFT  =0.1000    complex shift for real part using Kramers Kronig
   OMEGAMAX=  -1.0    maximum frequency
   DEG_THRESHOLD= 0.2000000E-02 threshold for treating states as degnerate
   RTIME   =   -0.100 relaxation time in fs
  (WPLASMAI=    0.000 imaginary part of plasma frequency in eV, 0.658/RTIME)
   DFIELD  = 0.0000000 0.0000000 0.0000000 field for delta impulse in time
 
 Orbital magnetization related:
   ORBITALMAG=     F  switch on orbital magnetization
   LCHIMAG   =     F  perturbation theory with respect to B field
   DQ        =  0.001000  dq finite difference perturbation B field
   LLRAUG    =     F  two centre corrections for induced B field

 Solvation model:
   LSOL    =     T         switch on solvation model
   EB_K    = 78.400000     relative permittivity of the bulk solvent
   SIGMA_K =  0.600000     width of the dielectric cavity
   NC_K    =  0.002500     cutoff charge density
   TAU     =  0.000000     cavity surface tension
   LAMBDA_D_K    =  3.040000     Debye length in Angstroms
   LRHOB     =     F     write boundcharge  density
   LRHOION     =     F     write ioniccharge density



--------------------------------------------------------------------------------------------------------


 conjugate gradient relaxation of ions
   using selective dynamics as specified on POSCAR
 charge density and potential will be updated during run
 spin polarized calculation
 RMM-DIIS sequential band-by-band and
  variant of blocked Davidson during initial phase
 perform sub-space diagonalisation
    before iterative eigenvector-optimisation
 modified Broyden-mixing scheme, WC =      100.0
 initial mixing is a Kerker type mixing with AMIX =  0.4000 and BMIX =      1.0000
 Hartree-type preconditioning will be used
 using additional bands           90
 real space projection scheme for non local part
 use partial core corrections
 calculate Harris-corrections to forces 
   (improved forces if not selfconsistent)
 use gradient corrections 
 use of overlap-Matrix (Vanderbilt PP)
 Gauss-broadening in eV      SIGMA  =   0.05


--------------------------------------------------------------------------------------------------------


  energy-cutoff  :      550.00
  volume of cell :     6909.18
      direct lattice vectors                 reciprocal lattice vectors
     7.536550057-13.053746059  0.000000000     0.066343353 -0.038303181  0.000000000
     7.536550057 13.053746059  0.000000000     0.066343353  0.038303181  0.000000000
     0.000000000  0.000000000 35.114664386     0.000000000  0.000000000  0.028478131

  length of vectors
    15.073150730 15.073150730 35.114664386     0.076606620  0.076606620  0.028478131


 
 old parameters found on file WAVECAR:
  energy-cutoff  :      550.00
  volume of cell :     6909.18
      direct lattice vectors                 reciprocal lattice vectors
     7.536550057-13.053746059  0.000000000     0.066343353 -0.038303181  0.000000000
     7.536550057 13.053746059  0.000000000     0.066343353  0.038303181  0.000000000
     0.000000000  0.000000000 35.114664386     0.000000000  0.000000000  0.028478131

  length of vectors

 
 k-points in units of 2pi/SCALE and weight: K-Point Grid                            
   0.00000000  0.00000000  0.00000000       0.111
   0.02211445 -0.01276773  0.00000000       0.222
   0.02211445  0.01276773  0.00000000       0.222
   0.04422890  0.00000000  0.00000000       0.222
   0.00000000  0.02553545  0.00000000       0.222
 
 k-points in reciprocal lattice and weights: K-Point Grid                            
   0.00000000  0.00000000  0.00000000       0.111
   0.33333333  0.00000000  0.00000000       0.222
   0.00000000  0.33333333  0.00000000       0.222
   0.33333333  0.33333333  0.00000000       0.222
  -0.33333333  0.33333333  0.00000000       0.222
 
 position of ions in fractional coordinates (direct lattice) 
   0.11111190  0.05562224  0.50034869
   0.11110299  0.22227669  0.50030259
   0.11113373  0.38894933  0.50037761
   0.11111878  0.55562071  0.50026429
   0.11113313  0.72229201  0.50027809
   0.11114529  0.88898867  0.50026347
   0.27779501  0.05563143  0.50036966
   0.27779191  0.22225727  0.50045589
   0.27779335  0.38894396  0.50036361
   0.27778862  0.55564831  0.50028667
   0.27779098  0.72231007  0.50026709
   0.27777952  0.88897405  0.50029176
   0.44447827  0.05562162  0.50031669
   0.44445408  0.22225879  0.50046816
   0.44448138  0.38896229  0.50046256
   0.44445367  0.55562905  0.50034712
   0.44446913  0.72231535  0.50033650
   0.44448481  0.88897323  0.50030209
   0.61113104  0.05563958  0.50030393
   0.61112281  0.22229695  0.50033552
   0.61112531  0.38896561  0.50038135
   0.61114148  0.55565491  0.50032283
   0.61114290  0.72233378  0.50029653
   0.61114521  0.88898251  0.50028154
   0.77779528  0.05563911  0.50027062
   0.77779737  0.22229965  0.50034197
   0.77777266  0.38894480  0.50026874
   0.77780490  0.55563320  0.50026683
   0.77783161  0.72230668  0.50032334
   0.77779366  0.88897720  0.50029319
   0.94443626  0.05563940  0.50032273
   0.94445379  0.22232395  0.50027976
   0.94446307  0.38897156  0.50027729
   0.94445309  0.55562992  0.50029505
   0.94446477  0.72230176  0.50027358
   0.94448452  0.88900704  0.50026094
   0.05552330  0.11115771  0.50033406
   0.05554796  0.27783996  0.50029889
   0.05557052  0.44450027  0.50031163
   0.05556354  0.61117651  0.50028272
   0.05557002  0.77785397  0.50027191
   0.05556858  0.94453133  0.50024175
   0.22221814  0.11115683  0.50044310
   0.22223406  0.27783550  0.50036220
   0.22225143  0.44452290  0.50042162
   0.22223367  0.61118820  0.50021979
   0.22224378  0.77785704  0.50026608
   0.22223739  0.94453415  0.50027956
   0.38891011  0.11115929  0.50037280
   0.38891621  0.27784103  0.50059351
   0.38891179  0.44452348  0.50040165
   0.38890410  0.61119070  0.50035789
   0.38891675  0.77786049  0.50031614
   0.38891952  0.94451555  0.50030683
   0.55559554  0.11119059  0.50029769
   0.55557424  0.27784421  0.50041230
   0.55558814  0.44453935  0.50042521
   0.55558001  0.61121421  0.50029351
   0.55559285  0.77789362  0.50029805
   0.55561144  0.94453682  0.50027183
   0.72224394  0.11118818  0.50032887
   0.72223011  0.27783357  0.50031897
   0.72224339  0.44452277  0.50024765
   0.72225829  0.61119515  0.50030018
   0.72226239  0.77787024  0.50031298
   0.72223955  0.94452666  0.50025351
   0.88888185  0.11120289  0.50025783
   0.88889088  0.27785451  0.50029961
   0.88888912  0.44450729  0.50025292
   0.88889232  0.61118125  0.50028219
   0.88892679  0.77788507  0.50026324
   0.88888239  0.94453093  0.50031979
   0.37703854  0.29871337  0.65870630
   0.36227863  0.26677393  0.61739277
   0.31432863  0.52249268  0.60926777
   0.46699950  0.38497626  0.66334890
   0.37712394  0.22688101  0.68188051
   0.30081841  0.31362100  0.67029750
   0.43801920  0.25721848  0.60259195
   0.27174429  0.18592519  0.60964139
   0.40205184  0.57746963  0.60605309
   0.22651405  0.46717739  0.61234580
 
 position of ions in cartesian coordinates  (Angst):
   1.25660017 -0.72434797 17.56957645
   2.51253265  1.45123315 17.56795761
   3.76890102  3.62653428 17.57059183
   5.02491555  5.80241542 17.56661279
   6.28115025  7.97791287 17.56709733
   7.53755970 10.15376993 17.56658369
   2.51288502 -2.90006695 17.57031270
   3.76864562 -0.72493505 17.57334073
   5.02489913  1.45093176 17.57010030
   6.28123911  3.62710978 17.56739837
   7.53731162  5.80263931 17.56671089
   8.79329671  7.97837815 17.56757728
   3.76902786 -5.07603606 17.56845277
   5.02471491 -2.90048080 17.57377135
   6.28128993 -0.72473203 17.57357500
   7.53717346  1.45125515 17.56952114
   8.79352968  3.62693406 17.56914827
  10.04967330  5.80223901 17.56793996
   5.02515011 -7.25124445 17.56800452
   6.28110975 -5.07563408 17.56911381
   7.53723529 -2.90001637 17.57072319
   8.79361939 -0.72430767 17.56866821
  10.04981380  1.45145753 17.56774487
  11.30578766  3.62681764 17.56721841
   6.28121999 -9.42684326 17.56683508
   7.53728126 -7.25132612 17.56934033
   8.79302458 -5.07566016 17.56676905
  10.04952300 -2.90017290 17.56670167
  11.30586729 -0.72480829 17.56868606
  12.56170196  1.45136170 17.56762729
   7.53712027-11.60212840 17.56866475
   8.79347879 -9.42649955 17.56715580
  10.04949682 -7.25124512 17.56706915
  11.30545067 -5.07559889 17.56769273
  12.56166938 -2.90005940 17.56693896
  13.81820098 -0.72418892 17.56649501
   1.25619975  0.72623741 17.56906263
   2.51259475  2.90174332 17.56782766
   3.76880859  5.07699016 17.56827499
   5.02491977  7.25283071 17.56725965
   6.28114161  9.42851117 17.56688005
   7.53730303 11.60429396 17.56582114
   2.51249716 -1.44976619 17.57289143
   3.76879923  0.72580706 17.57005067
   5.02517808  2.90147529 17.57213734
   6.28112563  5.07731376 17.56504993
   7.53730983  7.25283442 17.56667550
   8.79343211  9.42867858 17.56714902
   3.76879803 -3.62568864 17.57042284
   5.02504933 -1.44994721 17.57817311
   6.28122664  0.72594092 17.57143605
   7.53726449  2.90167276 17.56989944
   8.79347509  5.07717283 17.56843325
  10.04950012  7.25260946 17.56810658
   5.02526704 -5.80114941 17.56778532
   6.28109992 -3.62541731 17.57180993
   7.53751093 -1.44960268 17.57226335
   8.79360306  0.72623461 17.56763879
  10.04988753  2.90185786 17.56779821
  11.30594244  5.07693317 17.56687757
   6.28120290 -7.97656676 17.56888030
   7.53702996 -5.80103960 17.56853256
   8.79339157 -3.62529448 17.56602819
  10.04963858 -1.44979003 17.56787279
  11.30582471  0.72589077 17.56832252
  12.56166698  2.90167949 17.56623405
   7.53718875-10.15162364 17.56638585
   8.79323504 -7.97631351 17.56785277
  10.04920880 -5.80084759 17.56621335
  11.30537955 -3.62516982 17.56724127
  12.56201102 -1.44951036 17.56657580
  13.81761127  0.72642198 17.56856150
   5.09283806 -1.02243686 23.13025065
   4.74088616 -1.24669410 21.67953991
   6.30674565  2.71732065 21.39423341
   6.42095790 -1.07071055 23.29327401
   4.55211355 -1.96123308 23.94400519
   4.63075339  0.16712182 23.53727183
   5.23969359 -2.36012673 21.15981410
   3.44924892 -1.12026074 21.40735266
   7.38221254  2.28985927 21.28135100
   5.22804026  3.14155820 21.50231712
 


--------------------------------------------------------------------------------------------------------


 k-point  1 :   0.0000 0.0000 0.0000  plane waves:  202395
 k-point  2 :   0.3333 0.0000 0.0000  plane waves:  202358
 k-point  3 :   0.0000 0.3333 0.0000  plane waves:  202358
 k-point  4 :   0.3333 0.3333 0.0000  plane waves:  202335
 k-point  5 :  -0.3333 0.3333 0.0000  plane waves:  202358

 maximum and minimum number of plane-waves per node :    202395   202335

 maximum number of plane-waves:    202395
 maximum index in each direction: 
   IXMAX=   29   IYMAX=   28   IZMAX=   67
   IXMIN=  -29   IYMIN=  -29   IZMIN=  -67


 serial   3D FFT for wavefunctions
 parallel 3D FFT for charge:
    minimum data exchange during FFTs selected (reduces bandwidth)


 total amount of memory used by VASP MPI-rank0  1200922. kBytes
=======================================================================

   base      :      30000. kBytes
   nonlr-proj:      37384. kBytes
   fftplans  :      59250. kBytes
   grid      :     716351. kBytes
   one-center:        503. kBytes
   wavefun   :     357434. kBytes
 
     INWAV:  cpu time   32.6206: real time   34.6725
 Broyden mixing: mesh for mixing (old mesh)
   NGX = 57   NGY = 57   NGZ =135
  (NGX  =240   NGY  =240   NGZ  =540)
  gives a total of 438615 points

 charge density for first step will be calculated from the start-wavefunctions


--------------------------------------------------------------------------------------------------------


 Maximum index for non-local projection operator         6372
 Maximum index for augmentation-charges          434 (set IRDMAX)


--------------------------------------------------------------------------------------------------------


 initial charge from wavefunction
 First call to EWALD:  gamma=   0.093
 Maximum number of real-space cells 4x 4x 2
 Maximum number of reciprocal cells 2x 2x 5

    FEWALD:  cpu time    0.0038: real time    0.0140


--------------------------------------- Iteration      1(   1)  ---------------------------------------


    POTLOK:  cpu time   82.9962: real time   83.0303
    SETDIJ:  cpu time    0.7169: real time    0.5211
     EDDAV:  cpu time  243.4172: real time  173.6984
       DOS:  cpu time    0.2010: real time    0.1225
    CHARGE:  cpu time   33.1792: real time   31.7649
    MIXING:  cpu time    5.5503: real time    5.5648
    --------------------------------------------
      LOOP:  cpu time  366.0610: real time  294.7021

 eigenvalue-minimisations  :  5664
 total energy-change (2. order) :-0.7898701E+03  (-0.5717972E+02)
 number of electron     346.9999980 magnetization       0.9999999
 augmentation part       16.3715644 magnetization       0.1104333

 Broyden mixing:
  rms(total) = 0.26400E+01    rms(broyden)= 0.26384E+01
  rms(prec ) = 0.26726E+01
  weight for this iteration     100.00

 Free energy of the ion-electron system (eV)
  ---------------------------------------------------
  alpha Z        PSCENC =        92.14382556
  Ewald energy   TEWEN  =    112119.42351070
  -Hartree energ DENC   =   -126089.94665249
  -exchange      EXHF   =         0.00000000
  -V(xc)+E(xc)   XCENC  =      1588.48161418
  PAW double counting   =     43743.53984302   -43906.68850729
  entropy T*S    EENTRO =        -0.00000000
  eigenvalues    EBANDS =     -5029.87354841
  atomic energy  EATOM  =     16689.68470767
  Solvation  Ediel_sol  =         3.36508429
  ---------------------------------------------------
  free energy    TOTEN  =      -789.87012277 eV

  energy without entropy =     -789.87012277  energy(sigma->0) =     -789.87012277


--------------------------------------------------------------------------------------------------------




--------------------------------------- Iteration      1(   2)  ---------------------------------------


    POTLOK:  cpu time   78.7902: real time   78.9511
    SETDIJ:  cpu time    0.6884: real time    0.4905
    EDDIAG:  cpu time   48.8004: real time   38.5849
  RMM-DIIS:  cpu time  278.8219: real time  218.9025
    ORTHCH:  cpu time    2.1284: real time    1.0705
       DOS:  cpu time    0.0035: real time    0.0018
    CHARGE:  cpu time   33.2991: real time   31.7747
    MIXING:  cpu time    0.1173: real time    0.1146
    --------------------------------------------
      LOOP:  cpu time  442.6495: real time  369.8907

 eigenvalue-minimisations  :  5280
 total energy-change (2. order) : 0.6435891E+01  (-0.3080170E+01)
 number of electron     346.9999980 magnetization       1.0000000
 augmentation part       16.2350905 magnetization       0.1126479

 Broyden mixing:
  rms(total) = 0.17232E+01    rms(broyden)= 0.17232E+01
  rms(prec ) = 0.17442E+01
  weight for this iteration     100.00

 eigenvalues of (default mixing * dielectric matrix)
  average eigenvalue GAMMA=   1.8988
  1.8988

 Free energy of the ion-electron system (eV)
  ---------------------------------------------------
  alpha Z        PSCENC =        92.14382556
  Ewald energy   TEWEN  =    112119.42351070
  -Hartree energ DENC   =   -126138.35332664
  -exchange      EXHF   =         0.00000000
  -V(xc)+E(xc)   XCENC  =      1587.74458945
  PAW double counting   =     42461.66617148   -42627.50145103
  entropy T*S    EENTRO =        -0.00000000
  eigenvalues    EBANDS =     -4989.73376437
  atomic energy  EATOM  =     16689.68470767
  Solvation  Ediel_sol  =        21.49150528
  ---------------------------------------------------
  free energy    TOTEN  =      -783.43423190 eV

  energy without entropy =     -783.43423190  energy(sigma->0) =     -783.43423190


--------------------------------------------------------------------------------------------------------




--------------------------------------- Iteration      1(   3)  ---------------------------------------


    POTLOK:  cpu time   79.4897: real time   79.6426
    SETDIJ:  cpu time    0.6891: real time    0.4910
    EDDIAG:  cpu time   48.7669: real time   38.5507
  RMM-DIIS:  cpu time  278.4165: real time  218.8561
    ORTHCH:  cpu time    2.1214: real time    1.0670
       DOS:  cpu time    0.0025: real time    0.0013
    CHARGE:  cpu time   33.2964: real time   31.7489
    MIXING:  cpu time    0.1106: real time    0.1063
    --------------------------------------------
      LOOP:  cpu time  442.8933: real time  370.4639

 eigenvalue-minimisations  :  5280
 total energy-change (2. order) : 0.4033077E+01  (-0.1486921E+01)
 number of electron     346.9999980 magnetization       1.0000000
 augmentation part       16.0038254 magnetization       0.1263383

 Broyden mixing:
  rms(total) = 0.49571E+00    rms(broyden)= 0.49547E+00
  rms(prec ) = 0.50534E+00
  weight for this iteration     100.00

 eigenvalues of (default mixing * dielectric matrix)
  average eigenvalue GAMMA=   1.5402
  0.6843  2.3962

 Free energy of the ion-electron system (eV)
  ---------------------------------------------------
  alpha Z        PSCENC =        92.14382556
  Ewald energy   TEWEN  =    112119.42351070
  -Hartree energ DENC   =   -126238.87946358
  -exchange      EXHF   =         0.00000000
  -V(xc)+E(xc)   XCENC  =      1591.28397364
  PAW double counting   =     40889.70376904   -41057.65702556
  entropy T*S    EENTRO =        -0.00000000
  eigenvalues    EBANDS =     -4949.92287115
  atomic energy  EATOM  =     16689.68470767
  Solvation  Ediel_sol  =        84.81841835
  ---------------------------------------------------
  free energy    TOTEN  =      -779.40115532 eV

  energy without entropy =     -779.40115532  energy(sigma->0) =     -779.40115532


--------------------------------------------------------------------------------------------------------




--------------------------------------- Iteration      1(   4)  ---------------------------------------


    POTLOK:  cpu time   72.4781: real time   72.6136
    SETDIJ:  cpu time    0.6874: real time    0.4893
    EDDIAG:  cpu time   48.7869: real time   38.5595
  RMM-DIIS:  cpu time  279.1437: real time  219.1878
    ORTHCH:  cpu time    2.1175: real time    1.0645
       DOS:  cpu time    0.0040: real time    0.0020
    CHARGE:  cpu time   33.2885: real time   31.7655
    MIXING:  cpu time    0.1139: real time    0.1082
    --------------------------------------------
      LOOP:  cpu time  436.6201: real time  363.7903

 eigenvalue-minimisations  :  5280
 total energy-change (2. order) : 0.1232949E+00  (-0.5562498E-01)
 number of electron     346.9999980 magnetization       1.0000000
 augmentation part       16.0488916 magnetization       0.1222845

 Broyden mixing:
  rms(total) = 0.23100E+00    rms(broyden)= 0.23100E+00
  rms(prec ) = 0.24217E+00
  weight for this iteration     100.00

 eigenvalues of (default mixing * dielectric matrix)
  average eigenvalue GAMMA=   1.3043
  2.2655  0.9364  0.7110

 Free energy of the ion-electron system (eV)
  ---------------------------------------------------
  alpha Z        PSCENC =        92.14382556
  Ewald energy   TEWEN  =    112119.42351070
  -Hartree energ DENC   =   -126246.29255506
  -exchange      EXHF   =         0.00000000
  -V(xc)+E(xc)   XCENC  =      1590.17788299
  PAW double counting   =     40788.34339339   -40955.83635357
  entropy T*S    EENTRO =        -0.00000000
  eigenvalues    EBANDS =     -4960.67831001
  atomic energy  EATOM  =     16689.68470767
  Solvation  Ediel_sol  =       103.75603788
  ---------------------------------------------------
  free energy    TOTEN  =      -779.27786045 eV

  energy without entropy =     -779.27786045  energy(sigma->0) =     -779.27786045


--------------------------------------------------------------------------------------------------------




--------------------------------------- Iteration      1(   5)  ---------------------------------------


    POTLOK:  cpu time   72.6252: real time   72.7564
    SETDIJ:  cpu time    0.6877: real time    0.4896
    EDDIAG:  cpu time   48.8028: real time   38.5640
  RMM-DIIS:  cpu time  279.3833: real time  219.4202
    ORTHCH:  cpu time    2.1188: real time    1.0650
       DOS:  cpu time    0.0033: real time    0.0017
    CHARGE:  cpu time   33.3393: real time   31.7861
    MIXING:  cpu time    0.1143: real time    0.1096
    --------------------------------------------
      LOOP:  cpu time  437.0748: real time  364.1925

 eigenvalue-minimisations  :  5280
 total energy-change (2. order) :-0.2380295E-01  (-0.3501853E-01)
 number of electron     346.9999980 magnetization       1.0000000
 augmentation part       16.1008795 magnetization       0.1174374

 Broyden mixing:
  rms(total) = 0.11546E+00    rms(broyden)= 0.11543E+00
  rms(prec ) = 0.12926E+00
  weight for this iteration     100.00

 eigenvalues of (default mixing * dielectric matrix)
  average eigenvalue GAMMA=   1.3185
  2.3914  1.1228  1.1228  0.6369

 Free energy of the ion-electron system (eV)
  ---------------------------------------------------
  alpha Z        PSCENC =        92.14382556
  Ewald energy   TEWEN  =    112119.42351070
  -Hartree energ DENC   =   -126254.87918099
  -exchange      EXHF   =         0.00000000
  -V(xc)+E(xc)   XCENC  =      1589.79392924
  PAW double counting   =     40779.99323789   -40947.09334706
  entropy T*S    EENTRO =        -0.00000000
  eigenvalues    EBANDS =     -4970.05386280
  atomic energy  EATOM  =     16689.68470767
  Solvation  Ediel_sol  =       121.68551637
  ---------------------------------------------------
  free energy    TOTEN  =      -779.30166340 eV

  energy without entropy =     -779.30166340  energy(sigma->0) =     -779.30166340


--------------------------------------------------------------------------------------------------------




--------------------------------------- Iteration      1(   6)  ---------------------------------------


    POTLOK:  cpu time   72.0142: real time   72.1492
    SETDIJ:  cpu time    0.6896: real time    0.4914
    EDDIAG:  cpu time   48.8212: real time   38.5936
  RMM-DIIS:  cpu time  279.2435: real time  219.2822
    ORTHCH:  cpu time    2.1262: real time    1.0692
       DOS:  cpu time    0.0036: real time    0.0018
    CHARGE:  cpu time   33.3212: real time   31.7815
    MIXING:  cpu time    0.1224: real time    0.1177
    --------------------------------------------
      LOOP:  cpu time  436.3420: real time  363.4867

 eigenvalue-minimisations  :  5280
 total energy-change (2. order) :-0.7339116E-01  (-0.5203170E-02)
 number of electron     346.9999980 magnetization       1.0000000
 augmentation part       16.1030744 magnetization       0.1171533

 Broyden mixing:
  rms(total) = 0.61810E-01    rms(broyden)= 0.61805E-01
  rms(prec ) = 0.79382E-01
  weight for this iteration     100.00

 eigenvalues of (default mixing * dielectric matrix)
  average eigenvalue GAMMA=   1.4159
  2.4843  1.6844  1.3048  0.9720  0.6343

 Free energy of the ion-electron system (eV)
  ---------------------------------------------------
  alpha Z        PSCENC =        92.14382556
  Ewald energy   TEWEN  =    112119.42351070
  -Hartree energ DENC   =   -126273.52307130
  -exchange      EXHF   =         0.00000000
  -V(xc)+E(xc)   XCENC  =      1589.87407139
  PAW double counting   =     40734.98484781   -40902.03607183
  entropy T*S    EENTRO =        -0.00000000
  eigenvalues    EBANDS =     -4972.18206613
  atomic energy  EATOM  =     16689.68470767
  Solvation  Ediel_sol  =       142.25519156
  ---------------------------------------------------
  free energy    TOTEN  =      -779.37505456 eV

  energy without entropy =     -779.37505456  energy(sigma->0) =     -779.37505456


--------------------------------------------------------------------------------------------------------




--------------------------------------- Iteration      1(   7)  ---------------------------------------


    POTLOK:  cpu time   72.5833: real time   72.7276
    SETDIJ:  cpu time    0.6894: real time    0.4913
    EDDIAG:  cpu time   48.8008: real time   38.5698
  RMM-DIIS:  cpu time  279.6820: real time  219.5995
    ORTHCH:  cpu time    2.1200: real time    1.0659
       DOS:  cpu time    0.0038: real time    0.0019
    CHARGE:  cpu time   33.2343: real time   31.7047
    MIXING:  cpu time    0.1178: real time    0.1133
    --------------------------------------------
      LOOP:  cpu time  437.2314: real time  364.2740

 eigenvalue-minimisations  :  5280
 total energy-change (2. order) :-0.1064532E+00  (-0.7624501E-02)
 number of electron     346.9999980 magnetization       1.0000000
 augmentation part       16.0961490 magnetization       0.1186350

 Broyden mixing:
  rms(total) = 0.34647E-01    rms(broyden)= 0.34644E-01
  rms(prec ) = 0.51552E-01
  weight for this iteration     100.00

 eigenvalues of (default mixing * dielectric matrix)
  average eigenvalue GAMMA=   1.3972
  2.6066  2.1533  0.9958  0.9958  0.9988  0.6329

 Free energy of the ion-electron system (eV)
  ---------------------------------------------------
  alpha Z        PSCENC =        92.14382556
  Ewald energy   TEWEN  =    112119.42351070
  -Hartree energ DENC   =   -126304.64354130
  -exchange      EXHF   =         0.00000000
  -V(xc)+E(xc)   XCENC  =      1589.87120273
  PAW double counting   =     40712.05601952   -40879.07505594
  entropy T*S    EENTRO =        -0.00000000
  eigenvalues    EBANDS =     -4974.06333962
  atomic energy  EATOM  =     16689.68470767
  Solvation  Ediel_sol  =       175.12116288
  ---------------------------------------------------
  free energy    TOTEN  =      -779.48150780 eV

  energy without entropy =     -779.48150780  energy(sigma->0) =     -779.48150780


--------------------------------------------------------------------------------------------------------




--------------------------------------- Iteration      1(   8)  ---------------------------------------


    POTLOK:  cpu time   70.5933: real time   70.7351
    SETDIJ:  cpu time    0.6862: real time    0.4880
    EDDIAG:  cpu time   48.7282: real time   38.5027
  RMM-DIIS:  cpu time  279.8826: real time  220.1041
    ORTHCH:  cpu time    2.0797: real time    1.0459
       DOS:  cpu time    0.0025: real time    0.0012
    CHARGE:  cpu time   33.2668: real time   31.7297
    MIXING:  cpu time    0.1210: real time    0.1163
    --------------------------------------------
      LOOP:  cpu time  435.3603: real time  362.7231

 eigenvalue-minimisations  :  5281
 total energy-change (2. order) :-0.6345906E-01  (-0.3408945E-02)
 number of electron     346.9999980 magnetization       1.0000000
 augmentation part       16.1010257 magnetization       0.1180505

 Broyden mixing:
  rms(total) = 0.24604E-01    rms(broyden)= 0.24601E-01
  rms(prec ) = 0.39270E-01
  weight for this iteration     100.00

 eigenvalues of (default mixing * dielectric matrix)
  average eigenvalue GAMMA=   1.4667
  2.8068  2.3252  1.3433  1.3433  1.0598  0.7561  0.6329

 Free energy of the ion-electron system (eV)
  ---------------------------------------------------
  alpha Z        PSCENC =        92.14382556
  Ewald energy   TEWEN  =    112119.42351070
  -Hartree energ DENC   =   -126325.60474817
  -exchange      EXHF   =         0.00000000
  -V(xc)+E(xc)   XCENC  =      1589.76824725
  PAW double counting   =     40708.06173077   -40875.02101845
  entropy T*S    EENTRO =        -0.00000000
  eigenvalues    EBANDS =     -4975.76167552
  atomic energy  EATOM  =     16689.68470767
  Solvation  Ediel_sol  =       197.76045333
  ---------------------------------------------------
  free energy    TOTEN  =      -779.54496686 eV

  energy without entropy =     -779.54496686  energy(sigma->0) =     -779.54496686


--------------------------------------------------------------------------------------------------------




--------------------------------------- Iteration      1(   9)  ---------------------------------------


    POTLOK:  cpu time   72.5623: real time   72.6995
    SETDIJ:  cpu time    0.6894: real time    0.4913
    EDDIAG:  cpu time   48.8022: real time   38.5725
  RMM-DIIS:  cpu time  279.4347: real time  219.4992
    ORTHCH:  cpu time    2.1241: real time    1.0677
       DOS:  cpu time    0.0036: real time    0.0018
    CHARGE:  cpu time   33.2882: real time   31.7640
    MIXING:  cpu time    0.1228: real time    0.1183
    --------------------------------------------
      LOOP:  cpu time  437.0272: real time  364.2144

 eigenvalue-minimisations  :  5280
 total energy-change (2. order) :-0.8634084E-01  (-0.5409565E-02)
 number of electron     346.9999980 magnetization       1.0000000
 augmentation part       16.1039897 magnetization       0.1181307

 Broyden mixing:
  rms(total) = 0.22034E-01    rms(broyden)= 0.22031E-01
  rms(prec ) = 0.27869E-01
  weight for this iteration     100.00

 eigenvalues of (default mixing * dielectric matrix)
  average eigenvalue GAMMA=   1.6330
  4.1382  2.5161  2.0086  1.0205  1.0205  1.0331  0.6337  0.6936

 Free energy of the ion-electron system (eV)
  ---------------------------------------------------
  alpha Z        PSCENC =        92.14382556
  Ewald energy   TEWEN  =    112119.42351070
  -Hartree energ DENC   =   -126366.60304272
  -exchange      EXHF   =         0.00000000
  -V(xc)+E(xc)   XCENC  =      1589.70285231
  PAW double counting   =     40706.49784513   -40873.43463700
  entropy T*S    EENTRO =        -0.00000000
  eigenvalues    EBANDS =     -4976.42388502
  atomic energy  EATOM  =     16689.68470767
  Solvation  Ediel_sol  =       239.37751567
  ---------------------------------------------------
  free energy    TOTEN  =      -779.63130770 eV

  energy without entropy =     -779.63130770  energy(sigma->0) =     -779.63130770


--------------------------------------------------------------------------------------------------------




--------------------------------------- Iteration      1(  10)  ---------------------------------------


    POTLOK:  cpu time   70.6154: real time   70.7431
    SETDIJ:  cpu time    0.6865: real time    0.4883
    EDDIAG:  cpu time   48.7853: real time   38.5566
  RMM-DIIS:  cpu time  279.2637: real time  219.2020
    ORTHCH:  cpu time    2.1224: real time    1.0670
       DOS:  cpu time    0.0036: real time    0.0018
    CHARGE:  cpu time   33.2484: real time   31.7222
    MIXING:  cpu time    0.1277: real time    0.1219
    --------------------------------------------
      LOOP:  cpu time  434.8529: real time  361.9029

 eigenvalue-minimisations  :  5281
 total energy-change (2. order) :-0.3902825E-01  (-0.2482517E-02)
 number of electron     346.9999980 magnetization       1.0000000
 augmentation part       16.0976410 magnetization       0.1188925

 Broyden mixing:
  rms(total) = 0.94534E-02    rms(broyden)= 0.94480E-02
  rms(prec ) = 0.13148E-01
  weight for this iteration     100.00

 eigenvalues of (default mixing * dielectric matrix)
  average eigenvalue GAMMA=   1.7348
  5.5894  2.5317  1.9940  1.1290  1.1290  1.1392  0.8109  0.6349  0.6552

 Free energy of the ion-electron system (eV)
  ---------------------------------------------------
  alpha Z        PSCENC =        92.14382556
  Ewald energy   TEWEN  =    112119.42351070
  -Hartree energ DENC   =   -126393.41071151
  -exchange      EXHF   =         0.00000000
  -V(xc)+E(xc)   XCENC  =      1589.74669924
  PAW double counting   =     40705.20448929   -40872.17803347
  entropy T*S    EENTRO =        -0.00000000
  eigenvalues    EBANDS =     -4975.23634645
  atomic energy  EATOM  =     16689.68470767
  Solvation  Ediel_sol  =       264.95152300
  ---------------------------------------------------
  free energy    TOTEN  =      -779.67033595 eV

  energy without entropy =     -779.67033595  energy(sigma->0) =     -779.67033595


--------------------------------------------------------------------------------------------------------




--------------------------------------- Iteration      1(  11)  ---------------------------------------


    POTLOK:  cpu time   68.5116: real time   68.6348
    SETDIJ:  cpu time    0.6890: real time    0.4909
    EDDIAG:  cpu time   48.7634: real time   38.5466
  RMM-DIIS:  cpu time  279.2137: real time  219.5531
    ORTHCH:  cpu time    2.1142: real time    1.0637
       DOS:  cpu time    0.0031: real time    0.0016
    CHARGE:  cpu time   33.3116: real time   31.7540
    MIXING:  cpu time    0.1390: real time    0.1328
    --------------------------------------------
      LOOP:  cpu time  432.7456: real time  360.1773

 eigenvalue-minimisations  :  5283
 total energy-change (2. order) :-0.1756792E-01  (-0.6667943E-03)
 number of electron     346.9999980 magnetization       1.0000000
 augmentation part       16.0952863 magnetization       0.1189038

 Broyden mixing:
  rms(total) = 0.84339E-02    rms(broyden)= 0.84317E-02
  rms(prec ) = 0.10432E-01
  weight for this iteration     100.00

 eigenvalues of (default mixing * dielectric matrix)
  average eigenvalue GAMMA=   1.8719
  7.0299  2.5176  2.0400  2.0400  1.0501  1.0501  0.9869  0.7369  0.6382  0.6293

 Free energy of the ion-electron system (eV)
  ---------------------------------------------------
  alpha Z        PSCENC =        92.14382556
  Ewald energy   TEWEN  =    112119.42351070
  -Hartree energ DENC   =   -126406.22596773
  -exchange      EXHF   =         0.00000000
  -V(xc)+E(xc)   XCENC  =      1589.74121419
  PAW double counting   =     40703.59800644   -40870.57480589
  entropy T*S    EENTRO =        -0.00000000
  eigenvalues    EBANDS =     -4974.82979754
  atomic energy  EATOM  =     16689.68470767
  Solvation  Ediel_sol  =       277.35140272
  ---------------------------------------------------
  free energy    TOTEN  =      -779.68790387 eV

  energy without entropy =     -779.68790387  energy(sigma->0) =     -779.68790387


--------------------------------------------------------------------------------------------------------




--------------------------------------- Iteration      1(  12)  ---------------------------------------


    POTLOK:  cpu time   67.0374: real time   67.1597
    SETDIJ:  cpu time    0.6890: real time    0.4908
    EDDIAG:  cpu time   48.8157: real time   38.5906
  RMM-DIIS:  cpu time  279.1158: real time  219.1965
    ORTHCH:  cpu time    2.1179: real time    1.0648
       DOS:  cpu time    0.0023: real time    0.0012
    CHARGE:  cpu time   33.2890: real time   31.7507
    MIXING:  cpu time    0.1394: real time    0.1397
    --------------------------------------------
      LOOP:  cpu time  431.2066: real time  358.3940

 eigenvalue-minimisations  :  5280
 total energy-change (2. order) :-0.1117309E-01  (-0.2617658E-03)
 number of electron     346.9999980 magnetization       1.0000000
 augmentation part       16.0964719 magnetization       0.1187487

 Broyden mixing:
  rms(total) = 0.41402E-02    rms(broyden)= 0.41392E-02
  rms(prec ) = 0.58280E-02
  weight for this iteration     100.00

 eigenvalues of (default mixing * dielectric matrix)
  average eigenvalue GAMMA=   1.8867
  7.6810  2.6300  2.4219  1.8390  1.0847  1.0847  1.1288  0.9010  0.7266  0.6356
  0.6206

 Free energy of the ion-electron system (eV)
  ---------------------------------------------------
  alpha Z        PSCENC =        92.14382556
  Ewald energy   TEWEN  =    112119.42351070
  -Hartree energ DENC   =   -126414.04313152
  -exchange      EXHF   =         0.00000000
  -V(xc)+E(xc)   XCENC  =      1589.72397768
  PAW double counting   =     40702.38980872   -40869.35399837
  entropy T*S    EENTRO =        -0.00000000
  eigenvalues    EBANDS =     -4974.84552269
  atomic energy  EATOM  =     16689.68470767
  Solvation  Ediel_sol  =       285.17774527
  ---------------------------------------------------
  free energy    TOTEN  =      -779.69907696 eV

  energy without entropy =     -779.69907696  energy(sigma->0) =     -779.69907696


--------------------------------------------------------------------------------------------------------




--------------------------------------- Iteration      1(  13)  ---------------------------------------


    POTLOK:  cpu time   67.4854: real time   67.6015
    SETDIJ:  cpu time    0.6884: real time    0.4903
    EDDIAG:  cpu time   48.7921: real time   38.5645
  RMM-DIIS:  cpu time  279.1384: real time  219.3344
    ORTHCH:  cpu time    2.1236: real time    1.0676
       DOS:  cpu time    0.0022: real time    0.0011
    CHARGE:  cpu time   33.2609: real time   31.7368
    MIXING:  cpu time    0.1382: real time    0.1333
    --------------------------------------------
      LOOP:  cpu time  431.6292: real time  358.9294

 eigenvalue-minimisations  :  5280
 total energy-change (2. order) :-0.7153679E-02  (-0.1161873E-03)
 number of electron     346.9999980 magnetization       1.0000000
 augmentation part       16.0969670 magnetization       0.1187348

 Broyden mixing:
  rms(total) = 0.31441E-02    rms(broyden)= 0.31435E-02
  rms(prec ) = 0.41783E-02
  weight for this iteration     100.00

 eigenvalues of (default mixing * dielectric matrix)
  average eigenvalue GAMMA=   1.9763
  8.3446  3.3146  2.4977  1.8464  1.8464  1.0646  1.0646  0.9646  0.8220  0.6995
  0.6339  0.6162

 Free energy of the ion-electron system (eV)
  ---------------------------------------------------
  alpha Z        PSCENC =        92.14382556
  Ewald energy   TEWEN  =    112119.42351070
  -Hartree energ DENC   =   -126418.55307269
  -exchange      EXHF   =         0.00000000
  -V(xc)+E(xc)   XCENC  =      1589.72720093
  PAW double counting   =     40701.87030244   -40868.83248005
  entropy T*S    EENTRO =        -0.00000000
  eigenvalues    EBANDS =     -4974.69503347
  atomic energy  EATOM  =     16689.68470767
  Solvation  Ediel_sol  =       289.52480826
  ---------------------------------------------------
  free energy    TOTEN  =      -779.70623064 eV

  energy without entropy =     -779.70623064  energy(sigma->0) =     -779.70623064


--------------------------------------------------------------------------------------------------------




--------------------------------------- Iteration      1(  14)  ---------------------------------------


    POTLOK:  cpu time   65.8363: real time   65.9543
    SETDIJ:  cpu time    0.6861: real time    0.4880
    EDDIAG:  cpu time   48.7945: real time   38.5622
  RMM-DIIS:  cpu time  279.2773: real time  219.1305
    ORTHCH:  cpu time    2.1193: real time    1.0699
       DOS:  cpu time    0.0021: real time    0.0011
    CHARGE:  cpu time   33.1853: real time   31.6533
    MIXING:  cpu time    0.1418: real time    0.1371
    --------------------------------------------
      LOOP:  cpu time  430.0427: real time  356.9964

 eigenvalue-minimisations  :  5280
 total energy-change (2. order) :-0.5673215E-02  (-0.7807131E-04)
 number of electron     346.9999980 magnetization       1.0000000
 augmentation part       16.0964340 magnetization       0.1187484

 Broyden mixing:
  rms(total) = 0.17193E-02    rms(broyden)= 0.17190E-02
  rms(prec ) = 0.23036E-02
  weight for this iteration     100.00

 eigenvalues of (default mixing * dielectric matrix)
  average eigenvalue GAMMA=   1.9992
  8.8298  4.0025  2.5346  2.0352  1.7024  1.0751  1.0751  1.0087  1.0087  0.7928
  0.6756  0.6311  0.6183

 Free energy of the ion-electron system (eV)
  ---------------------------------------------------
  alpha Z        PSCENC =        92.14382556
  Ewald energy   TEWEN  =    112119.42351070
  -Hartree energ DENC   =   -126422.56999995
  -exchange      EXHF   =         0.00000000
  -V(xc)+E(xc)   XCENC  =      1589.73766083
  PAW double counting   =     40700.76224113   -40867.72486361
  entropy T*S    EENTRO =        -0.00000000
  eigenvalues    EBANDS =     -4974.47308731
  atomic energy  EATOM  =     16689.68470767
  Solvation  Ediel_sol  =       293.30410111
  ---------------------------------------------------
  free energy    TOTEN  =      -779.71190385 eV

  energy without entropy =     -779.71190385  energy(sigma->0) =     -779.71190385


--------------------------------------------------------------------------------------------------------




--------------------------------------- Iteration      1(  15)  ---------------------------------------


    POTLOK:  cpu time   63.0686: real time   63.1829
    SETDIJ:  cpu time    0.6873: real time    0.4893
    EDDIAG:  cpu time   48.7503: real time   38.5312
  RMM-DIIS:  cpu time  246.1829: real time  194.4868
    ORTHCH:  cpu time    2.0966: real time    1.0551
       DOS:  cpu time    0.0031: real time    0.0016
    CHARGE:  cpu time   33.3318: real time   31.8028
    MIXING:  cpu time    0.1460: real time    0.1420
    --------------------------------------------
      LOOP:  cpu time  394.2667: real time  329.6919

 eigenvalue-minimisations  :  4392
 total energy-change (2. order) :-0.2071677E-02  (-0.1724915E-04)
 number of electron     346.9999980 magnetization       1.0000000
 augmentation part       16.0962423 magnetization       0.1187548

 Broyden mixing:
  rms(total) = 0.11009E-02    rms(broyden)= 0.11007E-02
  rms(prec ) = 0.15486E-02
  weight for this iteration     100.00

 eigenvalues of (default mixing * dielectric matrix)
  average eigenvalue GAMMA=   2.0476
  9.1594  4.5672  2.5604  2.2496  1.7216  1.7216  1.0737  1.0737  0.9300  0.9300
  0.7608  0.6700  0.6287  0.6197

 Free energy of the ion-electron system (eV)
  ---------------------------------------------------
  alpha Z        PSCENC =        92.14382556
  Ewald energy   TEWEN  =    112119.42351070
  -Hartree energ DENC   =   -126423.83472422
  -exchange      EXHF   =         0.00000000
  -V(xc)+E(xc)   XCENC  =      1589.73942077
  PAW double counting   =     40700.16177014   -40867.12221331
  entropy T*S    EENTRO =        -0.00000000
  eigenvalues    EBANDS =     -4974.44994323
  atomic energy  EATOM  =     16689.68470767
  Solvation  Ediel_sol  =       294.53967039
  ---------------------------------------------------
  free energy    TOTEN  =      -779.71397553 eV

  energy without entropy =     -779.71397553  energy(sigma->0) =     -779.71397553


--------------------------------------------------------------------------------------------------------




[...]
   -.295E+02 0.881E+01 0.868E+02   0.296E+02 -.878E+01 -.868E+02   -.117E-01 0.657E-03 0.605E-02   0.131E-02 0.938E-03 0.189E-03
   -.202E+02 0.449E+00 0.780E+02   0.202E+02 -.431E+00 -.779E+02   -.791E-02 -.125E-02 -.103E-01   0.422E-03 0.403E-03 0.105E-02
   -.609E+01 -.132E+01 0.713E+02   0.609E+01 0.130E+01 -.713E+02   -.385E-02 -.169E-02 0.250E-01   0.608E-03 -.386E-03 -.159E-02
   0.177E+02 -.836E+01 0.767E+02   -.177E+02 0.838E+01 -.767E+02   0.654E-03 -.218E-02 0.200E-01   -.242E-02 0.116E-02 -.107E-02
   0.112E+02 -.731E+01 0.769E+02   -.112E+02 0.730E+01 -.768E+02   -.873E-04 -.356E-02 0.971E-03   -.204E-02 0.274E-03 0.514E-03
   -.257E+01 -.226E+01 0.754E+02   0.255E+01 0.225E+01 -.754E+02   -.401E-02 -.394E-02 0.207E-01   -.103E-02 -.135E-03 -.757E-03
   -.861E+01 0.237E+01 0.722E+02   0.860E+01 -.236E+01 -.722E+02   -.434E-02 -.228E-02 -.416E-02   -.468E-03 0.276E-03 0.934E-03
   -.668E+00 0.215E+01 0.720E+02   0.649E+00 -.212E+01 -.720E+02   -.179E-02 -.980E-03 0.102E-01   -.113E-02 0.147E-02 -.315E-03
   0.123E+02 -.356E+01 0.741E+02   -.124E+02 0.357E+01 -.740E+02   -.204E-03 -.397E-03 -.160E-01   -.184E-02 0.875E-03 0.157E-02
   0.204E+00 0.160E+02 -.375E+03   -.275E+01 -.183E+02 0.367E+03   0.251E+01 0.201E+01 0.827E+01   0.962E-03 0.270E-02 -.764E-03
   -.457E+02 -.767E+02 -.266E+03   0.538E+02 0.879E+02 0.268E+03   -.834E+01 -.116E+02 -.203E+01   0.970E-04 0.182E-02 -.252E-02
   -.325E+02 -.864E+02 -.373E+03   0.325E+02 0.864E+02 0.373E+03   -.144E-01 -.364E-01 -.585E-01   -.437E-03 -.294E-03 0.108E-02
   -.541E+03 0.429E+02 -.784E+03   0.600E+03 -.450E+02 0.792E+03   -.577E+02 0.153E+01 -.745E+01   0.752E-02 0.546E-02 0.141E-02
   0.201E+03 0.380E+03 -.102E+04   -.224E+03 -.419E+03 0.106E+04   0.222E+02 0.387E+02 -.340E+02   -.212E-02 -.248E-02 0.943E-02
   0.181E+03 -.428E+03 -.890E+03   -.202E+03 0.481E+03 0.909E+03   0.195E+02 -.518E+02 -.179E+02   -.837E-03 0.942E-02 0.383E-02
   -.166E+03 0.394E+03 -.394E+03   0.190E+03 -.444E+03 0.370E+03   -.228E+02 0.487E+02 0.243E+02   0.173E-02 -.545E-02 -.954E-02
   0.474E+03 -.318E+02 -.472E+03   -.533E+03 0.384E+02 0.459E+03   0.571E+02 -.658E+01 0.132E+02   -.853E-02 0.292E-02 -.111E-02
   -.329E+03 -.841E+00 -.536E+03   0.394E+03 -.247E+02 0.529E+03   -.614E+02 0.244E+02 0.648E+01   0.428E-02 -.204E-02 0.482E-02
   0.244E+03 -.232E+03 -.588E+03   -.309E+03 0.258E+03 0.594E+03   0.615E+02 -.242E+02 -.623E+01   -.103E-01 0.178E-02 -.267E-04
 -----------------------------------------------------------------------------------------------
   -.125E+02 -.211E+02 0.152E+02   0.568E-13 0.512E-12 0.682E-12   0.123E+02 0.209E+02 -.153E+02   -.117E-01 0.105E-01 -.184E-01
 
 
 POSITION                                       TOTAL-FORCE (eV/Angst)
 -----------------------------------------------------------------------------------
      1.25664     -0.72440     17.56940         0.002194     -0.000904      0.000634
      2.51263      1.45131     17.56933         0.002688     -0.001721      0.001997
      3.76878      3.62696     17.56961         0.002171     -0.001250     -0.000634
      5.02501      5.80259     17.56719         0.000471     -0.000631      0.002237
      6.28119      7.97814     17.56693         0.000792      0.000336     -0.000775
      7.53725     10.15374     17.56683         0.000850     -0.000620      0.002953
      2.51277     -2.90019     17.57069         0.000834      0.000919      0.001919
      3.76872     -0.72455     17.57336         0.000555     -0.000134     -0.000831
      5.02493      1.45113     17.57076        -0.000770     -0.000290      0.002574
      6.28131      3.62704     17.56739        -0.000590      0.000184     -0.003130
      7.53743      5.80254     17.56687        -0.001019      0.000426      0.002521
      8.79338      7.97802     17.56747         0.000127      0.001603      0.000529
      3.76900     -5.07583     17.56895        -0.001185      0.001947      0.003023
      5.02507     -2.90031     17.57397        -0.001137      0.001942      0.000152
      6.28129     -0.72465     17.57422        -0.002130      0.000303      0.000608
      7.53760      1.45118     17.56963        -0.002391      0.000719      0.002321
      8.79353      3.62681     17.56877        -0.003050      0.000842     -0.002207
     10.04955      5.80242     17.56788        -0.001524      0.001582     -0.000333
      5.02511     -7.25133     17.56789        -0.000293      0.001244      0.000326
      6.28115     -5.07583     17.56955        -0.000489      0.002498      0.000955
      7.53731     -2.90020     17.57057        -0.002116      0.001505      0.002430
      8.79347     -0.72448     17.56935        -0.002055      0.000565      0.001210
     10.04958      1.45125     17.56822        -0.002030      0.000176      0.001386
     11.30562      3.62687     17.56728        -0.001039      0.000462      0.002690
      6.28119     -9.42684     17.56731         0.000920     -0.000016      0.000572
      7.53726     -7.25126     17.56831         0.000560      0.000509     -0.001908
      8.79337     -5.07564     17.56716         0.000473      0.000402      0.002726
     10.04951     -2.89998     17.56722        -0.000518     -0.000659      0.001200
     11.30559     -0.72431     17.56765         0.000113     -0.001358      0.000299
     12.56168      1.45130     17.56774         0.000015     -0.000933     -0.001449
      7.53719    -11.60245     17.56785         0.002127     -0.000987      0.000368
      8.79327     -9.42682     17.56760         0.002265     -0.000516      0.001993
     10.04935     -7.25121     17.56768         0.002608     -0.000104     -0.000044
     11.30554     -5.07558     17.56699         0.000862     -0.000830      0.000255
     12.56163     -2.89996     17.56699         0.001543     -0.001011     -0.000537
     13.81768     -0.72433     17.56718         0.001966     -0.001139      0.000725
      1.25685      0.72600     17.56883        -0.002590      0.001033     -0.000450
      2.51296      2.90163     17.56826        -0.001905      0.000654      0.003279
      3.76903      5.07722     17.56827        -0.001115      0.000396      0.000092
      5.02512      7.25289     17.56711        -0.000986      0.000376     -0.001461
      6.28121      9.42852     17.56670        -0.000940      0.000920     -0.000619
      7.53730     11.60415     17.56668        -0.001809      0.000603      0.004494
      2.51288     -1.44968     17.57234        -0.001320      0.000233     -0.002152
      3.76898      0.72594     17.57096        -0.001056      0.000230      0.008292
      5.02521      2.90154     17.57103         0.000344      0.001063     -0.005473
      6.28121      5.07725     17.56621        -0.000224      0.000387      0.005703
      7.53728      7.25285     17.56677         0.000318      0.000447     -0.000146
      8.79336      9.42846     17.56760        -0.000519      0.000441      0.002093
      3.76899     -3.62523     17.57133         0.000245     -0.001643      0.005755
      5.02497     -1.44960     17.57714         0.000258     -0.000877     -0.002079
      6.28115      0.72601     17.57256         0.001288      0.000351      0.007682
      7.53714      2.90160     17.56877         0.001235      0.000418     -0.004775
      8.79335      5.07719     17.56824         0.001473     -0.000511     -0.001599
     10.04945      7.25286     17.56783         0.000642     -0.001215     -0.000628
      5.02505     -5.80086     17.56816         0.001041     -0.001973      0.002753
      6.28109     -3.62524     17.57203         0.001170     -0.001170      0.001572
      7.53718     -1.44965     17.57203         0.002077     -0.000419      0.001326
      8.79332      0.72599     17.56835         0.001844      0.000464      0.005061
     10.04943      2.90163     17.56803         0.001230     -0.000238      0.001106
     11.30554      5.07726     17.56728         0.001463     -0.000961      0.000861
      6.28120     -7.97643     17.56833        -0.000407     -0.001215     -0.003787
      7.53727     -5.80082     17.56833         0.000203     -0.001066     -0.001673
      8.79337     -3.62519     17.56697         0.000005     -0.000602      0.004649
     10.04945     -1.44957     17.56777         0.000480      0.000247     -0.000471
     11.30557      0.72607     17.56805         0.000136      0.000305     -0.002147
     12.56166      2.90169     17.56667         0.000421      0.000067      0.003153
      7.53733    -10.15209     17.56692        -0.002230      0.001054      0.002006
      8.79339     -7.97647     17.56774        -0.001347      0.000677     -0.000504
     10.04949     -5.80084     17.56658        -0.001146      0.000235      0.001826
     11.30557     -3.62519     17.56706        -0.000617      0.000384     -0.001637
     12.56165     -1.44957     17.56690        -0.000478      0.000991      0.000561
     13.81777      0.72604     17.56795        -0.001436      0.001360     -0.002783
      5.09000     -1.02656     23.12984        -0.002265     -0.002567     -0.006869
      4.73865     -1.24946     21.68093         0.000543      0.001649     -0.011694
      6.30667      2.71747     21.39409         0.008615     -0.000829     -0.003227
      6.42078     -1.06626     23.29047         0.002611     -0.010186     -0.008543
      4.54939     -1.96609     23.94123         0.002506      0.008052     -0.016422
      4.63502      0.16944     23.53274        -0.009598      0.000358     -0.006902
      5.24402     -2.36027     21.16158        -0.003192     -0.001200      0.003800
      3.44748     -1.11701     21.40819         0.002916     -0.005355     -0.003075
      7.38291      2.28975     21.28029         0.003543     -0.001227     -0.007344
      5.22861      3.14192     21.50262        -0.003227      0.004796      0.003641
 -----------------------------------------------------------------------------------
    total drift:                               -0.150178     -0.167331     -0.126809


--------------------------------------------------------------------------------------------------------



  FREE ENERGIE OF THE ION-ELECTRON SYSTEM (eV)
  ---------------------------------------------------
  free  energy   TOTEN  =      -779.71911584 eV

  energy  without entropy=     -779.71911584  energy(sigma->0) =     -779.71911584
 
 d Force = 0.4320097E-04[ 0.272E-04, 0.592E-04]  d Energy = 0.1795059E-04 0.253E-04
 d Force =-0.1464948E+01[-0.146E+01,-0.146E+01]  d Ewald  =-0.1464948E+01-0.123E-07


--------------------------------------------------------------------------------------------------------


    POTLOK:  cpu time   57.1518: real time   57.0484


--------------------------------------------------------------------------------------------------------


 Conjugate gradient step on ions:
 trial-energy change:   -0.000018  1 .order   -0.000043   -0.000059   -0.000027
  (g-gl).g = 0.138E-03      g.g   = 0.160E-03  gl.gl    = 0.748E-03
 g(Force)  = 0.160E-03   g(Stress)= 0.000E+00 ortho     = 0.188E-05
 gamma     =   0.18432
 trial     =   0.36902
 opt step  =   0.68304  (harmonic =   0.68304) maximal distance =0.00053454
 next E    =  -779.719153   (d E  =  -0.00005)


--------------------------------------------------------------------------------------------------------


  
 reached required accuracy - stopping structural energy minimisation
 writing wavefunctions
     LOOP+:  cpu time 1834.3699: real time 1565.6478
    4ORBIT:  cpu time    0.0000: real time    0.0000
 


 total charge     
 
# of ion       s       p       d       tot
------------------------------------------
    1        0.744   1.394   0.000   2.138
    2        0.744   1.394   0.000   2.138
    3        0.744   1.394   0.000   2.138
    4        0.744   1.394   0.000   2.138
    5        0.744   1.394   0.000   2.138
    6        0.744   1.394   0.000   2.138
    7        0.744   1.394   0.000   2.138
    8        0.744   1.394   0.000   2.138
    9        0.744   1.394   0.000   2.138
   10        0.744   1.394   0.000   2.139
   11        0.744   1.394   0.000   2.138
   12        0.744   1.394   0.000   2.138
   13        0.744   1.394   0.000   2.138
   14        0.744   1.394   0.000   2.138
   15        0.744   1.394   0.000   2.138
   16        0.744   1.394   0.000   2.138
   17        0.744   1.394   0.000   2.138
   18        0.744   1.394   0.000   2.138
   19        0.744   1.394   0.000   2.138
   20        0.744   1.394   0.000   2.138
   21        0.744   1.394   0.000   2.138
   22        0.744   1.394   0.000   2.138
   23        0.744   1.394   0.000   2.138
   24        0.744   1.394   0.000   2.138
   25        0.744   1.394   0.000   2.138
   26        0.744   1.394   0.000   2.138
   27        0.744   1.394   0.000   2.138
   28        0.744   1.394   0.000   2.138
   29        0.744   1.394   0.000   2.138
   30        0.744   1.394   0.000   2.138
   31        0.744   1.394   0.000   2.138
   32        0.744   1.394   0.000   2.138
   33        0.744   1.394   0.000   2.138
   34        0.744   1.394   0.000   2.138
   35        0.744   1.394   0.000   2.138
   36        0.744   1.394   0.000   2.138
   37        1.238   2.823   0.000   4.061
   38        1.238   2.823   0.000   4.061
   39        1.238   2.822   0.000   4.061
   40        1.238   2.823   0.000   4.061
   41        1.238   2.823   0.000   4.061
   42        1.238   2.823   0.000   4.061
   43        1.238   2.822   0.000   4.060
   44        1.238   2.822   0.000   4.060
   45        1.238   2.822   0.000   4.060
   46        1.238   2.822   0.000   4.060
   47        1.238   2.823   0.000   4.061
   48        1.238   2.823   0.000   4.061
   49        1.238   2.822   0.000   4.060
   50        1.238   2.822   0.000   4.060
   51        1.238   2.822   0.000   4.060
   52        1.238   2.822   0.000   4.060
   53        1.238   2.823   0.000   4.061
   54        1.238   2.823   0.000   4.061
   55        1.238   2.823   0.000   4.061
   56        1.238   2.822   0.000   4.060
   57        1.238   2.822   0.000   4.060
   58        1.238   2.823   0.000   4.061
   59        1.238   2.823   0.000   4.061
   60        1.238   2.823   0.000   4.061
   61        1.238   2.823   0.000   4.061
   62        1.238   2.823   0.000   4.061
   63        1.238   2.823   0.000   4.061
   64        1.238   2.823   0.000   4.061
   65        1.238   2.823   0.000   4.061
   66        1.238   2.823   0.000   4.061
   67        1.238   2.823   0.000   4.061
   68        1.238   2.823   0.000   4.061
   69        1.238   2.823   0.000   4.061
   70        1.238   2.823   0.000   4.061
   71        1.238   2.823   0.000   4.061
   72        1.238   2.823   0.000   4.061
   73        0.814   1.560   0.000   2.374
   74        0.835   1.566   0.000   2.401
   75        0.945   1.794   0.000   2.738
   76        1.758   4.413   0.000   6.171
   77        1.758   4.405   0.000   6.163
   78        1.758   4.413   0.000   6.171
   79        1.757   4.399   0.000   6.156
   80        1.757   4.400   0.000   6.156
   81        1.608   3.595   0.000   5.203
   82        1.608   3.596   0.000   5.204
--------------------------------------------------
tot         85.955 185.925   0.000 271.880
 


 magnetization (x)
 
# of ion       s       p       d       tot
------------------------------------------
    1        0.000   0.000   0.000   0.000
    2       -0.000  -0.000   0.000  -0.000
    3        0.000   0.000   0.000   0.000
    4        0.000   0.000   0.000   0.000
    5        0.000   0.000   0.000   0.000
    6        0.000   0.000   0.000   0.000
    7        0.000   0.000   0.000   0.000
    8        0.000   0.000   0.000   0.000
    9        0.000   0.000   0.000   0.000
   10        0.000   0.000   0.000   0.000
   11        0.000   0.000   0.000   0.000
   12        0.000   0.000   0.000   0.000
   13        0.000  -0.000   0.000  -0.000
   14       -0.000   0.000   0.000  -0.000
   15        0.000   0.000   0.000   0.000
   16       -0.000   0.000   0.000   0.000
   17       -0.000   0.000   0.000   0.000
   18        0.000   0.000   0.000   0.000
   19       -0.000   0.000   0.000  -0.000
   20       -0.000   0.000   0.000  -0.000
   21        0.000  -0.000   0.000  -0.000
   22        0.000  -0.000   0.000  -0.000
   23       -0.000  -0.000   0.000  -0.000
   24        0.000   0.000   0.000   0.000
   25       -0.000   0.000   0.000   0.000
   26       -0.000  -0.000   0.000  -0.000
   27        0.000   0.000   0.000   0.000
   28        0.000   0.000   0.000   0.000
   29        0.000   0.000   0.000   0.000
   30        0.000  -0.000   0.000  -0.000
   31        0.000   0.000   0.000   0.000
   32        0.000   0.000   0.000   0.000
   33        0.000   0.000   0.000   0.000
   34        0.000   0.000   0.000   0.000
   35        0.000   0.000   0.000   0.000
   36        0.000   0.000   0.000   0.000
   37        0.000   0.000   0.000   0.000
   38       -0.000  -0.000   0.000  -0.000
   39       -0.000  -0.000   0.000  -0.000
   40       -0.000  -0.000   0.000  -0.000
   41       -0.000  -0.000   0.000  -0.000
   42       -0.000  -0.000   0.000  -0.000
   43       -0.000  -0.000   0.000  -0.000
   44       -0.000  -0.000   0.000  -0.000
   45       -0.000  -0.000   0.000  -0.000
   46        0.000   0.000   0.000   0.000
   47       -0.000  -0.000   0.000  -0.000
   48        0.000   0.000   0.000   0.000
   49       -0.000  -0.000   0.000  -0.000
   50       -0.000  -0.000   0.000  -0.000
   51        0.000   0.000   0.000   0.000
   52       -0.000  -0.000   0.000  -0.000
   53       -0.000  -0.000   0.000  -0.000
   54       -0.000  -0.000   0.000  -0.000
   55        0.000   0.000   0.000   0.000
   56        0.000   0.000   0.000   0.000
   57       -0.000  -0.000   0.000  -0.000
   58       -0.000  -0.000   0.000  -0.000
   59        0.000   0.000   0.000   0.000
   60        0.000   0.000   0.000   0.000
   61        0.000   0.000   0.000   0.000
   62        0.000   0.000   0.000   0.000
   63       -0.000  -0.000   0.000  -0.000
   64       -0.000  -0.000   0.000  -0.000
   65       -0.000  -0.000   0.000  -0.000
   66       -0.000   0.000   0.000   0.000
   67       -0.000  -0.000   0.000  -0.000
   68       -0.000  -0.000   0.000  -0.000
   69       -0.000  -0.000   0.000  -0.000
   70       -0.000  -0.000   0.000  -0.000
   71       -0.000  -0.000   0.000  -0.000
   72       -0.000  -0.000   0.000  -0.000
   73        0.004   0.011   0.000   0.015
   74        0.070   0.377   0.000   0.447
   75       -0.000   0.000   0.000   0.000
   76       -0.000  -0.000   0.000  -0.000
   77        0.001   0.030   0.000   0.031
   78       -0.000  -0.000   0.000  -0.000
   79        0.003   0.077   0.000   0.080
   80        0.003   0.077   0.000   0.080
   81        0.000   0.000   0.000   0.000
   82        0.000  -0.000   0.000  -0.000
--------------------------------------------------
tot          0.081   0.570   0.000   0.652
 

 total amount of memory used by VASP MPI-rank0  1200922. kBytes
=======================================================================

   base      :      30000. kBytes
   nonlr-proj:      37384. kBytes
   fftplans  :      59250. kBytes
   grid      :     716351. kBytes
   one-center:        503. kBytes
   wavefun   :     357434. kBytes
 
  
  
 General timing and accounting informations for this job:
 ========================================================
  
                  Total CPU time used (sec):    38306.156
                            User time (sec):    37391.465
                          System time (sec):      914.690
                         Elapsed time (sec):    32445.849
  
                   Maximum memory used (kb):     2785488.
                   Average memory used (kb):           0.
  
                          Minor page faults:     10783115
                          Major page faults:           89
                 Voluntary context switches:       317006
