Job started on c479-032.stampede2.tacc.utexas.edu at Fri May 21 20:03:20 CDT 2021
TACC:  Starting up job 7740872 
TACC:  Starting parallel tasks... 
 running on   48 total cores
 distrk:  each k-point on   48 cores,    1 groups
 distr:  one band on   12 cores,    4 groups
 using from now: INCAR     
 vasp.5.4.4.18Apr17-6-g9f103f2a35 (build May 01 2020 14:57:12) complex          
  
 POSCAR found type information on POSCAR  C  F  O 
 POSCAR found :  3 types and      22 ions
 scaLAPACK will be used

 ----------------------------------------------------------------------------- 
|                                                                             |
|  ADVICE TO THIS USER RUNNING 'VASP/VAMP'   (HEAR YOUR MASTER'S VOICE ...):  |
|                                                                             |
|      You have switched on vdW-DFT.                                          |
|      This routine was written and supplied by Jiri Klimes.                  |
|      We recommed that you carefully read and cite the following             |
|      publication                                                            |
|      J. Klimes, D.R. Bowler, A. Michelides                                  |
|        J. Phys.: Cond Matt. 22 022201 (2010)                                |
|      J. Klimes, D.R. Bowler, A. Michelides                                  |
|        Phys. Rev. B. 83, 195131 (2011)                                      |
|      and references therein.                                                |
|                                                                             |
 ----------------------------------------------------------------------------- 

 LDA part: xc-table for Pade appr. of Perdew
 found WAVECAR, reading the header
 POSCAR, INCAR and KPOINTS ok, starting setup
 FFT: planning ...
 reading WAVECAR
 the WAVECAR file was read successfully
 initial charge from wavefunction
 entering main loop
       N       E                     dE             d eps       ncg     rms          rms(c)
SOL:   1  -0.16015E+01    0.00000E+00   -0.16015E+01   112
  FERMI_SHIFT =   2.442287133271163E-002
Total rVV10 correction in eV:      3.5015808   132.3377896
DAV:   1    -0.161383786934E+03   -0.16138E+03   -0.81761E-01   520   0.744E+00    0.660E-01
SOL:   2  -0.16275E+01    0.00000E+00   -0.16275E+01    93
  FERMI_SHIFT =   2.442329014191068E-002
Total rVV10 correction in eV:      3.5019943   132.3422002
RMM:   2    -0.161387880661E+03   -0.40937E-02   -0.20149E-01   368   0.135E+00    0.370E-01
SOL:   3  -0.16557E+01    0.00000E+00   -0.16557E+01    92
  FERMI_SHIFT =   2.441899986584488E-002
Total rVV10 correction in eV:      3.5022336   132.3449850
RMM:   3    -0.161385566071E+03    0.23146E-02   -0.21257E-02   384   0.341E-01    0.235E-01
SOL:   4  -0.16795E+01    0.00000E+00   -0.16795E+01    90
  FERMI_SHIFT =   2.441899986602204E-002
Total rVV10 correction in eV:      3.5023404   132.3476657
RMM:   4    -0.161383797577E+03    0.17685E-02   -0.41156E-03   370   0.181E-01    0.125E-01
SOL:   5  -0.17196E+01    0.00000E+00   -0.17196E+01    91
  FERMI_SHIFT =   2.442332694697343E-002
Total rVV10 correction in eV:      3.5025777   132.3524704
RMM:   5    -0.161381275944E+03    0.25216E-02   -0.39509E-03   368   0.227E-01    0.658E-02
SOL:   6  -0.17412E+01    0.00000E+00   -0.17412E+01    90
  FERMI_SHIFT =   2.441899986600318E-002
Total rVV10 correction in eV:      3.5026828   132.3533332
RMM:   6    -0.161381792248E+03   -0.51630E-03   -0.25786E-03   362   0.107E-01    0.800E-02
SOL:   7  -0.17750E+01    0.00000E+00   -0.17750E+01    92
  FERMI_SHIFT =   2.441899986606363E-002
Total rVV10 correction in eV:      3.5027444   132.3543386
RMM:   7    -0.161382142591E+03   -0.35034E-03   -0.13826E-03   368   0.108E-01    0.339E-02
SOL:   8  -0.17821E+01    0.00000E+00   -0.17821E+01    83
  FERMI_SHIFT =   2.441899986604373E-002
Total rVV10 correction in eV:      3.5027465   132.3530919
RMM:   8    -0.161382585168E+03   -0.44258E-03   -0.30273E-04   344   0.609E-02    0.316E-02
SOL:   9  -0.18022E+01    0.00000E+00   -0.18022E+01    88
  FERMI_SHIFT =   2.441899986603283E-002
Total rVV10 correction in eV:      3.5027757   132.3505933
RMM:   9    -0.161384058731E+03   -0.14736E-02   -0.94915E-04   350   0.946E-02    0.120E-02
SOL:  10  -0.18081E+01    0.00000E+00   -0.18081E+01    81
  FERMI_SHIFT =   2.441896240228153E-002
Total rVV10 correction in eV:      3.5027515   132.3474760
RMM:  10    -0.161385370217E+03   -0.13115E-02   -0.59906E-04   338   0.739E-02    0.110E-02
SOL:  11  -0.18106E+01    0.00000E+00   -0.18106E+01    78
  FERMI_SHIFT =   2.442336503870184E-002
Total rVV10 correction in eV:      3.5027279   132.3455312
RMM:  11    -0.161385818159E+03   -0.44794E-03   -0.21875E-04   308   0.483E-02    0.489E-03
SOL:  12  -0.18117E+01    0.00000E+00   -0.18117E+01    80
  FERMI_SHIFT =   2.442188503294641E-002
Total rVV10 correction in eV:      3.5026885   132.3422910
RMM:  12    -0.161386369508E+03   -0.55135E-03   -0.16825E-04   321   0.498E-02    0.472E-03
SOL:  13  -0.18119E+01    0.00000E+00   -0.18119E+01    74
  FERMI_SHIFT =   2.442188503294984E-002
Total rVV10 correction in eV:      3.5026779   132.3413552
RMM:  13    -0.161386543130E+03   -0.17362E-03   -0.71157E-05   275   0.391E-02    0.326E-03
SOL:  14  -0.18121E+01    0.00000E+00   -0.18121E+01    74
  FERMI_SHIFT =   2.442188503295063E-002
Total rVV10 correction in eV:      3.5026693   132.3404269
RMM:  14    -0.161386652280E+03   -0.10915E-03   -0.23078E-05   247   0.225E-02    0.238E-03
SOL:  15  -0.18121E+01    0.00000E+00   -0.18121E+01    72
  FERMI_SHIFT =   2.442192385423256E-002
Total rVV10 correction in eV:      3.5026536   132.3394705
RMM:  15    -0.161386754028E+03   -0.10175E-03   -0.12753E-05   242   0.194E-02    0.233E-03
SOL:  16  -0.18120E+01    0.00000E+00   -0.18120E+01    66
  FERMI_SHIFT =   2.442196074456164E-002
Total rVV10 correction in eV:      3.5026450   132.3390594
RMM:  16    -0.161386787180E+03   -0.33152E-04   -0.75215E-06   242   0.157E-02    0.505E-04
SOL:  17  -0.18120E+01    0.00000E+00   -0.18120E+01    65
  FERMI_SHIFT =   2.442034553333694E-002
Total rVV10 correction in eV:      3.5026380   132.3386972
RMM:  17    -0.161386813400E+03   -0.26219E-04   -0.57636E-06   236   0.149E-02    0.580E-04
SOL:  18  -0.18120E+01    0.00000E+00   -0.18120E+01    66
  FERMI_SHIFT =   2.442026978135114E-002
Total rVV10 correction in eV:      3.5026300   132.3382691
RMM:  18    -0.161386840435E+03   -0.27036E-04   -0.49688E-06   236   0.137E-02    0.272E-04
SOL:  19  -0.18120E+01    0.00000E+00   -0.18120E+01    60
  FERMI_SHIFT =   2.442026978135514E-002
Total rVV10 correction in eV:      3.5026281   132.3381656
RMM:  19    -0.161386846405E+03   -0.59703E-05   -0.34479E-06   236   0.117E-02
Total rVV10 correction in eV:      3.5026193   132.3377897
SOL:  20  -0.18120E+01    0.00000E+00   -0.18120E+01    60
  FERMI_SHIFT =   2.442206809119704E-002
Total rVV10 correction in eV:      3.5026254   132.3380366
   1 F= -.16138685E+03 E0= -.16138685E+03  d E =-.161387E+03  mag=     0.0000
 curvature:   0.00 expect dE= 0.000E+00 dE for cont linesearch  0.000E+00
 trial: gam= 0.00000 g(F)=  0.822E-01 g(S)=  0.000E+00 ort = 0.000E+00 (trialstep = 0.100E+01)
 search vector abs. value=  0.822E-01
 bond charge predicted
       N       E                     dE             d eps       ncg     rms          rms(c)
SOL:  21  -0.18114E+01    0.00000E+00   -0.18114E+01    94
  FERMI_SHIFT =   2.441989495097420E-002
Total rVV10 correction in eV:      3.5023884   132.3380894
DAV:   1    -0.161331464783E+03    0.55376E-01   -0.13647E+01   472   0.145E+01    0.736E-01
SOL:  22  -0.18279E+01    0.00000E+00   -0.18279E+01    90
  FERMI_SHIFT =   2.441916271218868E-002
Total rVV10 correction in eV:      3.5025863   132.3448316
RMM:   2    -0.161371635691E+03   -0.40171E-01   -0.37385E-01   368   0.233E+00    0.474E-01
SOL:  23  -0.18393E+01    0.00000E+00   -0.18393E+01    88
  FERMI_SHIFT =   2.442315851186860E-002
Total rVV10 correction in eV:      3.5025621   132.3449801
RMM:   3    -0.161370372251E+03    0.12634E-02   -0.13927E-02   378   0.346E-01    0.336E-01
SOL:  24  -0.18649E+01    0.00000E+00   -0.18649E+01    92
  FERMI_SHIFT =   2.442320722050120E-002
Total rVV10 correction in eV:      3.5025170   132.3443587
RMM:   4    -0.161371521922E+03   -0.11497E-02   -0.87760E-03   368   0.359E-01    0.607E-02
SOL:  25  -0.18695E+01    0.00000E+00   -0.18695E+01    85
  FERMI_SHIFT =   2.441916271268675E-002
Total rVV10 correction in eV:      3.5025456   132.3445313
RMM:   5    -0.161371635524E+03   -0.11360E-03   -0.36690E-04   356   0.712E-02    0.355E-02
SOL:  26  -0.18793E+01    0.00000E+00   -0.18793E+01    88
  FERMI_SHIFT =   2.441916271268194E-002
Total rVV10 correction in eV:      3.5025888   132.3447555
RMM:   6    -0.161371911334E+03   -0.27581E-03   -0.63122E-04   362   0.676E-02    0.219E-02
SOL:  27  -0.18818E+01    0.00000E+00   -0.18818E+01    81
  FERMI_SHIFT =   2.442315851174454E-002
Total rVV10 correction in eV:      3.5025822   132.3445845
RMM:   7    -0.161372053469E+03   -0.14213E-03   -0.82414E-05   329   0.373E-02    0.126E-02
SOL:  28  -0.18930E+01    0.00000E+00   -0.18930E+01    86
  FERMI_SHIFT =   2.442315851173971E-002
Total rVV10 correction in eV:      3.5025990   132.3440135
RMM:   8    -0.161372596302E+03   -0.54283E-03   -0.20799E-04   337   0.497E-02    0.783E-03
SOL:  29  -0.18971E+01    0.00000E+00   -0.18971E+01    81
  FERMI_SHIFT =   2.442315851174057E-002
Total rVV10 correction in eV:      3.5026047   132.3433926
RMM:   9    -0.161372830938E+03   -0.23464E-03   -0.12092E-04   289   0.446E-02    0.580E-03
SOL:  30  -0.19038E+01    0.00000E+00   -0.19038E+01    82
  FERMI_SHIFT =   2.442315851174326E-002
Total rVV10 correction in eV:      3.5026053   132.3420280
RMM:  10    -0.161373267029E+03   -0.43609E-03   -0.21450E-04   313   0.534E-02    0.406E-03
SOL:  31  -0.19062E+01    0.00000E+00   -0.19062E+01    76
  FERMI_SHIFT =   2.442315851174046E-002
Total rVV10 correction in eV:      3.5025989   132.3412673
RMM:  11    -0.161373424733E+03   -0.15770E-03   -0.10454E-04   281   0.408E-02    0.260E-03
SOL:  32  -0.19072E+01    0.00000E+00   -0.19072E+01    74
  FERMI_SHIFT =   2.441911253209242E-002
Total rVV10 correction in eV:      3.5025871   132.3403451
RMM:  12    -0.161373595429E+03   -0.17070E-03   -0.52673E-05   256   0.283E-02    0.195E-03
SOL:  33  -0.19079E+01    0.00000E+00   -0.19079E+01    74
  FERMI_SHIFT =   2.441906296033997E-002
Total rVV10 correction in eV:      3.5025770   132.3395228
RMM:  13    -0.161373709107E+03   -0.11368E-03   -0.30955E-05   250   0.231E-02    0.104E-03
SOL:  34  -0.19080E+01    0.00000E+00   -0.19080E+01    71
  FERMI_SHIFT =   2.442328477076627E-002
Total rVV10 correction in eV:      3.5025689   132.3390281
RMM:  14    -0.161373762634E+03   -0.53527E-04   -0.15395E-05   242   0.191E-02    0.102E-03
SOL:  35  -0.19079E+01    0.00000E+00   -0.19079E+01    70
  FERMI_SHIFT =   2.441898443091520E-002
Total rVV10 correction in eV:      3.5025601   132.3386180
RMM:  15    -0.161373800089E+03   -0.37455E-04   -0.90211E-06   242   0.157E-02    0.414E-04
SOL:  36  -0.19079E+01    0.00000E+00   -0.19079E+01    66
  FERMI_SHIFT =   2.441898443091212E-002
Total rVV10 correction in eV:      3.5025542   132.3383544
RMM:  16    -0.161373819461E+03   -0.19372E-04   -0.51466E-06   238   0.132E-02    0.599E-04
SOL:  37  -0.19079E+01    0.00000E+00   -0.19079E+01    65
  FERMI_SHIFT =   2.441901075591062E-002
Total rVV10 correction in eV:      3.5025502   132.3381619
RMM:  17    -0.161373832349E+03   -0.12888E-04   -0.38551E-06   236   0.120E-02    0.368E-04
SOL:  38  -0.19079E+01    0.00000E+00   -0.19079E+01    60
  FERMI_SHIFT =   2.442000084779405E-002
Total rVV10 correction in eV:      3.5025489   132.3380942
RMM:  18    -0.161373836428E+03   -0.40784E-05   -0.27502E-06   236   0.103E-02
Total rVV10 correction in eV:      3.5025412   132.3377891
SOL:  39  -0.19079E+01    0.00000E+00   -0.19079E+01    62
  FERMI_SHIFT =   2.441997472262597E-002
Total rVV10 correction in eV:      3.5025460   132.3379629
   2 F= -.16137384E+03 E0= -.16137384E+03  d E =0.130100E-01  mag=    -0.0000
 trial-energy change:    0.013010  1 .order    0.013583   -0.082249    0.109414
 step:   0.4335(harm=  0.4291)  dis= 0.01340  next Energy=  -161.404722 (dE=-0.179E-01)
 bond charge predicted
       N       E                     dE             d eps       ncg     rms          rms(c)
SOL:  40  -0.19083E+01    0.00000E+00   -0.19083E+01    92
  FERMI_SHIFT =   2.442018549025950E-002
Total rVV10 correction in eV:      3.5026952   132.3379883
DAV:   1    -0.161391320453E+03   -0.17488E-01   -0.43707E+00   448   0.819E+00    0.421E-01
SOL:  41  -0.18989E+01    0.00000E+00   -0.18989E+01    88
  FERMI_SHIFT =   2.441907745138198E-002
Total rVV10 correction in eV:      3.5027687   132.3418135
RMM:   2    -0.161403762061E+03   -0.12442E-01   -0.12577E-01   368   0.134E+00    0.266E-01
SOL:  42  -0.18922E+01    0.00000E+00   -0.18922E+01    86
  FERMI_SHIFT =   2.442324606900656E-002
Total rVV10 correction in eV:      3.5027630   132.3418476
RMM:   3    -0.161403459857E+03    0.30220E-03   -0.52510E-03   376   0.214E-01    0.186E-01
SOL:  43  -0.18774E+01    0.00000E+00   -0.18774E+01    89
  FERMI_SHIFT =   2.442321418422873E-002
Total rVV10 correction in eV:      3.5026942   132.3414089
RMM:   4    -0.161403913295E+03   -0.45344E-03   -0.28311E-03   368   0.207E-01    0.336E-02
SOL:  44  -0.18748E+01    0.00000E+00   -0.18748E+01    83
  FERMI_SHIFT =   2.442321418424893E-002
Total rVV10 correction in eV:      3.5026767   132.3414904
RMM:   5    -0.161403925740E+03   -0.12445E-04   -0.12920E-04   348   0.447E-02    0.193E-02
SOL:  45  -0.18694E+01    0.00000E+00   -0.18694E+01    85
  FERMI_SHIFT =   2.442315340180956E-002
Total rVV10 correction in eV:      3.5026566   132.3415839
RMM:   6    -0.161404016398E+03   -0.90658E-04   -0.16942E-04   350   0.401E-02    0.117E-02
SOL:  46  -0.18675E+01    0.00000E+00   -0.18675E+01    80
  FERMI_SHIFT =   2.442318377214159E-002
Total rVV10 correction in eV:      3.5026610   132.3414774
RMM:   7    -0.161404071870E+03   -0.55472E-04   -0.32056E-05   263   0.270E-02    0.704E-03
SOL:  47  -0.18612E+01    0.00000E+00   -0.18612E+01    84
  FERMI_SHIFT =   2.442315340180776E-002
Total rVV10 correction in eV:      3.5026484   132.3411595
RMM:   8    -0.161404246440E+03   -0.17457E-03   -0.59314E-05   302   0.333E-02    0.464E-03
SOL:  48  -0.18594E+01    0.00000E+00   -0.18594E+01    77
  FERMI_SHIFT =   2.442315340181272E-002
Total rVV10 correction in eV:      3.5026408   132.3408553
RMM:   9    -0.161404329028E+03   -0.82588E-04   -0.31033E-05   265   0.289E-02    0.352E-03
SOL:  49  -0.18562E+01    0.00000E+00   -0.18562E+01    79
  FERMI_SHIFT =   2.442315340180787E-002
Total rVV10 correction in eV:      3.5026288   132.3401615
RMM:  10    -0.161404474729E+03   -0.14570E-03   -0.39213E-05   277   0.297E-02    0.248E-03
SOL:  50  -0.18543E+01    0.00000E+00   -0.18543E+01    76
  FERMI_SHIFT =   2.442315340180740E-002
Total rVV10 correction in eV:      3.5026234   132.3397115
RMM:  11    -0.161404547253E+03   -0.72524E-04   -0.24633E-05   251   0.238E-02    0.172E-03
SOL:  51  -0.18537E+01    0.00000E+00   -0.18537E+01    71
  FERMI_SHIFT =   2.442321418425811E-002
Total rVV10 correction in eV:      3.5026179   132.3391451
RMM:  12    -0.161404620590E+03   -0.73337E-04   -0.15135E-05   243   0.195E-02    0.146E-03
SOL:  52  -0.18534E+01    0.00000E+00   -0.18534E+01    71
  FERMI_SHIFT =   2.442324606911347E-002
Total rVV10 correction in eV:      3.5026119   132.3387699
RMM:  13    -0.161404663060E+03   -0.42470E-04   -0.10696E-05   242   0.169E-02    0.691E-04
SOL:  53  -0.18533E+01    0.00000E+00   -0.18533E+01    67
  FERMI_SHIFT =   2.441901515380729E-002
Total rVV10 correction in eV:      3.5026081   132.3385617
RMM:  14    -0.161404683466E+03   -0.20407E-04   -0.56455E-06   238   0.136E-02    0.841E-04
SOL:  54  -0.18533E+01    0.00000E+00   -0.18533E+01    70
  FERMI_SHIFT =   2.441894948973075E-002
Total rVV10 correction in eV:      3.5026033   132.3382410
RMM:  15    -0.161404711829E+03   -0.28363E-04   -0.50817E-06   236   0.132E-02    0.356E-04
SOL:  55  -0.18533E+01    0.00000E+00   -0.18533E+01    63
  FERMI_SHIFT =   2.442337554327140E-002
Total rVV10 correction in eV:      3.5026018   132.3381409
RMM:  16    -0.161404719251E+03   -0.74218E-05   -0.36497E-06   236   0.115E-02
Total rVV10 correction in eV:      3.5025921   132.3377895
SOL:  56  -0.18533E+01    0.00000E+00   -0.18533E+01    63
  FERMI_SHIFT =   2.442334226700982E-002
Total rVV10 correction in eV:      3.5025985   132.3379918
   3 F= -.16140472E+03 E0= -.16140472E+03  d E =-.178728E-01  mag=     0.0000
 curvature:  -0.21 expect dE=-0.818E-02 dE for cont linesearch -0.899E-07
 trial: gam= 0.46105 g(F)=  0.381E-01 g(S)=  0.000E+00 ort = 0.186E-03 (trialstep = 0.887E+00)
 search vector abs. value=  0.558E-01
 bond charge predicted
       N       E                     dE             d eps       ncg     rms          rms(c)
SOL:  57  -0.18586E+01    0.00000E+00   -0.18586E+01    95
  FERMI_SHIFT =   2.442350120712768E-002
Total rVV10 correction in eV:      3.5025183   132.3380361
DAV:   1    -0.161377677138E+03    0.27035E-01   -0.94971E+00   384   0.119E+01    0.677E-01
SOL:  58  -0.18628E+01    0.00000E+00   -0.18628E+01    90
  FERMI_SHIFT =   2.441974356236454E-002
Total rVV10 correction in eV:      3.5027472   132.3434702
RMM:   2    -0.161407128316E+03   -0.29451E-01   -0.27604E-01   368   0.189E+00    0.356E-01
SOL:  59  -0.18657E+01    0.00000E+00   -0.18657E+01    86
  FERMI_SHIFT =   2.441873197515174E-002
Total rVV10 correction in eV:      3.5027587   132.3429695
RMM:   3    -0.161405873704E+03    0.12546E-02   -0.11790E-02   374   0.280E-01    0.247E-01
SOL:  60  -0.18720E+01    0.00000E+00   -0.18720E+01    89
  FERMI_SHIFT =   2.441982825644708E-002
Total rVV10 correction in eV:      3.5027227   132.3405965
RMM:   4    -0.161406893661E+03   -0.10200E-02   -0.48997E-03   368   0.231E-01    0.628E-02
SOL:  61  -0.18764E+01    0.00000E+00   -0.18764E+01    83
  FERMI_SHIFT =   2.442250555145771E-002
Total rVV10 correction in eV:      3.5027371   132.3403245
RMM:   5    -0.161407021834E+03   -0.12817E-03   -0.44383E-04   364   0.722E-02    0.262E-02
SOL:  62  -0.18798E+01    0.00000E+00   -0.18798E+01    82
  FERMI_SHIFT =   2.441980062082508E-002
Total rVV10 correction in eV:      3.5027417   132.3403049
RMM:   6    -0.161407016613E+03    0.52210E-05   -0.14768E-04   318   0.341E-02    0.179E-02
SOL:  63  -0.18836E+01    0.00000E+00   -0.18836E+01    83
  FERMI_SHIFT =   2.441977272051710E-002
Total rVV10 correction in eV:      3.5027383   132.3402242
RMM:   7    -0.161407041853E+03   -0.25240E-04   -0.72435E-05   283   0.347E-02    0.841E-03
SOL:  64  -0.18858E+01    0.00000E+00   -0.18858E+01    78
  FERMI_SHIFT =   2.442256064884069E-002
Total rVV10 correction in eV:      3.5027397   132.3400798
RMM:   8    -0.161407096449E+03   -0.54597E-04   -0.27385E-05   252   0.254E-02    0.350E-03
SOL:  65  -0.18892E+01    0.00000E+00   -0.18892E+01    80
  FERMI_SHIFT =   2.442256064883831E-002
Total rVV10 correction in eV:      3.5027377   132.3397801
RMM:   9    -0.161407198989E+03   -0.10254E-03   -0.38465E-05   257   0.282E-02    0.369E-03
SOL:  66  -0.18913E+01    0.00000E+00   -0.18913E+01    78
  FERMI_SHIFT =   2.442256064883666E-002
Total rVV10 correction in eV:      3.5027325   132.3394992
RMM:  10    -0.161407261443E+03   -0.62455E-04   -0.33366E-05   254   0.282E-02    0.190E-03
SOL:  67  -0.18934E+01    0.00000E+00   -0.18934E+01    76
  FERMI_SHIFT =   2.442253407950054E-002
Total rVV10 correction in eV:      3.5027250   132.3391309
RMM:  11    -0.161407336952E+03   -0.75509E-04   -0.25911E-05   248   0.239E-02    0.189E-03
SOL:  68  -0.18943E+01    0.00000E+00   -0.18943E+01    71
  FERMI_SHIFT =   2.441982825646095E-002
Total rVV10 correction in eV:      3.5027191   132.3388194
RMM:  12    -0.161407384265E+03   -0.47313E-04   -0.14580E-05   242   0.188E-02    0.683E-04
SOL:  69  -0.18945E+01    0.00000E+00   -0.18945E+01    69
  FERMI_SHIFT =   2.442244986560567E-002
Total rVV10 correction in eV:      3.5027137   132.3385734
RMM:  13    -0.161407414501E+03   -0.30235E-04   -0.10778E-05   242   0.178E-02    0.551E-04
SOL:  70  -0.18946E+01    0.00000E+00   -0.18946E+01    68
  FERMI_SHIFT =   2.442379904920226E-002
Total rVV10 correction in eV:      3.5027074   132.3383220
RMM:  14    -0.161407441774E+03   -0.27273E-04   -0.78083E-06   241   0.156E-02    0.363E-04
SOL:  71  -0.18946E+01    0.00000E+00   -0.18946E+01    65
  FERMI_SHIFT =   2.441853520420603E-002
Total rVV10 correction in eV:      3.5027034   132.3381621
RMM:  15    -0.161407454976E+03   -0.13202E-04   -0.44052E-06   236   0.126E-02    0.249E-04
SOL:  72  -0.18947E+01    0.00000E+00   -0.18947E+01    63
  FERMI_SHIFT =   2.441860257153851E-002
Total rVV10 correction in eV:      3.5026999   132.3380281
RMM:  16    -0.161407464432E+03   -0.94560E-05   -0.38686E-06   236   0.119E-02
Total rVV10 correction in eV:      3.5026937   132.3377890
SOL:  73  -0.18947E+01    0.00000E+00   -0.18947E+01    56
  FERMI_SHIFT =   2.441863506420233E-002
Total rVV10 correction in eV:      3.5026986   132.3379762
   4 F= -.16140746E+03 E0= -.16140746E+03  d E =-.274518E-02  mag=    -0.0000
 trial-energy change:   -0.002745  1 .order   -0.002452   -0.033865    0.028962
 step:   0.4841(harm=  0.4780)  dis= 0.00826  next Energy=  -161.414012 (dE=-0.929E-02)
 bond charge predicted
       N       E                     dE             d eps       ncg     rms          rms(c)
SOL:  74  -0.18922E+01    0.00000E+00   -0.18922E+01    91
  FERMI_SHIFT =   2.442238622833923E-002
Total rVV10 correction in eV:      3.5027389   132.3379936
DAV:   1    -0.161409864325E+03   -0.24093E-02   -0.19533E+00   416   0.538E+00    0.309E-01
SOL:  75  -0.18902E+01    0.00000E+00   -0.18902E+01    86
  FERMI_SHIFT =   2.442349152371436E-002
Total rVV10 correction in eV:      3.5027604   132.3403419
RMM:   2    -0.161413527235E+03   -0.36629E-02   -0.56394E-02   368   0.868E-01    0.162E-01
SOL:  76  -0.18889E+01    0.00000E+00   -0.18889E+01    82
  FERMI_SHIFT =   2.441880413480346E-002
Total rVV10 correction in eV:      3.5027409   132.3402085
RMM:   3    -0.161413321326E+03    0.20591E-03   -0.24799E-03   374   0.129E-01    0.112E-01
SOL:  77  -0.18860E+01    0.00000E+00   -0.18860E+01    85
  FERMI_SHIFT =   2.442352466827641E-002
Total rVV10 correction in eV:      3.5026926   132.3392705
RMM:   4    -0.161413869557E+03   -0.54823E-03   -0.11364E-03   368   0.114E-01    0.306E-02
SOL:  78  -0.18841E+01    0.00000E+00   -0.18841E+01    79
  FERMI_SHIFT =   2.442352466827502E-002
Total rVV10 correction in eV:      3.5026756   132.3391749
RMM:   5    -0.161413898222E+03   -0.28665E-04   -0.10323E-04   307   0.384E-02    0.127E-02
SOL:  79  -0.18825E+01    0.00000E+00   -0.18825E+01    79
  FERMI_SHIFT =   2.442352466827717E-002
Total rVV10 correction in eV:      3.5026713   132.3391608
RMM:   6    -0.161413899595E+03   -0.13731E-05   -0.42644E-05   272   0.207E-02
Total rVV10 correction in eV:      3.5026548   132.3377893
SOL:  80  -0.18809E+01    0.00000E+00   -0.18809E+01    79
  FERMI_SHIFT =   2.442352466828571E-002
Total rVV10 correction in eV:      3.5026723   132.3391044
   5 F= -.16141390E+03 E0= -.16141390E+03  d E =-.918034E-02  mag=    -0.0000
 curvature:  -0.35 expect dE=-0.268E-02 dE for cont linesearch -0.279E-06
 trial: gam= 0.19804 g(F)=  0.768E-02 g(S)=  0.000E+00 ort = 0.211E-03 (trialstep = 0.806E+00)
 search vector abs. value=  0.995E-02
 bond charge predicted
       N       E                     dE             d eps       ncg     rms          rms(c)
SOL:  81  -0.18807E+01    0.00000E+00   -0.18807E+01    88
  FERMI_SHIFT =   2.442338419093097E-002
Total rVV10 correction in eV:      3.5027531   132.3391100
DAV:   1    -0.161406778028E+03    0.71202E-02   -0.15308E+00   432   0.504E+00    0.269E-01
SOL:  82  -0.18816E+01    0.00000E+00   -0.18816E+01    85
  FERMI_SHIFT =   2.441891234369137E-002
Total rVV10 correction in eV:      3.5027587   132.3410796
RMM:   2    -0.161413006509E+03   -0.62285E-02   -0.54001E-02   368   0.879E-01    0.170E-01
SOL:  83  -0.18821E+01    0.00000E+00   -0.18821E+01    84
  FERMI_SHIFT =   2.441891234276385E-002
Total rVV10 correction in eV:      3.5027452   132.3409026
RMM:   3    -0.161412788893E+03    0.21762E-03   -0.17128E-03   378   0.124E-01    0.118E-01
SOL:  84  -0.18829E+01    0.00000E+00   -0.18829E+01    87
  FERMI_SHIFT =   2.442229470458222E-002
Total rVV10 correction in eV:      3.5026991   132.3400378
RMM:   4    -0.161413092071E+03   -0.30318E-03   -0.10517E-03   368   0.125E-01    0.251E-02
SOL:  85  -0.18830E+01    0.00000E+00   -0.18830E+01    82
  FERMI_SHIFT =   2.442229470461801E-002
Total rVV10 correction in eV:      3.5026871   132.3400522
RMM:   5    -0.161413096607E+03   -0.45353E-05   -0.69989E-05   333   0.367E-02
Total rVV10 correction in eV:      3.5026659   132.3377895
SOL:  86  -0.18830E+01    0.00000E+00   -0.18830E+01    80
  FERMI_SHIFT =   2.442001168685629E-002
Total rVV10 correction in eV:      3.5026842   132.3400367
   6 F= -.16141310E+03 E0= -.16141310E+03  d E =0.802989E-03  mag=     0.0000
 trial-energy change:    0.000803  1 .order    0.000548   -0.006227    0.007323
 step:   0.3481(harm=  0.3705)  dis= 0.00229  next Energy=  -161.415224 (dE=-0.132E-02)
 bond charge predicted
       N       E                     dE             d eps       ncg     rms          rms(c)
SOL:  87  -0.18832E+01    0.00000E+00   -0.18832E+01    86
  FERMI_SHIFT =   2.441994261519809E-002
Total rVV10 correction in eV:      3.5026389   132.3400380
DAV:   1    -0.161412899405E+03    0.19267E-03   -0.49267E-01   432   0.286E+00    0.153E-01
SOL:  88  -0.18823E+01    0.00000E+00   -0.18823E+01    83
  FERMI_SHIFT =   2.441889575742079E-002
Total rVV10 correction in eV:      3.5026912   132.3406726
RMM:   2    -0.161414884565E+03   -0.19852E-02   -0.17283E-02   368   0.500E-01    0.955E-02
SOL:  89  -0.18818E+01    0.00000E+00   -0.18818E+01    80
  FERMI_SHIFT =   2.441889575794269E-002
Total rVV10 correction in eV:      3.5026884   132.3402709
RMM:   3    -0.161414914783E+03   -0.30218E-04   -0.53267E-04   366   0.732E-02    0.661E-02
SOL:  90  -0.18809E+01    0.00000E+00   -0.18809E+01    83
  FERMI_SHIFT =   2.442343111232331E-002
Total rVV10 correction in eV:      3.5026708   132.3389878
RMM:   4    -0.161415332278E+03   -0.41749E-03   -0.37630E-04   368   0.798E-02    0.138E-02
SOL:  91  -0.18807E+01    0.00000E+00   -0.18807E+01    76
  FERMI_SHIFT =   2.442343111230670E-002
Total rVV10 correction in eV:      3.5026739   132.3387562
RMM:   5    -0.161415360085E+03   -0.27807E-04   -0.29535E-05   252   0.249E-02    0.591E-03
SOL:  92  -0.18805E+01    0.00000E+00   -0.18805E+01    76
  FERMI_SHIFT =   2.441889575807765E-002
Total rVV10 correction in eV:      3.5026743   132.3385795
RMM:   6    -0.161415379449E+03   -0.19365E-04   -0.15035E-05   242   0.193E-02    0.322E-03
SOL:  93  -0.18802E+01    0.00000E+00   -0.18802E+01    75
  FERMI_SHIFT =   2.441991229604810E-002
Total rVV10 correction in eV:      3.5026722   132.3383929
RMM:   7    -0.161415396459E+03   -0.17009E-04   -0.13607E-05   246   0.207E-02    0.158E-03
SOL:  94  -0.18800E+01    0.00000E+00   -0.18800E+01    72
  FERMI_SHIFT =   2.442239134792244E-002
Total rVV10 correction in eV:      3.5026709   132.3382882
RMM:   8    -0.161415405148E+03   -0.86891E-05   -0.96780E-06   241   0.178E-02
Total rVV10 correction in eV:      3.5026598   132.3377894
SOL:  95  -0.18798E+01    0.00000E+00   -0.18798E+01    72
  FERMI_SHIFT =   2.442239134792559E-002
Total rVV10 correction in eV:      3.5026688   132.3381564
   7 F= -.16141541E+03 E0= -.16141541E+03  d E =-.150555E-02  mag=     0.0000
 curvature:  -0.24 expect dE=-0.122E-02 dE for cont linesearch -0.584E-05
 trial: gam= 0.60306 g(F)=  0.512E-02 g(S)=  0.000E+00 ort = 0.494E-03 (trialstep = 0.715E+00)
 search vector abs. value=  0.934E-02
 bond charge predicted
       N       E                     dE             d eps       ncg     rms          rms(c)
SOL:  96  -0.18792E+01    0.00000E+00   -0.18792E+01    89
  FERMI_SHIFT =   2.442225681429480E-002
Total rVV10 correction in eV:      3.5027181   132.3381686
DAV:   1    -0.161411235248E+03    0.41612E-02   -0.13018E+00   416   0.452E+00    0.239E-01
SOL:  97  -0.18798E+01    0.00000E+00   -0.18798E+01    84
  FERMI_SHIFT =   2.441928210094602E-002
Total rVV10 correction in eV:      3.5027388   132.3399296
RMM:   2    -0.161415603393E+03   -0.43681E-02   -0.42416E-02   368   0.789E-01    0.133E-01
SOL:  98  -0.18804E+01    0.00000E+00   -0.18804E+01    82
  FERMI_SHIFT =   2.442289283843571E-002
Total rVV10 correction in eV:      3.5027288   132.3397106
RMM:   3    -0.161415428202E+03    0.17519E-03   -0.11444E-03   372   0.108E-01    0.903E-02
SOL:  99  -0.18814E+01    0.00000E+00   -0.18814E+01    86
  FERMI_SHIFT =   2.442280568031314E-002
Total rVV10 correction in eV:      3.5026933   132.3387452
RMM:   4    -0.161415814010E+03   -0.38581E-03   -0.75027E-04   368   0.109E-01    0.190E-02
SOL: 100  -0.18816E+01    0.00000E+00   -0.18816E+01    79
  FERMI_SHIFT =   2.442280568033707E-002
Total rVV10 correction in eV:      3.5026857   132.3387466
RMM:   5    -0.161415822370E+03   -0.83600E-05   -0.46849E-05   274   0.308E-02
Total rVV10 correction in eV:      3.5026606   132.3377896
SOL: 101  -0.18818E+01    0.00000E+00   -0.18818E+01    80
  FERMI_SHIFT =   2.442280568034247E-002
Total rVV10 correction in eV:      3.5026827   132.3387951
   8 F= -.16141582E+03 E0= -.16141582E+03  d E =-.417222E-03  mag=     0.0000
 trial-energy change:   -0.000417  1 .order   -0.000564   -0.003873    0.002745
 step:   0.3947(harm=  0.4182)  dis= 0.00229  next Energy=  -161.416450 (dE=-0.104E-02)
 bond charge predicted
       N       E                     dE             d eps       ncg     rms          rms(c)
SOL: 102  -0.18821E+01    0.00000E+00   -0.18821E+01    86
  FERMI_SHIFT =   2.442285192778171E-002
Total rVV10 correction in eV:      3.5026610   132.3387964
DAV:   1    -0.161415472201E+03    0.34181E-03   -0.25982E-01   448   0.202E+00    0.107E-01
SOL: 103  -0.18819E+01    0.00000E+00   -0.18819E+01    80
  FERMI_SHIFT =   2.441947100440023E-002
Total rVV10 correction in eV:      3.5026928   132.3393410
RMM:   2    -0.161416270185E+03   -0.79798E-03   -0.83077E-03   368   0.352E-01    0.582E-02
SOL: 104  -0.18817E+01    0.00000E+00   -0.18817E+01    77
  FERMI_SHIFT =   2.441947100469709E-002
Total rVV10 correction in eV:      3.5026899   132.3391262
RMM:   3    -0.161416285823E+03   -0.15638E-04   -0.22278E-04   354   0.513E-02    0.391E-02
SOL: 105  -0.18816E+01    0.00000E+00   -0.18816E+01    80
  FERMI_SHIFT =   2.442285192578947E-002
Total rVV10 correction in eV:      3.5026733   132.3383797
RMM:   4    -0.161416499006E+03   -0.21318E-03   -0.15183E-04   348   0.539E-02    0.739E-03
SOL: 106  -0.18816E+01    0.00000E+00   -0.18816E+01    74
  FERMI_SHIFT =   2.441947100476821E-002
Total rVV10 correction in eV:      3.5026730   132.3382651
RMM:   5    -0.161416514911E+03   -0.15905E-04   -0.14683E-05   242   0.207E-02    0.429E-03
SOL: 107  -0.18816E+01    0.00000E+00   -0.18816E+01    75
  FERMI_SHIFT =   2.442285192577409E-002
Total rVV10 correction in eV:      3.5026723   132.3381596
RMM:   6    -0.161416526399E+03   -0.11488E-04   -0.11646E-05   243   0.173E-02    0.190E-03
SOL: 108  -0.18816E+01    0.00000E+00   -0.18816E+01    70
  FERMI_SHIFT =   2.442285192576969E-002
Total rVV10 correction in eV:      3.5026704   132.3380937
RMM:   7    -0.161416532863E+03   -0.64642E-05   -0.14446E-05   248   0.207E-02
Total rVV10 correction in eV:      3.5026625   132.3377895
SOL: 109  -0.18816E+01    0.00000E+00   -0.18816E+01    70
  FERMI_SHIFT =   2.442285192577383E-002
Total rVV10 correction in eV:      3.5026688   132.3380268
   9 F= -.16141653E+03 E0= -.16141653E+03  d E =-.112772E-02  mag=     0.0000
 curvature:  -0.36 expect dE=-0.895E-03 dE for cont linesearch -0.408E-05
 trial: gam= 0.51024 g(F)=  0.250E-02 g(S)=  0.000E+00 ort = 0.326E-03 (trialstep = 0.651E+00)
 search vector abs. value=  0.526E-02
 bond charge predicted
       N       E                     dE             d eps       ncg     rms          rms(c)
SOL: 110  -0.18818E+01    0.00000E+00   -0.18818E+01    86
  FERMI_SHIFT =   2.442283316698135E-002
Total rVV10 correction in eV:      3.5026477   132.3380333
DAV:   1    -0.161415144883E+03    0.13815E-02   -0.58176E-01   392   0.301E+00    0.149E-01
SOL: 111  -0.18817E+01    0.00000E+00   -0.18817E+01    83
  FERMI_SHIFT =   2.442274848183676E-002
Total rVV10 correction in eV:      3.5026966   132.3391866
RMM:   2    -0.161416831602E+03   -0.16867E-02   -0.17915E-02   368   0.528E-01    0.809E-02
SOL: 112  -0.18817E+01    0.00000E+00   -0.18817E+01    80
  FERMI_SHIFT =   2.441963325029496E-002
Total rVV10 correction in eV:      3.5026992   132.3390355
RMM:   3    -0.161416805444E+03    0.26158E-04   -0.46971E-04   372   0.745E-02    0.573E-02
SOL: 113  -0.18819E+01    0.00000E+00   -0.18819E+01    83
  FERMI_SHIFT =   2.441977748207774E-002
Total rVV10 correction in eV:      3.5026895   132.3382197
RMM:   4    -0.161417083541E+03   -0.27810E-03   -0.32207E-04   368   0.803E-02    0.126E-02
SOL: 114  -0.18821E+01    0.00000E+00   -0.18821E+01    75
  FERMI_SHIFT =   2.441980605159970E-002
Total rVV10 correction in eV:      3.5026905   132.3381996
RMM:   5    -0.161417084446E+03   -0.90475E-06   -0.25372E-05   255   0.247E-02
Total rVV10 correction in eV:      3.5026756   132.3377896
SOL: 115  -0.18823E+01    0.00000E+00   -0.18823E+01    75
  FERMI_SHIFT =   2.442249140117311E-002
Total rVV10 correction in eV:      3.5026909   132.3381939
  10 F= -.16141708E+03 E0= -.16141708E+03  d E =-.551583E-03  mag=    -0.0000
 trial-energy change:   -0.000552  1 .order   -0.000572   -0.001735    0.000590
 step:   0.4854(harm=  0.4854)  dis= 0.00291  next Energy=  -161.417180 (dE=-0.647E-03)
 bond charge predicted
       N       E                     dE             d eps       ncg     rms          rms(c)
SOL: 116  -0.18823E+01    0.00000E+00   -0.18823E+01    80
  FERMI_SHIFT =   2.442249802153115E-002
Total rVV10 correction in eV:      3.5026964   132.3381942
DAV:   1    -0.161417048675E+03    0.34866E-04   -0.37382E-02   448   0.763E-01    0.379E-02
SOL: 117  -0.18824E+01    0.00000E+00   -0.18824E+01    77
  FERMI_SHIFT =   2.441982769407354E-002
Total rVV10 correction in eV:      3.5026991   132.3383936
RMM:   2    -0.161417139882E+03   -0.91207E-04   -0.11271E-03   368   0.136E-01    0.200E-02
SOL: 118  -0.18825E+01    0.00000E+00   -0.18825E+01    73
  FERMI_SHIFT =   2.441982769409706E-002
Total rVV10 correction in eV:      3.5026952   132.3383280
RMM:   3    -0.161417144401E+03   -0.45187E-05   -0.31593E-05   262   0.251E-02
Total rVV10 correction in eV:      3.5026703   132.3377896
SOL: 119  -0.18827E+01    0.00000E+00   -0.18827E+01    76
  FERMI_SHIFT =   2.441982769409377E-002
Total rVV10 correction in eV:      3.5026830   132.3380708
  11 F= -.16141714E+03 E0= -.16141714E+03  d E =-.611538E-03  mag=     0.0000
 curvature:  -0.48 expect dE=-0.555E-03 dE for cont linesearch -0.499E-06
 trial: gam= 0.51429 g(F)=  0.116E-02 g(S)=  0.000E+00 ort = 0.741E-04 (trialstep = 0.618E+00)
 search vector abs. value=  0.263E-02
 bond charge predicted
       N       E                     dE             d eps       ncg     rms          rms(c)
SOL: 120  -0.18830E+01    0.00000E+00   -0.18830E+01    86
  FERMI_SHIFT =   2.442249288875917E-002
Total rVV10 correction in eV:      3.5026755   132.3380737
DAV:   1    -0.161416491955E+03    0.64793E-03   -0.29811E-01   368   0.214E+00    0.105E-01
SOL: 121  -0.18832E+01    0.00000E+00   -0.18832E+01    80
  FERMI_SHIFT =   2.441977626197120E-002
Total rVV10 correction in eV:      3.5026946   132.3387719
RMM:   2    -0.161417445368E+03   -0.95341E-03   -0.93694E-03   368   0.386E-01    0.522E-02
SOL: 122  -0.18833E+01    0.00000E+00   -0.18833E+01    77
  FERMI_SHIFT =   2.441977626206716E-002
Total rVV10 correction in eV:      3.5026882   132.3386389
RMM:   3    -0.161417416119E+03    0.29249E-04   -0.19614E-04   356   0.538E-02    0.359E-02
SOL: 123  -0.18836E+01    0.00000E+00   -0.18836E+01    80
  FERMI_SHIFT =   2.442243535922006E-002
Total rVV10 correction in eV:      3.5026661   132.3380840
RMM:   4    -0.161417580024E+03   -0.16391E-03   -0.18358E-04   350   0.627E-02    0.737E-03
SOL: 124  -0.18837E+01    0.00000E+00   -0.18837E+01    73
  FERMI_SHIFT =   2.442249288812870E-002
Total rVV10 correction in eV:      3.5026653   132.3380692
RMM:   5    -0.161417581127E+03   -0.11024E-05   -0.38420E-05   263   0.299E-02
Total rVV10 correction in eV:      3.5026539   132.3377897
SOL: 125  -0.18839E+01    0.00000E+00   -0.18839E+01    75
  FERMI_SHIFT =   2.441980465273919E-002
Total rVV10 correction in eV:      3.5026642   132.3380549
  12 F= -.16141758E+03 E0= -.16141758E+03  d E =-.436726E-03  mag=    -0.0000
 trial-energy change:   -0.000437  1 .order   -0.000407   -0.000739   -0.000075
 step:   0.6874(harm=  0.6874)  dis= 0.00388  next Energy=  -161.417556 (dE=-0.411E-03)
 bond charge predicted
       N       E                     dE             d eps       ncg     rms          rms(c)
SOL: 126  -0.18839E+01    0.00000E+00   -0.18839E+01    76
  FERMI_SHIFT =   2.441980517012823E-002
Total rVV10 correction in eV:      3.5026633   132.3380549
DAV:   1    -0.161417575356E+03    0.46685E-05   -0.38836E-03   448   0.245E-01    0.123E-02
SOL: 127  -0.18840E+01    0.00000E+00   -0.18840E+01    72
  FERMI_SHIFT =   2.441986244367836E-002
Total rVV10 correction in eV:      3.5026642   132.3381092
RMM:   2    -0.161417585728E+03   -0.10372E-04   -0.17266E-04   368   0.582E-02    0.647E-03
SOL: 128  -0.18840E+01    0.00000E+00   -0.18840E+01    70
  FERMI_SHIFT =   2.441980517020670E-002
Total rVV10 correction in eV:      3.5026631   132.3380934
RMM:   3    -0.161417585727E+03    0.11278E-09   -0.19952E-05   253   0.228E-02
Total rVV10 correction in eV:      3.5026506   132.3377897
SOL: 129  -0.18842E+01    0.00000E+00   -0.18842E+01    73
  FERMI_SHIFT =   2.441866136042539E-002
Total rVV10 correction in eV:      3.5026600   132.3380351
  13 F= -.16141759E+03 E0= -.16141759E+03  d E =-.441326E-03  mag=     0.0000
 curvature:  -0.75 expect dE=-0.766E-03 dE for cont linesearch -0.160E-07
 trial: gam= 0.83368 g(F)=  0.102E-02 g(S)=  0.000E+00 ort =-0.747E-05 (trialstep = 0.586E+00)
 search vector abs. value=  0.283E-02
 bond charge predicted
       N       E                     dE             d eps       ncg     rms          rms(c)
SOL: 130  -0.18847E+01    0.00000E+00   -0.18847E+01    86
  FERMI_SHIFT =   2.441868115386421E-002
Total rVV10 correction in eV:      3.5026456   132.3380376
DAV:   1    -0.161416703724E+03    0.88200E-03   -0.28079E-01   368   0.208E+00    0.101E-01
SOL: 131  -0.18849E+01    0.00000E+00   -0.18849E+01    80
  FERMI_SHIFT =   2.441980528852780E-002
Total rVV10 correction in eV:      3.5026696   132.3386469
RMM:   2    -0.161417724921E+03   -0.10212E-02   -0.90046E-03   368   0.376E-01    0.539E-02
SOL: 132  -0.18850E+01    0.00000E+00   -0.18850E+01    77
  FERMI_SHIFT =   2.441896034170449E-002
Total rVV10 correction in eV:      3.5026668   132.3385134
RMM:   3    -0.161417687330E+03    0.37591E-04   -0.22043E-04   349   0.578E-02    0.371E-02
SOL: 133  -0.18853E+01    0.00000E+00   -0.18853E+01    81
  FERMI_SHIFT =   2.442217564922053E-002
Total rVV10 correction in eV:      3.5026542   132.3380242
RMM:   4    -0.161417835606E+03   -0.14828E-03   -0.24542E-04   348   0.682E-02    0.947E-03
SOL: 134  -0.18854E+01    0.00000E+00   -0.18854E+01    73
  FERMI_SHIFT =   2.442214669226064E-002
Total rVV10 correction in eV:      3.5026553   132.3380215
RMM:   5    -0.161417836860E+03   -0.12536E-05   -0.11032E-04   278   0.450E-02    0.476E-03
SOL: 135  -0.18856E+01    0.00000E+00   -0.18856E+01    74
  FERMI_SHIFT =   2.442214669226150E-002
Total rVV10 correction in eV:      3.5026558   132.3380142
RMM:   6    -0.161417839487E+03   -0.26280E-05   -0.81996E-05   274   0.386E-02
Total rVV10 correction in eV:      3.5026507   132.3377898
SOL: 136  -0.18857E+01    0.00000E+00   -0.18857E+01    69
  FERMI_SHIFT =   2.442217564922741E-002
Total rVV10 correction in eV:      3.5026557   132.3380102
  14 F= -.16141784E+03 E0= -.16141784E+03  d E =-.253760E-03  mag=    -0.0000
 trial-energy change:   -0.000254  1 .order   -0.000232   -0.000592    0.000128
 step:   0.4820(harm=  0.4820)  dis= 0.00246  next Energy=  -161.417829 (dE=-0.243E-03)
 bond charge predicted
       N       E                     dE             d eps       ncg     rms          rms(c)
SOL: 137  -0.18856E+01    0.00000E+00   -0.18856E+01    78
  FERMI_SHIFT =   2.442217457788284E-002
Total rVV10 correction in eV:      3.5026583   132.3380104
DAV:   1    -0.161417810544E+03    0.26316E-04   -0.89519E-03   448   0.373E-01    0.179E-02
SOL: 138  -0.18856E+01    0.00000E+00   -0.18856E+01    72
  FERMI_SHIFT =   2.441905416418659E-002
Total rVV10 correction in eV:      3.5026597   132.3380850
RMM:   2    -0.161417835874E+03   -0.25331E-04   -0.29665E-04   368   0.716E-02    0.959E-03
SOL: 139  -0.18857E+01    0.00000E+00   -0.18857E+01    69
  FERMI_SHIFT =   2.441905416419504E-002
Total rVV10 correction in eV:      3.5026587   132.3380558
RMM:   3    -0.161417837431E+03   -0.15569E-05   -0.11276E-05   243   0.179E-02
Total rVV10 correction in eV:      3.5026508   132.3377898
SOL: 140  -0.18858E+01    0.00000E+00   -0.18858E+01    72
  FERMI_SHIFT =   2.442327100939305E-002
Total rVV10 correction in eV:      3.5026556   132.3379538
  15 F= -.16141784E+03 E0= -.16141784E+03  d E =-.251704E-03  mag=    -0.0000
 curvature:  -0.68 expect dE=-0.475E-03 dE for cont linesearch -0.562E-06
 trial: gam= 0.67632 g(F)=  0.703E-03 g(S)=  0.000E+00 ort = 0.485E-04 (trialstep = 0.566E+00)
 search vector abs. value=  0.206E-02
 bond charge predicted
       N       E                     dE             d eps       ncg     rms          rms(c)
SOL: 141  -0.18862E+01    0.00000E+00   -0.18862E+01    85
  FERMI_SHIFT =   2.441905762986633E-002
Total rVV10 correction in eV:      3.5026537   132.3379564
DAV:   1    -0.161417085271E+03    0.75060E-03   -0.19944E-01   368   0.174E+00    0.917E-02
SOL: 142  -0.18862E+01    0.00000E+00   -0.18862E+01    80
  FERMI_SHIFT =   2.442314239580916E-002
Total rVV10 correction in eV:      3.5026762   132.3384743
RMM:   2    -0.161417815709E+03   -0.73044E-03   -0.66610E-03   368   0.322E-01    0.479E-02
SOL: 143  -0.18861E+01    0.00000E+00   -0.18861E+01    78
  FERMI_SHIFT =   2.442248447375026E-002
Total rVV10 correction in eV:      3.5026753   132.3383562
RMM:   3    -0.161417790318E+03    0.25392E-04   -0.15440E-04   344   0.476E-02    0.326E-02
SOL: 144  -0.18862E+01    0.00000E+00   -0.18862E+01    81
  FERMI_SHIFT =   2.442248447379555E-002
Total rVV10 correction in eV:      3.5026696   132.3380066
RMM:   4    -0.161417879363E+03   -0.89045E-04   -0.14298E-04   342   0.528E-02    0.649E-03
SOL: 145  -0.18863E+01    0.00000E+00   -0.18863E+01    74
  FERMI_SHIFT =   2.442256936383300E-002
Total rVV10 correction in eV:      3.5026705   132.3379870
RMM:   5    -0.161417882768E+03   -0.34048E-05   -0.62128E-05   270   0.359E-02
Total rVV10 correction in eV:      3.5026654   132.3377899
SOL: 146  -0.18864E+01    0.00000E+00   -0.18864E+01    74
  FERMI_SHIFT =   2.441972764526439E-002
Total rVV10 correction in eV:      3.5026711   132.3379901
  16 F= -.16141788E+03 E0= -.16141788E+03  d E =-.453366E-04  mag=    -0.0000
 trial-energy change:   -0.000045  1 .order   -0.000044   -0.000416    0.000327
 step:   0.3165(harm=  0.3165)  dis= 0.00177  next Energy=  -161.417954 (dE=-0.116E-03)
 bond charge predicted
       N       E                     dE             d eps       ncg     rms          rms(c)
SOL: 147  -0.18862E+01    0.00000E+00   -0.18862E+01    81
  FERMI_SHIFT =   2.441972441382334E-002
Total rVV10 correction in eV:      3.5026720   132.3379905
DAV:   1    -0.161417814275E+03    0.65088E-04   -0.38530E-02   432   0.764E-01    0.400E-02
SOL: 148  -0.18863E+01    0.00000E+00   -0.18863E+01    76
  FERMI_SHIFT =   2.441966769630141E-002
Total rVV10 correction in eV:      3.5026749   132.3381796
RMM:   2    -0.161417929458E+03   -0.11518E-03   -0.12899E-03   368   0.145E-01    0.207E-02
SOL: 149  -0.18863E+01    0.00000E+00   -0.18863E+01    73
  FERMI_SHIFT =   2.442265614011155E-002
Total rVV10 correction in eV:      3.5026722   132.3381201
RMM:   3    -0.161417930875E+03   -0.14171E-05   -0.41815E-05   264   0.300E-02
Total rVV10 correction in eV:      3.5026575   132.3377899
SOL: 150  -0.18864E+01    0.00000E+00   -0.18864E+01    76
  FERMI_SHIFT =   2.442373798593878E-002
Total rVV10 correction in eV:      3.5026643   132.3379299
  17 F= -.16141793E+03 E0= -.16141793E+03  d E =-.934442E-04  mag=    -0.0000
 curvature:  -0.44 expect dE=-0.146E-03 dE for cont linesearch -0.115E-06
 trial: gam= 0.50808 g(F)=  0.329E-03 g(S)=  0.000E+00 ort = 0.231E-04 (trialstep = 0.516E+00)
 search vector abs. value=  0.885E-03
 bond charge predicted
       N       E                     dE             d eps       ncg     rms          rms(c)
SOL: 151  -0.18865E+01    0.00000E+00   -0.18865E+01    82
  FERMI_SHIFT =   2.442372084164027E-002
Total rVV10 correction in eV:      3.5026799   132.3379305
DAV:   1    -0.161417780644E+03    0.14881E-03   -0.72964E-02   404   0.107E+00    0.493E-02
SOL: 152  -0.18865E+01    0.00000E+00   -0.18865E+01    76
  FERMI_SHIFT =   2.441951851306244E-002
Total rVV10 correction in eV:      3.5026871   132.3382548
RMM:   2    -0.161418047628E+03   -0.26698E-03   -0.24036E-03   368   0.203E-01    0.266E-02
SOL: 153  -0.18865E+01    0.00000E+00   -0.18865E+01    73
  FERMI_SHIFT =   2.441951851270094E-002
Total rVV10 correction in eV:      3.5026857   132.3381936
RMM:   3    -0.161418033868E+03    0.13760E-04   -0.71649E-05   300   0.382E-02    0.186E-02
SOL: 154  -0.18865E+01    0.00000E+00   -0.18865E+01    77
  FERMI_SHIFT =   2.442015964677380E-002
Total rVV10 correction in eV:      3.5026771   132.3378776
RMM:   4    -0.161418087373E+03   -0.53505E-04   -0.12170E-04   317   0.515E-02    0.382E-03
SOL: 155  -0.18865E+01    0.00000E+00   -0.18865E+01    68
  FERMI_SHIFT =   2.442220658134725E-002
Total rVV10 correction in eV:      3.5026764   132.3378706
RMM:   5    -0.161418089850E+03   -0.24767E-05   -0.87809E-05   274   0.399E-02
Total rVV10 correction in eV:      3.5026724   132.3377900
SOL: 156  -0.18865E+01    0.00000E+00   -0.18865E+01    69
  FERMI_SHIFT =   2.442229511973312E-002
Total rVV10 correction in eV:      3.5026757   132.3378684
  18 F= -.16141809E+03 E0= -.16141809E+03  d E =-.158974E-03  mag=     0.0000
 trial-energy change:   -0.000159  1 .order   -0.000125   -0.000176   -0.000073
 step:   0.8838(harm=  0.8838)  dis= 0.00223  next Energy=  -161.418082 (dE=-0.151E-03)
 bond charge predicted
       N       E                     dE             d eps       ncg     rms          rms(c)
SOL: 157  -0.18866E+01    0.00000E+00   -0.18866E+01    81
  FERMI_SHIFT =   2.442228004194241E-002
Total rVV10 correction in eV:      3.5026868   132.3378691
DAV:   1    -0.161417960869E+03    0.12650E-03   -0.36880E-02   440   0.760E-01    0.357E-02
SOL: 158  -0.18866E+01    0.00000E+00   -0.18866E+01    75
  FERMI_SHIFT =   2.441964607828215E-002
Total rVV10 correction in eV:      3.5026934   132.3381392
RMM:   2    -0.161418088257E+03   -0.12739E-03   -0.12020E-03   368   0.143E-01    0.192E-02
SOL: 159  -0.18866E+01    0.00000E+00   -0.18866E+01    72
  FERMI_SHIFT =   2.441964607803160E-002
Total rVV10 correction in eV:      3.5026928   132.3381047
RMM:   3    -0.161418086065E+03    0.21923E-05   -0.33535E-05   266   0.271E-02
Total rVV10 correction in eV:      3.5026845   132.3377900
SOL: 160  -0.18866E+01    0.00000E+00   -0.18866E+01    77
  FERMI_SHIFT =   2.441978765678900E-002
Total rVV10 correction in eV:      3.5026873   132.3379013
  19 F= -.16141809E+03 E0= -.16141809E+03  d E =-.155189E-03  mag=     0.0000
 curvature:  -1.15 expect dE=-0.269E-03 dE for cont linesearch -0.299E-06
 trial: gam= 0.63025 g(F)=  0.235E-03 g(S)=  0.000E+00 ort =-0.152E-04 (trialstep = 0.589E+00)
 search vector abs. value=  0.567E-03
 bond charge predicted
       N       E                     dE             d eps       ncg     rms          rms(c)
SOL: 161  -0.18865E+01    0.00000E+00   -0.18865E+01    82
  FERMI_SHIFT =   2.441981808664073E-002
Total rVV10 correction in eV:      3.5027065   132.3379024
DAV:   1    -0.161417968246E+03    0.12001E-03   -0.56719E-02   368   0.915E-01    0.451E-02
SOL: 162  -0.18866E+01    0.00000E+00   -0.18866E+01    77
  FERMI_SHIFT =   2.442259177535475E-002
Total rVV10 correction in eV:      3.5027095   132.3381979
RMM:   2    -0.161418153269E+03   -0.18502E-03   -0.18744E-03   368   0.173E-01    0.253E-02
SOL: 163  -0.18866E+01    0.00000E+00   -0.18866E+01    75
  FERMI_SHIFT =   2.442253540232980E-002
Total rVV10 correction in eV:      3.5027067   132.3381545
RMM:   3    -0.161418149320E+03    0.39493E-05   -0.56943E-05   281   0.330E-02
Total rVV10 correction in eV:      3.5026890   132.3377901
SOL: 164  -0.18866E+01    0.00000E+00   -0.18866E+01    79
  FERMI_SHIFT =   2.441987562082612E-002
Total rVV10 correction in eV:      3.5026960   132.3379206
  20 F= -.16141815E+03 E0= -.16141815E+03  d E =-.632550E-04  mag=     0.0000
 trial-energy change:   -0.000063  1 .order   -0.000064   -0.000133    0.000005
 step:   0.5692(harm=  0.5692)  dis= 0.00086  next Energy=  -161.418150 (dE=-0.641E-04)
 bond charge predicted
       N       E                     dE             d eps       ncg     rms          rms(c)
SOL: 165  -0.18867E+01    0.00000E+00   -0.18867E+01    66
  FERMI_SHIFT =   2.441987460549126E-002
Total rVV10 correction in eV:      3.5026953   132.3379206
DAV:   1    -0.161418191077E+03   -0.37808E-04   -0.19788E-04   376   0.643E-02    0.370E-03
SOL: 166  -0.18866E+01    0.00000E+00   -0.18866E+01    71
  FERMI_SHIFT =   2.441987460554940E-002
Total rVV10 correction in eV:      3.5026940   132.3379170
RMM:   2    -0.161418193592E+03   -0.25159E-05   -0.10974E-04   278   0.450E-02    0.266E-03
SOL: 167  -0.18866E+01    0.00000E+00   -0.18866E+01    68
  FERMI_SHIFT =   2.441987460555592E-002
Total rVV10 correction in eV:      3.5026935   132.3379134
RMM:   3    -0.161418190018E+03    0.35741E-05   -0.34057E-05   259   0.267E-02
Total rVV10 correction in eV:      3.5026897   132.3377901
SOL: 168  -0.18866E+01    0.00000E+00   -0.18866E+01    69
  FERMI_SHIFT =   2.442242296092896E-002
Total rVV10 correction in eV:      3.5026930   132.3379084
  21 F= -.16141819E+03 E0= -.16141819E+03  d E =-.103954E-03  mag=     0.0000
 curvature:  -0.72 expect dE=-0.233E-03 dE for cont linesearch -0.497E-06
 trial: gam= 1.35884 g(F)=  0.326E-03 g(S)=  0.000E+00 ort = 0.198E-04 (trialstep = 0.233E+00)
 search vector abs. value=  0.143E-02
 bond charge predicted
       N       E                     dE             d eps       ncg     rms          rms(c)
SOL: 169  -0.18866E+01    0.00000E+00   -0.18866E+01    80
  FERMI_SHIFT =   2.442240394732149E-002
Total rVV10 correction in eV:      3.5027002   132.3379090
DAV:   1    -0.161418171680E+03    0.21912E-04   -0.23749E-02   368   0.582E-01    0.275E-02
SOL: 170  -0.18865E+01    0.00000E+00   -0.18865E+01    74
  FERMI_SHIFT =   2.442246128647453E-002
Total rVV10 correction in eV:      3.5027057   132.3380912
RMM:   2    -0.161418247336E+03   -0.75656E-04   -0.77908E-04   368   0.112E-01    0.151E-02
SOL: 171  -0.18865E+01    0.00000E+00   -0.18865E+01    71
  FERMI_SHIFT =   2.442246128673493E-002
Total rVV10 correction in eV:      3.5027050   132.3380634
RMM:   3    -0.161418244993E+03    0.23430E-05   -0.27255E-05   256   0.245E-02
Total rVV10 correction in eV:      3.5026969   132.3377902
SOL: 172  -0.18864E+01    0.00000E+00   -0.18864E+01    75
  FERMI_SHIFT =   2.441986537389730E-002
Total rVV10 correction in eV:      3.5027004   132.3379106
  22 F= -.16141824E+03 E0= -.16141824E+03  d E =-.549745E-04  mag=    -0.0000
 trial-energy change:   -0.000055  1 .order   -0.000068   -0.000082   -0.000053
 step:   0.6613(harm=  0.6613)  dis= 0.00139  next Energy=  -161.418307 (dE=-0.117E-03)
 bond charge predicted
       N       E                     dE             d eps       ncg     rms          rms(c)
SOL: 173  -0.18864E+01    0.00000E+00   -0.18864E+01    83
  FERMI_SHIFT =   2.441989791115436E-002
Total rVV10 correction in eV:      3.5027135   132.3379124
DAV:   1    -0.161418032421E+03    0.21492E-03   -0.79592E-02   368   0.106E+00    0.502E-02
SOL: 174  -0.18863E+01    0.00000E+00   -0.18863E+01    77
  FERMI_SHIFT =   2.441984062613718E-002
Total rVV10 correction in eV:      3.5027241   132.3382865
RMM:   2    -0.161418283702E+03   -0.25128E-03   -0.25248E-03   368   0.200E-01    0.273E-02
SOL: 175  -0.18863E+01    0.00000E+00   -0.18863E+01    74
  FERMI_SHIFT =   2.441984062567128E-002
Total rVV10 correction in eV:      3.5027230   132.3382424
RMM:   3    -0.161418276734E+03    0.69684E-05   -0.79646E-05   290   0.371E-02
Total rVV10 correction in eV:      3.5027090   132.3377902
SOL: 176  -0.18861E+01    0.00000E+00   -0.18861E+01    78
  FERMI_SHIFT =   2.442242866897076E-002
Total rVV10 correction in eV:      3.5027148   132.3379889
  23 F= -.16141828E+03 E0= -.16141828E+03  d E =-.867155E-04  mag=     0.0000
 curvature:  -1.34 expect dE=-0.583E-03 dE for cont linesearch -0.932E-07
 trial: gam= 1.36710 g(F)=  0.436E-03 g(S)=  0.000E+00 ort = 0.996E-05 (trialstep = 0.145E+00)
 search vector abs. value=  0.313E-02
 bond charge predicted
       N       E                     dE             d eps       ncg     rms          rms(c)
SOL: 177  -0.18861E+01    0.00000E+00   -0.18861E+01    79
  FERMI_SHIFT =   2.442241448678160E-002
Total rVV10 correction in eV:      3.5027193   132.3379891
DAV:   1    -0.161418317166E+03   -0.33463E-04   -0.19627E-02   400   0.528E-01    0.259E-02
SOL: 178  -0.18861E+01    0.00000E+00   -0.18861E+01    75
  FERMI_SHIFT =   2.441988321235816E-002
Total rVV10 correction in eV:      3.5027246   132.3381547
RMM:   2    -0.161418381701E+03   -0.64535E-04   -0.71546E-04   368   0.113E-01    0.132E-02
SOL: 179  -0.18860E+01    0.00000E+00   -0.18860E+01    73
  FERMI_SHIFT =   2.441988321216682E-002
Total rVV10 correction in eV:      3.5027239   132.3381272
RMM:   3    -0.161418379811E+03    0.18898E-05   -0.64889E-05   272   0.362E-02
Total rVV10 correction in eV:      3.5027141   132.3377903
SOL: 180  -0.18859E+01    0.00000E+00   -0.18859E+01    76
  FERMI_SHIFT =   2.441991204470242E-002
Total rVV10 correction in eV:      3.5027201   132.3380015
  24 F= -.16141838E+03 E0= -.16141838E+03  d E =-.103078E-03  mag=     0.0000
 ZBRENT: can't locate minimum, use default step
 trial-energy change:   -0.000103  1 .order   -0.000059   -0.000065   -0.000053
 step:   0.5807(harm=  0.7884)  dis= 0.00214  next Energy=  -161.418454 (dE=-0.177E-03)
 bond charge predicted
       N       E                     dE             d eps       ncg     rms          rms(c)
SOL: 181  -0.18860E+01    0.00000E+00   -0.18860E+01    84
  FERMI_SHIFT =   2.441994938920675E-002
Total rVV10 correction in eV:      3.5027338   132.3380033
DAV:   1    -0.161417775341E+03    0.60636E-03   -0.18061E-01   368   0.160E+00    0.763E-02
SOL: 182  -0.18859E+01    0.00000E+00   -0.18859E+01    79
  FERMI_SHIFT =   2.442240427506379E-002
Total rVV10 correction in eV:      3.5027533   132.3385692
RMM:   2    -0.161418414457E+03   -0.63912E-03   -0.58727E-03   368   0.305E-01    0.424E-02
SOL: 183  -0.18858E+01    0.00000E+00   -0.18858E+01    76
  FERMI_SHIFT =   2.441992089272016E-002
Total rVV10 correction in eV:      3.5027522   132.3384983
RMM:   3    -0.161418382174E+03    0.32283E-04   -0.18863E-04   342   0.555E-02    0.301E-02
SOL: 184  -0.18857E+01    0.00000E+00   -0.18857E+01    81
  FERMI_SHIFT =   2.442003290991995E-002
Total rVV10 correction in eV:      3.5027399   132.3380596
RMM:   4    -0.161418448146E+03   -0.65972E-04   -0.25603E-04   338   0.715E-02    0.777E-03
SOL: 185  -0.18856E+01    0.00000E+00   -0.18856E+01    72
  FERMI_SHIFT =   2.442003290990066E-002
Total rVV10 correction in eV:      3.5027394   132.3380512
RMM:   5    -0.161418501523E+03   -0.53377E-04   -0.18791E-04   283   0.578E-02    0.443E-03
SOL: 186  -0.18856E+01    0.00000E+00   -0.18856E+01    72
  FERMI_SHIFT =   2.442226469100239E-002
Total rVV10 correction in eV:      3.5027386   132.3380418
RMM:   6    -0.161418502629E+03   -0.11064E-05   -0.86489E-05   273   0.395E-02
Total rVV10 correction in eV:      3.5027296   132.3377903
SOL: 187  -0.18856E+01    0.00000E+00   -0.18856E+01    69
  FERMI_SHIFT =   2.442223720734044E-002
Total rVV10 correction in eV:      3.5027382   132.3380319
  25 F= -.16141850E+03 E0= -.16141850E+03  d E =-.225896E-03  mag=    -0.0000
 curvature:  -2.46 expect dE=-0.115E-02 dE for cont linesearch -0.116E-05
 trial: gam= 1.28213 g(F)=  0.467E-03 g(S)=  0.000E+00 ort = 0.385E-04 (trialstep = 0.127E+00)
 search vector abs. value=  0.571E-02
 bond charge predicted
       N       E                     dE             d eps       ncg     rms          rms(c)
SOL: 188  -0.18856E+01    0.00000E+00   -0.18856E+01    80
  FERMI_SHIFT =   2.442222817680431E-002
Total rVV10 correction in eV:      3.5027441   132.3380323
DAV:   1    -0.161418451048E+03    0.50475E-04   -0.29648E-02   416   0.641E-01    0.283E-02
SOL: 189  -0.18856E+01    0.00000E+00   -0.18856E+01    74
  FERMI_SHIFT =   2.442228291596533E-002
Total rVV10 correction in eV:      3.5027488   132.3382170
RMM:   2    -0.161418545522E+03   -0.94474E-04   -0.93693E-04   368   0.122E-01    0.159E-02
SOL: 190  -0.18857E+01    0.00000E+00   -0.18857E+01    72
  FERMI_SHIFT =   2.442228291611467E-002
Total rVV10 correction in eV:      3.5027479   132.3381905
RMM:   3    -0.161418543500E+03    0.20222E-05   -0.24549E-05   252   0.220E-02
Total rVV10 correction in eV:      3.5027342   132.3377904
SOL: 191  -0.18857E+01    0.00000E+00   -0.18857E+01    77
  FERMI_SHIFT =   2.442222817780557E-002
Total rVV10 correction in eV:      3.5027415   132.3380140
  26 F= -.16141854E+03 E0= -.16141854E+03  d E =-.408703E-04  mag=    -0.0000
 ZBRENT: can't locate minimum, use default step
 trial-energy change:   -0.000041  1 .order   -0.000058   -0.000066   -0.000051
 step:   0.5092(harm=  0.5546)  dis= 0.00286  next Energy=  -161.418646 (dE=-0.143E-03)
 bond charge predicted
       N       E                     dE             d eps       ncg     rms          rms(c)
SOL: 192  -0.18857E+01    0.00000E+00   -0.18857E+01    85
  FERMI_SHIFT =   2.442221123331592E-002
Total rVV10 correction in eV:      3.5027595   132.3380173
DAV:   1    -0.161417702452E+03    0.84307E-03   -0.26435E-01   368   0.191E+00    0.841E-02
SOL: 193  -0.18858E+01    0.00000E+00   -0.18858E+01    79
  FERMI_SHIFT =   2.442234427564476E-002
Total rVV10 correction in eV:      3.5027758   132.3386666
RMM:   2    -0.161418568554E+03   -0.86610E-03   -0.81080E-03   368   0.354E-01    0.469E-02
SOL: 194  -0.18859E+01    0.00000E+00   -0.18859E+01    77
  FERMI_SHIFT =   2.441995426583632E-002
Total rVV10 correction in eV:      3.5027734   132.3385978
RMM:   3    -0.161418529774E+03    0.38780E-04   -0.18762E-04   345   0.477E-02    0.338E-02
SOL: 195  -0.18860E+01    0.00000E+00   -0.18860E+01    81
  FERMI_SHIFT =   2.442000776460451E-002
Total rVV10 correction in eV:      3.5027558   132.3380904
RMM:   4    -0.161418681274E+03   -0.15150E-03   -0.16764E-04   344   0.576E-02    0.891E-03
SOL: 196  -0.18860E+01    0.00000E+00   -0.18860E+01    71
  FERMI_SHIFT =   2.442229088384185E-002
Total rVV10 correction in eV:      3.5027549   132.3380821
RMM:   5    -0.161418680816E+03    0.45752E-06   -0.39649E-05   260   0.291E-02
Total rVV10 correction in eV:      3.5027461   132.3377904
SOL: 197  -0.18860E+01    0.00000E+00   -0.18860E+01    73
  FERMI_SHIFT =   2.442229088384115E-002
Total rVV10 correction in eV:      3.5027538   132.3380759
  27 F= -.16141868E+03 E0= -.16141868E+03  d E =-.178187E-03  mag=    -0.0000
 curvature:  -3.03 expect dE=-0.974E-03 dE for cont linesearch -0.158E-04
 ZBRENT: increasing intervall
 opt :   1.2731  next Energy=  -161.418641 (dE=-0.138E-03)
 bond charge predicted
       N       E                     dE             d eps       ncg     rms          rms(c)
SOL: 198  -0.18860E+01    0.00000E+00   -0.18860E+01    89
  FERMI_SHIFT =   2.442229488487679E-002
Total rVV10 correction in eV:      3.5027900   132.3380848
DAV:   1    -0.161414608024E+03    0.40732E-02   -0.10653E+00   368   0.384E+00    0.169E-01
SOL: 199  -0.18862E+01    0.00000E+00   -0.18862E+01    83
  FERMI_SHIFT =   2.441993190748595E-002
Total rVV10 correction in eV:      3.5028252   132.3395090
RMM:   2    -0.161418332706E+03   -0.37247E-02   -0.32902E-02   368   0.707E-01    0.960E-02
SOL: 200  -0.18864E+01    0.00000E+00   -0.18864E+01    80
  FERMI_SHIFT =   2.441993190713695E-002
Total rVV10 correction in eV:      3.5028215   132.3393867
RMM:   3    -0.161418175296E+03    0.15741E-03   -0.71401E-04   372   0.882E-02    0.694E-02
SOL: 201  -0.18867E+01    0.00000E+00   -0.18867E+01    85
  FERMI_SHIFT =   2.442234359908116E-002
Total rVV10 correction in eV:      3.5027875   132.3383618
RMM:   4    -0.161418597274E+03   -0.42198E-03   -0.57423E-04   364   0.985E-02    0.186E-02
SOL: 202  -0.18867E+01    0.00000E+00   -0.18867E+01    75
  FERMI_SHIFT =   2.442234359909459E-002
Total rVV10 correction in eV:      3.5027856   132.3383501
RMM:   5    -0.161418598404E+03   -0.11302E-05   -0.73502E-05   272   0.367E-02
Total rVV10 correction in eV:      3.5027709   132.3377905
SOL: 203  -0.18868E+01    0.00000E+00   -0.18868E+01    77
  FERMI_SHIFT =   2.442234359909048E-002
Total rVV10 correction in eV:      3.5027834   132.3383434
  28 F= -.16141860E+03 E0= -.16141860E+03  d E =-.957743E-04  mag=    -0.0000
 curvature:   7.70 expect dE= 0.136E-01 dE for cont linesearch  0.174E-03
 ZBRENT: bracketing found
 ZBRENT: interpolating
 opt :   0.7570  next Energy=  -161.418702 (dE=-0.200E-03)
 bond charge predicted
       N       E                     dE             d eps       ncg     rms          rms(c)
SOL: 204  -0.18868E+01    0.00000E+00   -0.18868E+01    87
  FERMI_SHIFT =   2.442233776124468E-002
Total rVV10 correction in eV:      3.5027587   132.3383465
DAV:   1    -0.161416854602E+03    0.17427E-02   -0.48419E-01   384   0.259E+00    0.112E-01
SOL: 205  -0.18866E+01    0.00000E+00   -0.18866E+01    81
  FERMI_SHIFT =   2.442236296979110E-002
Total rVV10 correction in eV:      3.5027869   132.3391360
RMM:   2    -0.161418521615E+03   -0.16670E-02   -0.14792E-02   368   0.477E-01    0.647E-02
SOL: 206  -0.18866E+01    0.00000E+00   -0.18866E+01    77
  FERMI_SHIFT =   2.441996114196332E-002
Total rVV10 correction in eV:      3.5027838   132.3389963
RMM:   3    -0.161418469216E+03    0.52398E-04   -0.32108E-04   359   0.632E-02    0.468E-02
SOL: 207  -0.18864E+01    0.00000E+00   -0.18864E+01    82
  FERMI_SHIFT =   2.441998758943441E-002
Total rVV10 correction in eV:      3.5027615   132.3381036
RMM:   4    -0.161418722609E+03   -0.25339E-03   -0.30167E-04   356   0.755E-02    0.113E-02
SOL: 208  -0.18864E+01    0.00000E+00   -0.18864E+01    72
  FERMI_SHIFT =   2.441998758943928E-002
Total rVV10 correction in eV:      3.5027615   132.3380750
RMM:   5    -0.161418720043E+03    0.25657E-05   -0.87133E-05   273   0.396E-02
Total rVV10 correction in eV:      3.5027565   132.3377905
SOL: 209  -0.18864E+01    0.00000E+00   -0.18864E+01    73
  FERMI_SHIFT =   2.442231243024644E-002
Total rVV10 correction in eV:      3.5027613   132.3380324
  29 F= -.16141872E+03 E0= -.16141872E+03  d E =-.217413E-03  mag=    -0.0000
 curvature:  -0.95 expect dE=-0.542E-03 dE for cont linesearch -0.653E-06
 trial: gam= 1.14577 g(F)=  0.573E-03 g(S)=  0.000E+00 ort = 0.628E-04 (trialstep = 0.176E+00)
 search vector abs. value=  0.821E-02
 bond charge predicted
       N       E                     dE             d eps       ncg     rms          rms(c)
SOL: 210  -0.18865E+01    0.00000E+00   -0.18865E+01    82
  FERMI_SHIFT =   2.442231648889236E-002
Total rVV10 correction in eV:      3.5027680   132.3380331
DAV:   1    -0.161418536045E+03    0.18656E-03   -0.80159E-02   384   0.104E+00    0.447E-02
SOL: 211  -0.18865E+01    0.00000E+00   -0.18865E+01    77
  FERMI_SHIFT =   2.442234129069248E-002
Total rVV10 correction in eV:      3.5027757   132.3382897
RMM:   2    -0.161418791668E+03   -0.25562E-03   -0.24902E-03   368   0.199E-01    0.260E-02
SOL: 212  -0.18865E+01    0.00000E+00   -0.18865E+01    73
  FERMI_SHIFT =   2.442234129075307E-002
Total rVV10 correction in eV:      3.5027746   132.3382439
RMM:   3    -0.161418770316E+03    0.21352E-04   -0.67446E-05   282   0.351E-02    0.190E-02
SOL: 213  -0.18866E+01    0.00000E+00   -0.18866E+01    78
  FERMI_SHIFT =   2.442000888555326E-002
Total rVV10 correction in eV:      3.5027652   132.3379309
RMM:   4    -0.161418824333E+03   -0.54016E-04   -0.12710E-04   297   0.498E-02    0.451E-03
SOL: 214  -0.18866E+01    0.00000E+00   -0.18866E+01    67
  FERMI_SHIFT =   2.442000888555688E-002
Total rVV10 correction in eV:      3.5027649   132.3379230
RMM:   5    -0.161418824358E+03   -0.25486E-07   -0.93681E-05   274   0.403E-02
Total rVV10 correction in eV:      3.5027613   132.3377905
SOL: 215  -0.18866E+01    0.00000E+00   -0.18866E+01    67
  FERMI_SHIFT =   2.442229041203972E-002
Total rVV10 correction in eV:      3.5027645   132.3379120
  30 F= -.16141882E+03 E0= -.16141882E+03  d E =-.104315E-03  mag=    -0.0000
 trial-energy change:   -0.000104  1 .order   -0.000097   -0.000114   -0.000080
 step:   0.5953(harm=  0.5953)  dis= 0.00413  next Energy=  -161.418912 (dE=-0.192E-03)
 bond charge predicted
       N       E                     dE             d eps       ncg     rms          rms(c)
SOL: 216  -0.18867E+01    0.00000E+00   -0.18867E+01    86
  FERMI_SHIFT =   2.441998260043840E-002
Total rVV10 correction in eV:      3.5027807   132.3379176
DAV:   1    -0.161417226248E+03    0.15981E-02   -0.45655E-01   368   0.249E+00    0.109E-01
SOL: 217  -0.18868E+01    0.00000E+00   -0.18868E+01    81
  FERMI_SHIFT =   2.442238892836282E-002
Total rVV10 correction in eV:      3.5028038   132.3387558
RMM:   2    -0.161418783186E+03   -0.15569E-02   -0.14111E-02   368   0.462E-01    0.622E-02
SOL: 218  -0.18869E+01    0.00000E+00   -0.18869E+01    78
  FERMI_SHIFT =   2.442238892836633E-002
Total rVV10 correction in eV:      3.5028017   132.3386804
RMM:   3    -0.161418730229E+03    0.52957E-04   -0.30629E-04   358   0.591E-02    0.454E-02
SOL: 219  -0.18871E+01    0.00000E+00   -0.18871E+01    83
  FERMI_SHIFT =   2.441998260052772E-002
Total rVV10 correction in eV:      3.5027804   132.3380130
RMM:   4    -0.161418925082E+03   -0.19485E-03   -0.26409E-04   352   0.669E-02    0.120E-02
SOL: 220  -0.18871E+01    0.00000E+00   -0.18871E+01    72
  FERMI_SHIFT =   2.442231738830042E-002
Total rVV10 correction in eV:      3.5027800   132.3380188
RMM:   5    -0.161418922333E+03    0.27489E-05   -0.51807E-05   267   0.317E-02
Total rVV10 correction in eV:      3.5027742   132.3377904
SOL: 221  -0.18871E+01    0.00000E+00   -0.18871E+01    74
  FERMI_SHIFT =   2.442000611151518E-002
Total rVV10 correction in eV:      3.5027790   132.3380093
  31 F= -.16141892E+03 E0= -.16141892E+03  d E =-.202290E-03  mag=    -0.0000
 curvature:  -3.79 expect dE=-0.199E-02 dE for cont linesearch -0.574E-06
 trial: gam= 0.77620 g(F)=  0.526E-03 g(S)=  0.000E+00 ort = 0.353E-04 (trialstep = 0.260E+00)
 search vector abs. value=  0.553E-02
 bond charge predicted
       N       E                     dE             d eps       ncg     rms          rms(c)
SOL: 222  -0.18872E+01    0.00000E+00   -0.18872E+01    82
  FERMI_SHIFT =   2.442233893303908E-002
Total rVV10 correction in eV:      3.5027776   132.3380106
DAV:   1    -0.161418609519E+03    0.31556E-03   -0.12028E-01   416   0.127E+00    0.556E-02
SOL: 223  -0.18873E+01    0.00000E+00   -0.18873E+01    78
  FERMI_SHIFT =   2.441991381096380E-002
Total rVV10 correction in eV:      3.5027917   132.3383966
RMM:   2    -0.161418995897E+03   -0.38638E-03   -0.38024E-03   368   0.240E-01    0.313E-02
SOL: 224  -0.18873E+01    0.00000E+00   -0.18873E+01    75
  FERMI_SHIFT =   2.442240912063418E-002
Total rVV10 correction in eV:      3.5027915   132.3383528
RMM:   3    -0.161418975003E+03    0.20894E-04   -0.99915E-05   306   0.375E-02    0.225E-02
SOL: 225  -0.18874E+01    0.00000E+00   -0.18874E+01    80
  FERMI_SHIFT =   2.441991381102671E-002
Total rVV10 correction in eV:      3.5027839   132.3380232
RMM:   4    -0.161419052406E+03   -0.77403E-04   -0.12936E-04   313   0.505E-02    0.553E-03
SOL: 226  -0.18874E+01    0.00000E+00   -0.18874E+01    69
  FERMI_SHIFT =   2.441991381103381E-002
Total rVV10 correction in eV:      3.5027838   132.3380138
RMM:   5    -0.161419050467E+03    0.19391E-05   -0.63806E-05   267   0.341E-02
Total rVV10 correction in eV:      3.5027800   132.3377904
SOL: 227  -0.18874E+01    0.00000E+00   -0.18874E+01    70
  FERMI_SHIFT =   2.442240912061933E-002
Total rVV10 correction in eV:      3.5027840   132.3380076
  32 F= -.16141905E+03 E0= -.16141905E+03  d E =-.128135E-03  mag=    -0.0000
 trial-energy change:   -0.000128  1 .order   -0.000119   -0.000144   -0.000094
 step:   0.7513(harm=  0.7513)  dis= 0.00435  next Energy=  -161.419130 (dE=-0.208E-03)
 bond charge predicted
       N       E                     dE             d eps       ncg     rms          rms(c)
SOL: 228  -0.18876E+01    0.00000E+00   -0.18876E+01    85
  FERMI_SHIFT =   2.442245985411255E-002
Total rVV10 correction in eV:      3.5027814   132.3380130
DAV:   1    -0.161417567251E+03    0.14852E-02   -0.42895E-01   368   0.239E+00    0.104E-01
SOL: 229  -0.18877E+01    0.00000E+00   -0.18877E+01    80
  FERMI_SHIFT =   2.442254861799970E-002
Total rVV10 correction in eV:      3.5028093   132.3388030
RMM:   2    -0.161418994340E+03   -0.14271E-02   -0.13293E-02   368   0.446E-01    0.592E-02
SOL: 230  -0.18877E+01    0.00000E+00   -0.18877E+01    78
  FERMI_SHIFT =   2.441975086071760E-002
Total rVV10 correction in eV:      3.5028091   132.3387342
RMM:   3    -0.161418929221E+03    0.65119E-04   -0.30735E-04   356   0.579E-02    0.429E-02
SOL: 231  -0.18878E+01    0.00000E+00   -0.18878E+01    83
  FERMI_SHIFT =   2.441979478929629E-002
Total rVV10 correction in eV:      3.5027953   132.3381457
RMM:   4    -0.161419118334E+03   -0.18911E-03   -0.26117E-04   350   0.675E-02    0.107E-02
SOL: 232  -0.18879E+01    0.00000E+00   -0.18879E+01    72
  FERMI_SHIFT =   2.442245985257796E-002
Total rVV10 correction in eV:      3.5027952   132.3381313
RMM:   5    -0.161419117595E+03    0.73878E-06   -0.46836E-05   264   0.302E-02
Total rVV10 correction in eV:      3.5027890   132.3377902
SOL: 233  -0.18879E+01    0.00000E+00   -0.18879E+01    75
  FERMI_SHIFT =   2.442245985257348E-002
Total rVV10 correction in eV:      3.5027955   132.3381257
  33 F= -.16141912E+03 E0= -.16141912E+03  d E =-.195262E-03  mag=     0.0000
 curvature:  -3.76 expect dE=-0.478E-02 dE for cont linesearch -0.263E-05
 trial: gam= 2.71057 g(F)=  0.127E-02 g(S)=  0.000E+00 ort =-0.622E-04 (trialstep = 0.477E-01)
 search vector abs. value=  0.416E-01
 bond charge predicted
       N       E                     dE             d eps       ncg     rms          rms(c)
SOL: 234  -0.18880E+01    0.00000E+00   -0.18880E+01    79
  FERMI_SHIFT =   2.442247301297659E-002
Total rVV10 correction in eV:      3.5027948   132.3381260
DAV:   1    -0.161419061633E+03    0.56701E-04   -0.30315E-02   424   0.632E-01    0.285E-02
SOL: 235  -0.18880E+01    0.00000E+00   -0.18880E+01    74
  FERMI_SHIFT =   2.442249489146872E-002
Total rVV10 correction in eV:      3.5028004   132.3382896
RMM:   2    -0.161419162442E+03   -0.10081E-03   -0.10083E-03   368   0.126E-01    0.156E-02
SOL: 236  -0.18881E+01    0.00000E+00   -0.18881E+01    72
  FERMI_SHIFT =   2.442249489140091E-002
Total rVV10 correction in eV:      3.5028000   132.3382642
RMM:   3    -0.161419156524E+03    0.59179E-05   -0.35064E-05   255   0.263E-02
Total rVV10 correction in eV:      3.5027889   132.3377902
SOL: 237  -0.18881E+01    0.00000E+00   -0.18881E+01    77
  FERMI_SHIFT =   2.441987258804169E-002
Total rVV10 correction in eV:      3.5027955   132.3380963
  34 F= -.16141916E+03 E0= -.16141916E+03  d E =-.389291E-04  mag=     0.0000
 ZBRENT: can't locate minimum, use default step
 trial-energy change:   -0.000039  1 .order   -0.000048   -0.000053   -0.000043
 step:   0.1906(harm=  0.2493)  dis= 0.00341  next Energy=  -161.419255 (dE=-0.138E-03)
 bond charge predicted
       N       E                     dE             d eps       ncg     rms          rms(c)
SOL: 238  -0.18882E+01    0.00000E+00   -0.18882E+01    84
  FERMI_SHIFT =   2.442249702222687E-002
Total rVV10 correction in eV:      3.5027935   132.3380995
DAV:   1    -0.161418353227E+03    0.80921E-03   -0.26881E-01   368   0.188E+00    0.822E-02
SOL: 239  -0.18883E+01    0.00000E+00   -0.18883E+01    78
  FERMI_SHIFT =   2.442260502520280E-002
Total rVV10 correction in eV:      3.5028122   132.3386746
RMM:   2    -0.161419225289E+03   -0.87206E-03   -0.82642E-03   368   0.354E-01    0.462E-02
SOL: 240  -0.18884E+01    0.00000E+00   -0.18884E+01    76
  FERMI_SHIFT =   2.441975919821864E-002
Total rVV10 correction in eV:      3.5028106   132.3386055
RMM:   3    -0.161419174116E+03    0.51173E-04   -0.20927E-04   342   0.522E-02    0.334E-02
SOL: 241  -0.18885E+01    0.00000E+00   -0.18885E+01    80
  FERMI_SHIFT =   2.441982651766940E-002
Total rVV10 correction in eV:      3.5027962   132.3381005
RMM:   4    -0.161419293622E+03   -0.11951E-03   -0.23019E-04   340   0.653E-02    0.863E-03
SOL: 242  -0.18885E+01    0.00000E+00   -0.18885E+01    71
  FERMI_SHIFT =   2.442242988456168E-002
Total rVV10 correction in eV:      3.5027960   132.3380874
RMM:   5    -0.161419310926E+03   -0.17304E-04   -0.97221E-05   275   0.420E-02    0.541E-03
SOL: 243  -0.18885E+01    0.00000E+00   -0.18885E+01    72
  FERMI_SHIFT =   2.442242988456274E-002
Total rVV10 correction in eV:      3.5027957   132.3380734
RMM:   6    -0.161419316873E+03   -0.59478E-05   -0.50471E-05   264   0.300E-02
Total rVV10 correction in eV:      3.5027890   132.3377901
SOL: 244  -0.18885E+01    0.00000E+00   -0.18885E+01    71
  FERMI_SHIFT =   2.441989276277200E-002
Total rVV10 correction in eV:      3.5027953   132.3380552
  35 F= -.16141932E+03 E0= -.16141932E+03  d E =-.199278E-03  mag=     0.0000
 curvature:  -4.30 expect dE=-0.413E-02 dE for cont linesearch -0.395E-04
 ZBRENT: increasing intervall
 opt :   0.4766  next Energy=  -161.419415 (dE=-0.298E-03)
 bond charge predicted
       N       E                     dE             d eps       ncg     rms          rms(c)
SOL: 245  -0.18887E+01    0.00000E+00   -0.18887E+01    87
  FERMI_SHIFT =   2.442254691417636E-002
Total rVV10 correction in eV:      3.5027915   132.3380664
DAV:   1    -0.161415488664E+03    0.38223E-02   -0.10823E+00   368   0.378E+00    0.165E-01
SOL: 246  -0.18888E+01    0.00000E+00   -0.18888E+01    81
  FERMI_SHIFT =   2.442271613496727E-002
Total rVV10 correction in eV:      3.5028300   132.3393409
RMM:   2    -0.161419198450E+03   -0.37098E-02   -0.33086E-02   368   0.699E-01    0.943E-02
SOL: 247  -0.18889E+01    0.00000E+00   -0.18889E+01    79
  FERMI_SHIFT =   2.441958401027242E-002
Total rVV10 correction in eV:      3.5028270   132.3392133
RMM:   3    -0.161419063751E+03    0.13470E-03   -0.71833E-04   366   0.859E-02    0.686E-02
SOL: 248  -0.18890E+01    0.00000E+00   -0.18890E+01    84
  FERMI_SHIFT =   2.442261190801776E-002
Total rVV10 correction in eV:      3.5027985   132.3381902
RMM:   4    -0.161419412242E+03   -0.34849E-03   -0.54651E-04   362   0.910E-02    0.184E-02
SOL: 249  -0.18891E+01    0.00000E+00   -0.18891E+01    74
  FERMI_SHIFT =   2.442254690917312E-002
Total rVV10 correction in eV:      3.5027979   132.3381767
RMM:   5    -0.161419411745E+03    0.49763E-06   -0.46551E-05   263   0.295E-02
Total rVV10 correction in eV:      3.5027888   132.3377898
SOL: 250  -0.18891E+01    0.00000E+00   -0.18891E+01    76
  FERMI_SHIFT =   2.442254690916598E-002
Total rVV10 correction in eV:      3.5027972   132.3381576
  36 F= -.16141941E+03 E0= -.16141941E+03  d E =-.294150E-03  mag=     0.0000
 curvature: -10.70 expect dE=-0.127E-01 dE for cont linesearch -0.425E-06
 trial: gam= 0.41678 g(F)=  0.119E-02 g(S)=  0.000E+00 ort =-0.406E-04 (trialstep = 0.133E+00)
 search vector abs. value=  0.837E-02
 bond charge predicted
       N       E                     dE             d eps       ncg     rms          rms(c)
SOL: 251  -0.18892E+01    0.00000E+00   -0.18892E+01    80
  FERMI_SHIFT =   2.442256743673160E-002
Total rVV10 correction in eV:      3.5027980   132.3381580
DAV:   1    -0.161419383853E+03    0.28389E-04   -0.46383E-02   400   0.775E-01    0.366E-02
SOL: 252  -0.18892E+01    0.00000E+00   -0.18892E+01    77
  FERMI_SHIFT =   2.441964798346241E-002
Total rVV10 correction in eV:      3.5028017   132.3383802
RMM:   2    -0.161419534351E+03   -0.15050E-03   -0.15447E-03   368   0.152E-01    0.204E-02
SOL: 253  -0.18892E+01    0.00000E+00   -0.18892E+01    75
  FERMI_SHIFT =   2.441971218402714E-002
Total rVV10 correction in eV:      3.5027997   132.3383497
RMM:   3    -0.161419530049E+03    0.43017E-05   -0.46280E-05   264   0.284E-02
Total rVV10 correction in eV:      3.5027810   132.3377897
SOL: 254  -0.18893E+01    0.00000E+00   -0.18893E+01    80
  FERMI_SHIFT =   2.441984556745860E-002
Total rVV10 correction in eV:      3.5027906   132.3381412
  37 F= -.16141953E+03 E0= -.16141953E+03  d E =-.118304E-03  mag=     0.0000
 trial-energy change:   -0.000118  1 .order   -0.000129   -0.000156   -0.000102
 step:   0.3857(harm=  0.3857)  dis= 0.00309  next Energy=  -161.419638 (dE=-0.226E-03)
 bond charge predicted
       N       E                     dE             d eps       ncg     rms          rms(c)
SOL: 255  -0.18893E+01    0.00000E+00   -0.18893E+01    83
  FERMI_SHIFT =   2.441980284070611E-002
Total rVV10 correction in eV:      3.5027921   132.3381430
DAV:   1    -0.161419125276E+03    0.40908E-03   -0.16281E-01   368   0.145E+00    0.665E-02
SOL: 256  -0.18893E+01    0.00000E+00   -0.18893E+01    79
  FERMI_SHIFT =   2.441967085117250E-002
Total rVV10 correction in eV:      3.5028000   132.3386162
RMM:   2    -0.161419627292E+03   -0.50202E-03   -0.51054E-03   368   0.277E-01    0.378E-02
SOL: 257  -0.18893E+01    0.00000E+00   -0.18893E+01    77
  FERMI_SHIFT =   2.441967085153568E-002
Total rVV10 correction in eV:      3.5027959   132.3385634
RMM:   3    -0.161419603521E+03    0.23771E-04   -0.13814E-04   325   0.442E-02    0.271E-02
SOL: 258  -0.18893E+01    0.00000E+00   -0.18893E+01    81
  FERMI_SHIFT =   2.442243480868019E-002
Total rVV10 correction in eV:      3.5027782   132.3381798
RMM:   4    -0.161419691275E+03   -0.87755E-04   -0.17660E-04   341   0.580E-02    0.641E-03
SOL: 259  -0.18892E+01    0.00000E+00   -0.18892E+01    71
  FERMI_SHIFT =   2.442243480866450E-002
Total rVV10 correction in eV:      3.5027776   132.3381701
RMM:   5    -0.161419695854E+03   -0.45785E-05   -0.10365E-04   277   0.423E-02    0.402E-03
SOL: 260  -0.18892E+01    0.00000E+00   -0.18892E+01    72
  FERMI_SHIFT =   2.441987375384690E-002
Total rVV10 correction in eV:      3.5027768   132.3381541
RMM:   6    -0.161419700305E+03   -0.44511E-05   -0.43720E-05   262   0.290E-02
Total rVV10 correction in eV:      3.5027700   132.3377896
SOL: 261  -0.18891E+01    0.00000E+00   -0.18891E+01    71
  FERMI_SHIFT =   2.442243480866231E-002
Total rVV10 correction in eV:      3.5027762   132.3381316
  38 F= -.16141970E+03 E0= -.16141970E+03  d E =-.288560E-03  mag=     0.0000
 curvature:  -1.38 expect dE=-0.778E-03 dE for cont linesearch -0.176E-05
 trial: gam= 0.42118 g(F)=  0.565E-03 g(S)=  0.000E+00 ort = 0.103E-03 (trialstep = 0.184E+00)
 search vector abs. value=  0.214E-02
 bond charge predicted
       N       E                     dE             d eps       ncg     rms          rms(c)
SOL: 262  -0.18892E+01    0.00000E+00   -0.18892E+01    80
  FERMI_SHIFT =   2.442245037923563E-002
Total rVV10 correction in eV:      3.5027680   132.3381320
DAV:   1    -0.161419716254E+03   -0.20400E-04   -0.22839E-02   416   0.544E-01    0.258E-02
SOL: 263  -0.18891E+01    0.00000E+00   -0.18891E+01    75
  FERMI_SHIFT =   2.441981116876651E-002
Total rVV10 correction in eV:      3.5027750   132.3382844
RMM:   2    -0.161419784082E+03   -0.67828E-04   -0.74715E-04   368   0.106E-01    0.150E-02
SOL: 264  -0.18891E+01    0.00000E+00   -0.18891E+01    73
  FERMI_SHIFT =   2.441981116888593E-002
Total rVV10 correction in eV:      3.5027746   132.3382529
RMM:   3    -0.161419782849E+03    0.12327E-05   -0.23913E-05   253   0.215E-02
Total rVV10 correction in eV:      3.5027656   132.3377896
SOL: 265  -0.18889E+01    0.00000E+00   -0.18889E+01    77
  FERMI_SHIFT =   2.441983535138606E-002
Total rVV10 correction in eV:      3.5027705   132.3380758
  39 F= -.16141978E+03 E0= -.16141978E+03  d E =-.825439E-04  mag=     0.0000
 trial-energy change:   -0.000083  1 .order   -0.000091   -0.000112   -0.000071
 step:   0.4984(harm=  0.4984)  dis= 0.00218  next Energy=  -161.419852 (dE=-0.152E-03)
 bond charge predicted
       N       E                     dE             d eps       ncg     rms          rms(c)
SOL: 266  -0.18890E+01    0.00000E+00   -0.18890E+01    83
  FERMI_SHIFT =   2.441980847515955E-002
Total rVV10 correction in eV:      3.5027565   132.3380768
DAV:   1    -0.161419651055E+03    0.13303E-03   -0.65793E-02   368   0.922E-01    0.438E-02
SOL: 267  -0.18889E+01    0.00000E+00   -0.18889E+01    77
  FERMI_SHIFT =   2.441973978173274E-002
Total rVV10 correction in eV:      3.5027703   132.3383872
RMM:   2    -0.161419838923E+03   -0.18787E-03   -0.20830E-03   368   0.175E-01    0.252E-02
SOL: 268  -0.18888E+01    0.00000E+00   -0.18888E+01    75
  FERMI_SHIFT =   2.441976186893410E-002
Total rVV10 correction in eV:      3.5027698   132.3383468
RMM:   3    -0.161419833667E+03    0.52558E-05   -0.63728E-05   277   0.304E-02
Total rVV10 correction in eV:      3.5027578   132.3377895
SOL: 269  -0.18886E+01    0.00000E+00   -0.18886E+01    79
  FERMI_SHIFT =   2.442254328556831E-002
Total rVV10 correction in eV:      3.5027634   132.3380905
  40 F= -.16141983E+03 E0= -.16141983E+03  d E =-.133362E-03  mag=     0.0000
 curvature:  -0.88 expect dE=-0.592E-03 dE for cont linesearch -0.214E-07
 trial: gam= 1.26872 g(F)=  0.676E-03 g(S)=  0.000E+00 ort = 0.722E-05 (trialstep = 0.128E+00)
 search vector abs. value=  0.413E-02
 bond charge predicted
       N       E                     dE             d eps       ncg     rms          rms(c)
SOL: 270  -0.18886E+01    0.00000E+00   -0.18886E+01    80
  FERMI_SHIFT =   2.442255637521691E-002
Total rVV10 correction in eV:      3.5027530   132.3380907
DAV:   1    -0.161419893186E+03   -0.54264E-04   -0.19988E-02   416   0.511E-01    0.253E-02
SOL: 271  -0.18886E+01    0.00000E+00   -0.18886E+01    75
  FERMI_SHIFT =   2.441974884458850E-002
Total rVV10 correction in eV:      3.5027611   132.3382327
RMM:   2    -0.161419947569E+03   -0.54382E-04   -0.65068E-04   368   0.102E-01    0.135E-02
SOL: 272  -0.18885E+01    0.00000E+00   -0.18885E+01    73
  FERMI_SHIFT =   2.441974884470746E-002
Total rVV10 correction in eV:      3.5027606   132.3381960
RMM:   3    -0.161419947690E+03   -0.12116E-06   -0.33807E-05   258   0.266E-02
Total rVV10 correction in eV:      3.5027511   132.3377894
SOL: 273  -0.18884E+01    0.00000E+00   -0.18884E+01    77
  FERMI_SHIFT =   2.441977151108962E-002
Total rVV10 correction in eV:      3.5027572   132.3380455
  41 F= -.16141995E+03 E0= -.16141995E+03  d E =-.114023E-03  mag=     0.0000
 trial-energy change:   -0.000114  1 .order   -0.000076   -0.000087   -0.000064
 step:   0.4867(harm=  0.4867)  dis= 0.00345  next Energy=  -161.420000 (dE=-0.167E-03)
 bond charge predicted
       N       E                     dE             d eps       ncg     rms          rms(c)
SOL: 274  -0.18886E+01    0.00000E+00   -0.18886E+01    85
  FERMI_SHIFT =   2.441973263399813E-002
Total rVV10 correction in eV:      3.5027281   132.3380472
DAV:   1    -0.161419505233E+03    0.44234E-03   -0.16225E-01   368   0.146E+00    0.705E-02
SOL: 275  -0.18884E+01    0.00000E+00   -0.18884E+01    79
  FERMI_SHIFT =   2.441966750642770E-002
Total rVV10 correction in eV:      3.5027512   132.3385378
RMM:   2    -0.161419986255E+03   -0.48102E-03   -0.51427E-03   368   0.276E-01    0.399E-02
SOL: 276  -0.18883E+01    0.00000E+00   -0.18883E+01    77
  FERMI_SHIFT =   2.442265707656496E-002
Total rVV10 correction in eV:      3.5027499   132.3384679
RMM:   3    -0.161419966868E+03    0.19387E-04   -0.14804E-04   329   0.467E-02    0.283E-02
SOL: 277  -0.18882E+01    0.00000E+00   -0.18882E+01    81
  FERMI_SHIFT =   2.441982301722616E-002
Total rVV10 correction in eV:      3.5027397   132.3380637
RMM:   4    -0.161420053597E+03   -0.86729E-04   -0.18861E-04   334   0.599E-02    0.689E-03
SOL: 278  -0.18882E+01    0.00000E+00   -0.18882E+01    71
  FERMI_SHIFT =   2.441909266785330E-002
Total rVV10 correction in eV:      3.5027408   132.3380551
RMM:   5    -0.161420065741E+03   -0.12144E-04   -0.11954E-04   278   0.458E-02    0.406E-03
SOL: 279  -0.18882E+01    0.00000E+00   -0.18882E+01    73
  FERMI_SHIFT =   2.441911216651929E-002
Total rVV10 correction in eV:      3.5027414   132.3380437
RMM:   6    -0.161420067912E+03   -0.21711E-05   -0.58711E-05   269   0.330E-02
Total rVV10 correction in eV:      3.5027322   132.3377893
SOL: 280  -0.18882E+01    0.00000E+00   -0.18882E+01    69
  FERMI_SHIFT =   2.442318507947848E-002
Total rVV10 correction in eV:      3.5027410   132.3380323
  42 F= -.16142007E+03 E0= -.16142007E+03  d E =-.234245E-03  mag=    -0.0000
 curvature:  -1.47 expect dE=-0.733E-03 dE for cont linesearch -0.712E-06
 trial: gam= 0.88304 g(F)=  0.499E-03 g(S)=  0.000E+00 ort =-0.448E-04 (trialstep = 0.199E+00)
 search vector abs. value=  0.364E-02
 bond charge predicted
       N       E                     dE             d eps       ncg     rms          rms(c)
SOL: 281  -0.18882E+01    0.00000E+00   -0.18882E+01    81
  FERMI_SHIFT =   2.442321006317758E-002
Total rVV10 correction in eV:      3.5027316   132.3380329
DAV:   1    -0.161419995326E+03    0.70415E-04   -0.44100E-02   416   0.745E-01    0.348E-02
SOL: 282  -0.18882E+01    0.00000E+00   -0.18882E+01    76
  FERMI_SHIFT =   2.441910738989025E-002
Total rVV10 correction in eV:      3.5027368   132.3382421
RMM:   2    -0.161420120898E+03   -0.12557E-03   -0.13775E-03   368   0.141E-01    0.195E-02
SOL: 283  -0.18883E+01    0.00000E+00   -0.18883E+01    74
  FERMI_SHIFT =   2.441910739011627E-002
Total rVV10 correction in eV:      3.5027345   132.3382043
RMM:   3    -0.161420115152E+03    0.57459E-05   -0.35343E-05   261   0.239E-02
Total rVV10 correction in eV:      3.5027177   132.3377893
SOL: 284  -0.18884E+01    0.00000E+00   -0.18884E+01    78
  FERMI_SHIFT =   2.441912773152280E-002
Total rVV10 correction in eV:      3.5027260   132.3380027
  43 F= -.16142012E+03 E0= -.16142012E+03  d E =-.472400E-04  mag=    -0.0000
 trial-energy change:   -0.000047  1 .order   -0.000069   -0.000092   -0.000046
 step:   0.4031(harm=  0.4031)  dis= 0.00202  next Energy=  -161.420161 (dE=-0.927E-04)
 bond charge predicted
       N       E                     dE             d eps       ncg     rms          rms(c)
SOL: 285  -0.18884E+01    0.00000E+00   -0.18884E+01    81
  FERMI_SHIFT =   2.441910141072594E-002
Total rVV10 correction in eV:      3.5027164   132.3380034
DAV:   1    -0.161420038422E+03    0.82476E-04   -0.45081E-02   368   0.752E-01    0.355E-02
SOL: 286  -0.18885E+01    0.00000E+00   -0.18885E+01    76
  FERMI_SHIFT =   2.442315787005296E-002
Total rVV10 correction in eV:      3.5027222   132.3382193
RMM:   2    -0.161420162100E+03   -0.12368E-03   -0.13735E-03   368   0.141E-01    0.188E-02
SOL: 287  -0.18886E+01    0.00000E+00   -0.18886E+01    74
  FERMI_SHIFT =   2.442315786979933E-002
Total rVV10 correction in eV:      3.5027198   132.3381782
RMM:   3    -0.161420158231E+03    0.38690E-05   -0.40787E-05   264   0.257E-02
Total rVV10 correction in eV:      3.5027049   132.3377892
SOL: 288  -0.18887E+01    0.00000E+00   -0.18887E+01    78
  FERMI_SHIFT =   2.442289046085275E-002
Total rVV10 correction in eV:      3.5027117   132.3379813
  44 F= -.16142016E+03 E0= -.16142016E+03  d E =-.903192E-04  mag=    -0.0000
 curvature:  -1.60 expect dE=-0.498E-03 dE for cont linesearch -0.486E-06
 trial: gam= 0.26779 g(F)=  0.312E-03 g(S)=  0.000E+00 ort = 0.333E-04 (trialstep = 0.240E+00)
 search vector abs. value=  0.591E-03
 bond charge predicted
       N       E                     dE             d eps       ncg     rms          rms(c)
SOL: 289  -0.18887E+01    0.00000E+00   -0.18887E+01    78
  FERMI_SHIFT =   2.442290486295680E-002
Total rVV10 correction in eV:      3.5027135   132.3379815
DAV:   1    -0.161420223470E+03   -0.61369E-04   -0.92979E-03   384   0.363E-01    0.185E-02
SOL: 290  -0.18888E+01    0.00000E+00   -0.18888E+01    74
  FERMI_SHIFT =   2.441937627026408E-002
Total rVV10 correction in eV:      3.5027153   132.3380807
RMM:   2    -0.161420252436E+03   -0.28967E-04   -0.33555E-04   368   0.762E-02    0.100E-02
SOL: 291  -0.18888E+01    0.00000E+00   -0.18888E+01    72
  FERMI_SHIFT =   2.442294424073124E-002
Total rVV10 correction in eV:      3.5027147   132.3380568
RMM:   3    -0.161420251338E+03    0.10989E-05   -0.27326E-05   256   0.245E-02
Total rVV10 correction in eV:      3.5027070   132.3377892
SOL: 292  -0.18888E+01    0.00000E+00   -0.18888E+01    76
  FERMI_SHIFT =   2.442302019654678E-002
Total rVV10 correction in eV:      3.5027112   132.3379538
  45 F= -.16142025E+03 E0= -.16142025E+03  d E =-.931062E-04  mag=    -0.0000
 trial-energy change:   -0.000093  1 .order   -0.000063   -0.000077   -0.000050
 step:   0.6789(harm=  0.6789)  dis= 0.00122  next Energy=  -161.420267 (dE=-0.109E-03)
 reached required accuracy - stopping structural energy minimisation
 writing wavefunctions
SOL: 293  -0.18888E+01    0.00000E+00   -0.18888E+01     0
  FERMI_SHIFT =   2.442302019654680E-002
TACC:  Shutdown complete. Exiting. 
Job finished on c479-032.stampede2.tacc.utexas.edu at Sat May 22 10:35:06 CDT 2021
/tmp/slurmd/job7740872/slurm_script: line 17: /home1/07906/yc116: Is a directory
