 vasp.5.4.4.18Apr17-6-g9f103f2a35 (build May 01 2020 14:57:12) complex          
  
 executed on             LinuxIFC date 2021.05.21  20:03:21
 running on   48 total cores
 distrk:  each k-point on   48 cores,    1 groups
 distr:  one band on NCORES_PER_BAND=  12 cores,    4 groups


--------------------------------------------------------------------------------------------------------


 INCAR:
 POTCAR:    PAW_PBE C 08Apr2002                   
 POTCAR:    PAW_PBE F 08Apr2002                   
 POTCAR:    PAW_PBE O 08Apr2002                   

 ----------------------------------------------------------------------------- 
|                                                                             |
|  ADVICE TO THIS USER RUNNING 'VASP/VAMP'   (HEAR YOUR MASTER'S VOICE ...):  |
|                                                                             |
|      You have switched on vdW-DFT.                                          |
|      This routine was written and supplied by Jiri Klimes.                  |
|      We recommed that you carefully read and cite the following             |
|      publication                                                            |
|      J. Klimes, D.R. Bowler, A. Michelides                                  |
|        J. Phys.: Cond Matt. 22 022201 (2010)                                |
|      J. Klimes, D.R. Bowler, A. Michelides                                  |
|        Phys. Rev. B. 83, 195131 (2011)                                      |
|      and references therein.                                                |
|                                                                             |
 ----------------------------------------------------------------------------- 

 POTCAR:    PAW_PBE C 08Apr2002                   
   VRHFIN =C: s2p2                                                              
   LEXCH  = PE                                                                  
   EATOM  =   147.1560 eV,   10.8157 Ry                                         
                                                                                
   TITEL  = PAW_PBE C 08Apr2002                                                 
   LULTRA =        F    use ultrasoft PP ?                                      
   IUNSCR =        1    unscreen: 0-lin 1-nonlin 2-no                           
   RPACOR =    1.200    partial core radius                                     
   POMASS =   12.011; ZVAL   =    4.000    mass and valenz                      
   RCORE  =    1.500    outmost cutoff radius                                   
   RWIGS  =    1.630; RWIGS  =    0.863    wigner-seitz radius (au A)           
   ENMAX  =  400.000; ENMIN  =  300.000 eV                                      
   ICORE  =        2    local potential                                         
   LCOR   =        T    correct aug charges                                     
   LPAW   =        T    paw PP                                                  
   EAUG   =  644.873                                                            
   DEXC   =    0.000                                                            
   RMAX   =    1.529    core radius for proj-oper                               
   RAUG   =    1.300    factor for augmentation sphere                          
   RDEP   =    1.501    radius for radial grids                                 
   RDEPT  =    1.300    core radius for aug-charge                              
                                                                                
   Atomic configuration                                                         
    4 entries                                                                   
     n  l   j            E        occ.                                          
     1  0  0.50      -273.3789   2.0000                                         
     2  0  0.50       -13.7508   2.0000                                         
     2  1  0.50        -5.2854   2.0000                                         
     3  2  1.50        -5.4423   0.0000                                         
   Description                                                                  
     l       E           TYP  RCUT    TYP  RCUT                                 
     0    -13.7508458     23  1.200                                             
     0     -8.2022199     23  1.200                                             
     1     -5.2854383     23  1.500                                             
     1     34.0145650     23  1.500                                             
     2     -5.4423304      7  1.500                                             
  local pseudopotential read in
  partial core-charges read in
  partial kinetic energy density read in
  atomic valenz-charges read in
  non local Contribution for L=           0  read in
    real space projection operators read in
  non local Contribution for L=           0  read in
    real space projection operators read in
  non local Contribution for L=           1  read in
    real space projection operators read in
  non local Contribution for L=           1  read in
    real space projection operators read in
    PAW grid and wavefunctions read in
 
   number of l-projection  operators is LMAX  =           4
   number of lm-projection operators is LMMAX =           8
 
 POTCAR:    PAW_PBE F 08Apr2002                   
   VRHFIN =F: s2p5                                                              
   LEXCH  = PE                                                                  
   EATOM  =   659.6475 eV,   48.4827 Ry                                         
                                                                                
   TITEL  = PAW_PBE F 08Apr2002                                                 
   LULTRA =        F    use ultrasoft PP ?                                      
   IUNSCR =        1    unscreen: 0-lin 1-nonlin 2-no                           
   RPACOR =    1.200    partial core radius                                     
   POMASS =   18.998; ZVAL   =    7.000    mass and valenz                      
   RCORE  =    1.520    outmost cutoff radius                                   
   RWIGS  =    1.500; RWIGS  =    0.794    wigner-seitz radius (au A)           
   ENMAX  =  400.000; ENMIN  =  300.000 eV                                      
   ICORE  =        2    local potential                                         
   LCOR   =        T    correct aug charges                                     
   LPAW   =        T    paw PP                                                  
   EAUG   =  613.614                                                            
   RMAX   =    1.555    core radius for proj-oper                               
   RAUG   =    1.300    factor for augmentation sphere                          
   RDEP   =    1.539    radius for radial grids                                 
   RDEPT  =    1.299    core radius for aug-charge                              
                                                                                
   Atomic configuration                                                         
    4 entries                                                                   
     n  l   j            E        occ.                                          
     1  0  0.50      -663.3661   2.0000                                         
     2  0  0.50       -29.8995   2.0000                                         
     2  1  0.50       -11.1114   5.0000                                         
     3  2  1.50       -10.8847   0.0000                                         
   Description                                                                  
     l       E           TYP  RCUT    TYP  RCUT                                 
     0    -29.8995018     23  1.200                                             
     0     -9.5240782     23  1.200                                             
     1    -11.1113914     23  1.520                                             
     1      1.3605826     23  1.520                                             
     2    -10.8846608      7  1.500                                             
  local pseudopotential read in
  partial core-charges read in
  partial kinetic energy density read in
  atomic valenz-charges read in
  non local Contribution for L=           0  read in
    real space projection operators read in
  non local Contribution for L=           0  read in
    real space projection operators read in
  non local Contribution for L=           1  read in
    real space projection operators read in
  non local Contribution for L=           1  read in
    real space projection operators read in
    PAW grid and wavefunctions read in
 
   number of l-projection  operators is LMAX  =           4
   number of lm-projection operators is LMMAX =           8
 
 POTCAR:    PAW_PBE O 08Apr2002                   
   VRHFIN =O: s2p4                                                              
   LEXCH  = PE                                                                  
   EATOM  =   432.3788 eV,   31.7789 Ry                                         
                                                                                
   TITEL  = PAW_PBE O 08Apr2002                                                 
   LULTRA =        F    use ultrasoft PP ?                                      
   IUNSCR =        1    unscreen: 0-lin 1-nonlin 2-no                           
   RPACOR =    1.200    partial core radius                                     
   POMASS =   16.000; ZVAL   =    6.000    mass and valenz                      
   RCORE  =    1.520    outmost cutoff radius                                   
   RWIGS  =    1.550; RWIGS  =    0.820    wigner-seitz radius (au A)           
   ENMAX  =  400.000; ENMIN  =  300.000 eV                                      
   ICORE  =        2    local potential                                         
   LCOR   =        T    correct aug charges                                     
   LPAW   =        T    paw PP                                                  
   EAUG   =  605.392                                                            
   DEXC   =    0.000                                                            
   RMAX   =    1.553    core radius for proj-oper                               
   RAUG   =    1.300    factor for augmentation sphere                          
   RDEP   =    1.550    radius for radial grids                                 
   RDEPT  =    1.329    core radius for aug-charge                              
                                                                                
   Atomic configuration                                                         
    4 entries                                                                   
     n  l   j            E        occ.                                          
     1  0  0.50      -514.6923   2.0000                                         
     2  0  0.50       -23.9615   2.0000                                         
     2  1  0.50        -9.0305   4.0000                                         
     3  2  1.50        -9.5241   0.0000                                         
   Description                                                                  
     l       E           TYP  RCUT    TYP  RCUT                                 
     0    -23.9615318     23  1.200                                             
     0     -9.5240782     23  1.200                                             
     1     -9.0304911     23  1.520                                             
     1      8.1634956     23  1.520                                             
     2     -9.5240782      7  1.500                                             
  local pseudopotential read in
  partial core-charges read in
  partial kinetic energy density read in
  kinetic energy density of atom read in
  atomic valenz-charges read in
  non local Contribution for L=           0  read in
    real space projection operators read in
  non local Contribution for L=           0  read in
    real space projection operators read in
  non local Contribution for L=           1  read in
    real space projection operators read in
  non local Contribution for L=           1  read in
    real space projection operators read in
    PAW grid and wavefunctions read in
 
   number of l-projection  operators is LMAX  =           4
   number of lm-projection operators is LMMAX =           8
 
 Optimization of the real space projectors (new method)

 maximal supplied QI-value         = 25.13
 optimisation between [QCUT,QGAM] = [ 11.81, 23.88] = [ 39.08,159.64] Ry 
 Optimized for a Real-space Cutoff    1.18 Angstroem

   l    n(q)    QCUT    max X(q) W(low)/X(q) W(high)/X(q)  e(spline) 
   0      8    11.813   115.676    0.10E-03    0.16E-03    0.35E-06
   0      8    11.813    87.132    0.10E-03    0.16E-03    0.35E-06
   1      8    11.813     4.429    0.16E-03    0.13E-04    0.22E-06
   1      8    11.813     2.733    0.13E-03    0.10E-04    0.18E-06
 Optimization of the real space projectors (new method)

 maximal supplied QI-value         = 24.76
 optimisation between [QCUT,QGAM] = [ 11.88, 24.01] = [ 39.54,161.47] Ry 
 Optimized for a Real-space Cutoff    1.18 Angstroem

   l    n(q)    QCUT    max X(q) W(low)/X(q) W(high)/X(q)  e(spline) 
   0      8    11.883    14.049    0.56E-04    0.86E-04    0.22E-06
   0      8    11.883     8.945    0.81E-04    0.11E-03    0.30E-06
   1      8    11.883     7.086    0.16E-03    0.15E-04    0.31E-06
   1      8    11.883     6.747    0.15E-03    0.14E-04    0.28E-06
 Optimization of the real space projectors (new method)

 maximal supplied QI-value         = 24.76
 optimisation between [QCUT,QGAM] = [ 11.88, 24.01] = [ 39.54,161.47] Ry 
 Optimized for a Real-space Cutoff    1.18 Angstroem

   l    n(q)    QCUT    max X(q) W(low)/X(q) W(high)/X(q)  e(spline) 
   0      8    11.883    20.381    0.86E-04    0.11E-03    0.31E-06
   0      8    11.883    15.268    0.94E-04    0.12E-03    0.33E-06
   1      8    11.883     5.964    0.19E-03    0.18E-04    0.33E-06
   1      8    11.883     5.382    0.17E-03    0.20E-04    0.29E-06
  PAW_PBE C 08Apr2002                   :
 energy of atom  1       EATOM= -147.1560
 kinetic energy error for atom=    0.0066 (will be added to EATOM!!)
  PAW_PBE F 08Apr2002                   :
 energy of atom  2       EATOM= -659.6475
 kinetic energy error for atom=    0.0296 (will be added to EATOM!!)
  PAW_PBE O 08Apr2002                   :
 energy of atom  3       EATOM= -432.3788
 kinetic energy error for atom=    0.0194 (will be added to EATOM!!)
 
 
 POSCAR: C F O                                   
  positions in direct lattice
  velocities in cartesian coordinates

 METAGGA = SCAN     LMAXTAU =  6    LMIXTAU =  F

 exchange correlation table for  LEXCH =        8
   RHO(1)=    0.500       N(1)  =     2000
   RHO(2)=  100.500       N(2)  =     4000
 


--------------------------------------------------------------------------------------------------------


 ion  position               nearest neighbor table
   1  0.482  0.448  0.490-   9 1.36   8 1.36   3 1.54   2 1.55
   2  0.518  0.492  0.500-  10 1.36  11 1.36   1 1.55   4 1.55
   3  0.512  0.404  0.510-  19 1.38  20 1.38   1 1.54   7 1.57
   4  0.482  0.536  0.495-  12 1.35  13 1.36   5 1.55   2 1.55
   5  0.519  0.579  0.487-  15 1.35  14 1.36   6 1.55   4 1.55
   6  0.487  0.624  0.500-  18 1.34  17 1.34  16 1.35   5 1.55
   7  0.485  0.360  0.483-  22 1.24  21 1.24   3 1.57
   8  0.473  0.445  0.432-   1 1.36
   9  0.431  0.454  0.517-   1 1.36
  10  0.541  0.491  0.553-   2 1.36
  11  0.561  0.495  0.461-   2 1.36
  12  0.445  0.534  0.451-   4 1.35
  13  0.451  0.542  0.544-   4 1.36
  14  0.566  0.578  0.522-   5 1.36
  15  0.537  0.582  0.432-   5 1.35
  16  0.520  0.659  0.481-   6 1.35
  17  0.436  0.626  0.472-   6 1.34
  18  0.477  0.630  0.556-   6 1.34
  19  0.508  0.402  0.569-   3 1.38
  20  0.569  0.409  0.498-   3 1.38
  21  0.432  0.358  0.491-   7 1.24
  22  0.520  0.334  0.459-   7 1.24
 
  LATTYP: Found a simple orthorhombic cell.
 ALAT       =    23.2260577600
 B/A-ratio  =     1.0020895388
 C/A-ratio  =     1.2700661612
  
  Lattice vectors:
  
 A1 = ( -23.2260577600,   0.0000000000,   0.0000000000)
 A2 = (   0.0000000000,   0.0000000000, -23.2745895100)
 A3 = (   0.0000000000, -29.4986300200,   0.0000000000)


Analysis of symmetry for initial positions (statically):
=====================================================================
 Subroutine PRICEL returns:
 Original cell was already a primitive cell.
 

 Routine SETGRP: Setting up the symmetry group for a 
 simple orthorhombic supercell.


 Subroutine GETGRP returns: Found  1 space group operations
 (whereof  1 operations were pure point group operations)
 out of a pool of  8 trial point group operations.


The static configuration has the point symmetry C_1 .


Analysis of symmetry for dynamics (positions and initial velocities):
=====================================================================
 Subroutine PRICEL returns:
 Original cell was already a primitive cell.
 

 Routine SETGRP: Setting up the symmetry group for a 
 simple orthorhombic supercell.


 Subroutine GETGRP returns: Found  1 space group operations
 (whereof  1 operations were pure point group operations)
 out of a pool of  8 trial point group operations.


The dynamic configuration has the point symmetry C_1 .


Analysis of constrained symmetry for selective dynamics:
=====================================================================
 Subroutine PRICEL returns:
 Original cell was already a primitive cell.
 

 Routine SETGRP: Setting up the symmetry group for a 
 simple orthorhombic supercell.


 Subroutine GETGRP returns: Found  1 space group operations
 (whereof  1 operations were pure point group operations)
 out of a pool of  8 trial point group operations.


The constrained configuration has the point symmetry C_1 .


Analysis of structural, dynamic, and magnetic symmetry:
=====================================================================
 Subroutine PRICEL returns:
 Original cell was already a primitive cell.
 

 Routine SETGRP: Setting up the symmetry group for a 
 simple orthorhombic supercell.


 Subroutine GETGRP returns: Found  1 space group operations
 (whereof  1 operations were pure point group operations)
 out of a pool of  8 trial point group operations.


The magnetic configuration has the point symmetry C_1 .


 Subroutine INISYM returns: Found  1 space group operations
 (whereof  1 operations are pure point group operations),
 and found     1 'primitive' translations

 
 
 KPOINTS: K-Point Grid                            

Automatic generation of k-mesh.
Space group operators:
 irot       det(A)        alpha          n_x          n_y          n_z        tau_x        tau_y        tau_z
    1     1.000000     0.000001     1.000000     0.000000     0.000000     0.000000     0.000000     0.000000
 
 Subroutine IBZKPT returns following result:
 ===========================================
 
 Found      1 irreducible k-points:
 
 Following reciprocal coordinates:
            Coordinates               Weight
  0.000000  0.000000  0.000000      1.000000
 
 Following cartesian coordinates:
            Coordinates               Weight
  0.000000  0.000000  0.000000      1.000000
 


--------------------------------------------------------------------------------------------------------




 Dimension of arrays:
   k-points           NKPTS =      1   k-points in BZ     NKDIM =      1   number of bands    NBANDS=     92
   number of dos      NEDOS =   1200   number of ions     NIONS =     22
   non local maximal  LDIM  =      4   non local SUM 2l+1 LMDIM =      8
   total plane-waves  NPLWV = ******
   max r-space proj   IRMAX =   3383   max aug-charges    IRDMAX=   6525
   dimension x,y,z NGX =   180 NGY =  240 NGZ =  180
   dimension x,y,z NGXF=   360 NGYF=  480 NGZF=  360
   support grid    NGXF=   360 NGYF=  480 NGZF=  360
   ions per type =               7  13   2
   NGX,Y,Z   is equivalent  to a cutoff of  12.88, 13.53, 12.86 a.u.
   NGXF,Y,Z  is equivalent  to a cutoff of  25.77, 27.05, 25.71 a.u.

 SYSTEM =  SiC                                     
 POSCAR =  C F O                                   

 Startparameter for this run:
   NWRITE =      2    write-flag & timer
   PREC   = accura    normal or accurate (medium, high low for compatibility)
   ISTART =      1    job   : 0-new  1-cont  2-samecut
   ICHARG =      0    charge: 1-file 2-atom 10-const
   ISPIN  =      2    spin polarized calculation?
   LNONCOLLINEAR =      F non collinear calculations
   LSORBIT =      F    spin-orbit coupling
   INIWAV =      1    electr: 0-lowe 1-rand  2-diag
   LASPH  =      T    aspherical Exc in radial PAW
   METAGGA=      F    non-selfconsistent MetaGGA calc.

 Electronic Relaxation 1
   ENCUT  =  550.0 eV  40.42 Ry    6.36 a.u.  44.41 56.41 44.51*2*pi/ulx,y,z
   ENINI  =  550.0     initial cutoff
   ENAUG  =  644.9 eV  augmentation charge cutoff
   NELM   =    100;   NELMIN=  2; NELMDL=  0     # of ELM steps 
   EDIFF  = 0.1E-04   stopping-criterion for ELM
   LREAL  =      T    real-space projection
   NLSPLINE    = F    spline interpolate recip. space projectors
   LCOMPAT=      F    compatible to vasp.4.4
   GGA_COMPAT  = T    GGA compatible to vasp.4.4-vasp.4.6
   LMAXPAW     = -100 max onsite density
   LMAXMIX     =    2 max onsite mixed and CHGCAR
   VOSKOWN=      0    Vosko Wilk Nusair interpolation
   ROPT   =   -0.00025  -0.00025  -0.00025
 Ionic relaxation
   EDIFFG = -.2E-01   stopping-criterion for IOM
   NSW    =    500    number of steps for IOM
   NBLOCK =      1;   KBLOCK =    500    inner block; outer block 
   IBRION =      2    ionic relax: 0-MD 1-quasi-New 2-CG
   NFREE  =      1    steps in history (QN), initial steepest desc. (CG)
   ISIF   =      2    stress and relaxation
   IWAVPR =     11    prediction:  0-non 1-charg 2-wave 3-comb
   ISYM   =      2    0-nonsym 1-usesym 2-fastsym
   LCORR  =      T    Harris-Foulkes like correction to forces

   POTIM  = 0.5000    time-step for ionic-motion
   TEIN   =    0.0    initial temperature
   TEBEG  =    0.0;   TEEND  =   0.0 temperature during run
   SMASS  =  -3.00    Nose mass-parameter (am)
   estimated Nose-frequenzy (Omega)   =  0.10E-29 period in steps =****** mass=  -0.123E-25a.u.
   SCALEE = 1.0000    scale energy and forces
   NPACO  =    256;   APACO  = 16.0  distance and # of slots for P.C.
   PSTRESS=    0.0 pullay stress

  Mass of Ions in am
   POMASS =  12.01 19.00 16.00
  Ionic Valenz
   ZVAL   =   4.00  7.00  6.00
  Atomic Wigner-Seitz radii
   RWIGS  =  -1.00 -1.00 -1.00
  virtual crystal weights 
   VCA    =   1.00  1.00  1.00
   NELECT =     132.0000    total number of electrons
   NUPDOWN=      -1.0000    fix difference up-down

 DOS related values:
   EMIN   =  10.00;   EMAX   =-10.00  energy-range for DOS
   EFERMI =   0.00
   ISMEAR =     0;   SIGMA  =   0.05  broadening in eV -4-tet -1-fermi 0-gaus

 Electronic relaxation 2 (details)
   IALGO  =     68    algorithm
   LDIAG  =      T    sub-space diagonalisation (order eigenvalues)
   LSUBROT=      F    optimize rotation matrix (better conditioning)
   TURBO    =      0    0=normal 1=particle mesh
   IRESTART =      0    0=no restart 2=restart with 2 vectors
   NREBOOT  =      0    no. of reboots
   NMIN     =      0    reboot dimension
   EREF     =   0.00    reference energy to select bands
   IMIX   =      4    mixing-type and parameters
     AMIX     =   0.40;   BMIX     =  1.00
     AMIX_MAG =   1.60;   BMIX_MAG =  1.00
     AMIN     =   0.10
     WC   =   100.;   INIMIX=   1;  MIXPRE=   1;  MAXMIX= -45

 Intra band minimization:
   WEIMIN = 0.0010     energy-eigenvalue tresh-hold
   EBREAK =  0.27E-07  absolut break condition
   DEPER  =   0.30     relativ break condition  

   TIME   =   0.40     timestep for ELM

  volume/ion in A,a.u.               =     724.83      4891.40
  Fermi-wavevector in a.u.,A,eV,Ry     =   0.331166  0.625814  1.492168  0.109671
  Thomas-Fermi vector in A             =   1.227092
 
 Write flags
   LWAVE        =      T    write WAVECAR
   LDOWNSAMPLE  =      F    k-point downsampling of WAVECAR
   LCHARG       =      F    write CHGCAR
   LVTOT        =      F    write LOCPOT, total local potential
   LVHAR        =      T    write LOCPOT, Hartree potential only
   LELF         =      F    write electronic localiz. function (ELF)
   LORBIT       =     11    0 simple, 1 ext, 2 COOP (PROOUT), +10 PAW based schemes


 Dipole corrections
   LMONO  =      F    monopole corrections only (constant potential shift)
   LDIPOL =      F    correct potential (dipole corrections)
   IDIPOL =      0    1-x, 2-y, 3-z, 4-all directions 
   EPSILON=  1.0000000 bulk dielectric constant

 Exchange correlation treatment:
   GGA     =    --    GGA type
   LEXCH   =     8    internal setting for exchange type
   VOSKOWN=      0    Vosko Wilk Nusair interpolation
   LHFCALC =     F    Hartree Fock is set to
   LHFONE  =     F    Hartree Fock one center treatment
   AEXX    =    0.0000 exact exchange contribution

 vdW DFT:
   LUSE_VDW   =     T    switch on vdW DFT
   Zab_VDW    =-.8491    correlation parameter
   PARAM1     =0.1234
   PARAM2     =1.0000
   PARAM3     =0.0000
   -- rVV10 --
   BPARAM     =15.7000
   CPARAM     = 0.0093

 Linear response parameters
   LEPSILON=     F    determine dielectric tensor
   LRPA    =     F    only Hartree local field effects (RPA)
   LNABLA  =     F    use nabla operator in PAW spheres
   LVEL    =     F    velocity operator in full k-point grid
   LINTERFAST=   F  fast interpolation
   KINTER  =     0    interpolate to denser k-point grid
   CSHIFT  =0.1000    complex shift for real part using Kramers Kronig
   OMEGAMAX=  -1.0    maximum frequency
   DEG_THRESHOLD= 0.2000000E-02 threshold for treating states as degnerate
   RTIME   =   -0.100 relaxation time in fs
  (WPLASMAI=    0.000 imaginary part of plasma frequency in eV, 0.658/RTIME)
   DFIELD  = 0.0000000 0.0000000 0.0000000 field for delta impulse in time
 
 Orbital magnetization related:
   ORBITALMAG=     F  switch on orbital magnetization
   LCHIMAG   =     F  perturbation theory with respect to B field
   DQ        =  0.001000  dq finite difference perturbation B field
   LLRAUG    =     F  two centre corrections for induced B field

 Solvation model:
   LSOL    =     T         switch on solvation model
   EB_K    = 78.400000     relative permittivity of the bulk solvent
   SIGMA_K =  0.600000     width of the dielectric cavity
   NC_K    =  0.002500     cutoff charge density
   TAU     =  0.000000     cavity surface tension
   LAMBDA_D_K    =  3.040000     Debye length in Angstroms
   LRHOB     =     F     write boundcharge  density
   LRHOION     =     F     write ioniccharge density



--------------------------------------------------------------------------------------------------------


 conjugate gradient relaxation of ions
   using selective dynamics as specified on POSCAR
 charge density and potential will be updated during run
 spin polarized calculation
 RMM-DIIS sequential band-by-band and
  variant of blocked Davidson during initial phase
 perform sub-space diagonalisation
    before iterative eigenvector-optimisation
 modified Broyden-mixing scheme, WC =      100.0
 initial mixing is a Kerker type mixing with AMIX =  0.4000 and BMIX =      1.0000
 Hartree-type preconditioning will be used
 using additional bands           26
 real space projection scheme for non local part
 use partial core corrections
 calculate Harris-corrections to forces 
   (improved forces if not selfconsistent)
 use gradient corrections 
 use of overlap-Matrix (Vanderbilt PP)
 Gauss-broadening in eV      SIGMA  =   0.05


--------------------------------------------------------------------------------------------------------


  energy-cutoff  :      550.00
  volume of cell :    15946.28
      direct lattice vectors                 reciprocal lattice vectors
    23.226057760  0.000000000  0.000000000     0.043055090  0.000000000  0.000000000
     0.000000000 29.498630020  0.000000000     0.000000000  0.033899879  0.000000000
     0.000000000  0.000000000 23.274589510     0.000000000  0.000000000  0.042965312

  length of vectors
    23.226057760 29.498630020 23.274589510     0.043055090  0.033899879  0.042965312


 
 old parameters found on file WAVECAR:
  energy-cutoff  :      550.00
  volume of cell :    15946.28
      direct lattice vectors                 reciprocal lattice vectors
    23.226057760  0.000000000  0.000000000     0.043055090  0.000000000  0.000000000
     0.000000000 29.498630020  0.000000000     0.000000000  0.033899879  0.000000000
     0.000000000  0.000000000 23.274589510     0.000000000  0.000000000  0.042965312

  length of vectors

 
 k-points in units of 2pi/SCALE and weight: K-Point Grid                            
   0.00000000  0.00000000  0.00000000       1.000
 
 k-points in reciprocal lattice and weights: K-Point Grid                            
   0.00000000  0.00000000  0.00000000       1.000
 
 position of ions in fractional coordinates (direct lattice) 
   0.48242137  0.44776685  0.48964212
   0.51775840  0.49173843  0.49990826
   0.51172078  0.40365672  0.50982999
   0.48177522  0.53603318  0.49548248
   0.51879244  0.57927622  0.48673529
   0.48686674  0.62419202  0.49955533
   0.48472357  0.35953857  0.48293807
   0.47285368  0.44516821  0.43202465
   0.43114831  0.45409128  0.51655981
   0.54144942  0.49101264  0.55313960
   0.56080505  0.49510682  0.46062211
   0.44486691  0.53350772  0.45057541
   0.45073565  0.54194538  0.54430683
   0.56553562  0.57824090  0.52156500
   0.53669791  0.58152579  0.43151188
   0.51954165  0.65904913  0.48145952
   0.43634758  0.62594331  0.47177412
   0.47737379  0.62964427  0.55583868
   0.50771301  0.40244596  0.56882290
   0.56932775  0.40892747  0.49761329
   0.43186217  0.35787858  0.49126993
   0.51951896  0.33398307  0.45899733
 
 position of ions in cartesian coordinates  (Angst):
  11.20474660 13.20850855 11.39621944
  12.02548661 14.50561014 11.63515951
  11.88525649 11.90732022 11.86608380
  11.18973917 15.81224448 11.53215135
  12.04950325 17.08785502 11.32856397
  11.30799502 18.41280936 11.62694518
  11.25821761 10.60589538 11.24018525
  10.98252692 13.13185231 10.05519636
  10.01387562 13.39507067 12.02271762
  12.57573549 14.48420024 12.87409719
  13.02529043 14.60497282 10.72079050
  10.33250465 15.73774672 10.48695768
  10.46881230 15.98664636 12.66851797
  13.13516291 17.05731437 12.13921137
  12.46537665 17.15421426 10.04326198
  12.06690444 19.44104645 11.20577271
  10.13463400 18.46447002 10.98034908
  11.08751121 18.57364339 12.93691703
  11.79217168 11.87160442 13.23911962
  13.22323931 12.06280007 11.58174496
  10.03045578 10.55692779 11.43410599
  12.06637732  9.85204315 10.68297453
 


--------------------------------------------------------------------------------------------------------


 k-point  1 :   0.0000 0.0000 0.0000  plane waves:  467169

 maximum and minimum number of plane-waves per node :     38936    38925

 maximum number of plane-waves:    467169
 maximum index in each direction: 
   IXMAX=   44   IYMAX=   56   IZMAX=   44
   IXMIN=  -44   IYMIN=  -56   IZMIN=  -44


 real space projection operators:
  total allocation   :       4447.12 KBytes
  max/ min on nodes  :        378.88        361.31


 parallel 3D FFT for wavefunctions:
    minimum data exchange during FFTs selected (reduces bandwidth)
 parallel 3D FFT for charge:
    minimum data exchange during FFTs selected (reduces bandwidth)


 total amount of memory used by VASP MPI-rank0   363231. kBytes
=======================================================================

   base      :      30000. kBytes
   nonlr-proj:       1715. kBytes
   fftplans  :      64967. kBytes
   grid      :     237872. kBytes
   one-center:         12. kBytes
   wavefun   :      28665. kBytes
 
     INWAV:  cpu time    4.2991: real time    4.3722
 Broyden mixing: mesh for mixing (old mesh)
   NGX = 89   NGY =113   NGZ = 89
  (NGX  =360   NGY  =480   NGZ  =360)
  gives a total of 895073 points

 charge density for first step will be calculated from the start-wavefunctions


--------------------------------------------------------------------------------------------------------


 Maximum index for non-local projection operator          304
 Maximum index for augmentation-charges          405 (set IRDMAX)


--------------------------------------------------------------------------------------------------------


 initial charge from wavefunction
 First call to EWALD:  gamma=   0.070
 Maximum number of real-space cells 3x 2x 3
 Maximum number of reciprocal cells 3x 3x 3

    FEWALD:  cpu time    0.0020: real time    0.0219


--------------------------------------- Iteration      1(   1)  ---------------------------------------


    POTLOK:  cpu time  105.3445: real time  105.6945
    SETDIJ:  cpu time    0.4621: real time    0.4769
     EDDAV:  cpu time   56.8281: real time   57.3338
       DOS:  cpu time    0.0008: real time    0.0057
    CHARGE:  cpu time   10.2361: real time   10.2520
    MIXING:  cpu time    0.0618: real time    0.0620
    --------------------------------------------
      LOOP:  cpu time  172.9334: real time  173.8252

 eigenvalue-minimisations  :   520
 total energy-change (2. order) :-0.1613838E+03  (-0.8176070E-01)
 number of electron     132.0000030 magnetization      -0.0000000
 augmentation part       18.4390139 magnetization       0.0000002

 Broyden mixing:
  rms(total) = 0.66009E-01    rms(broyden)= 0.65967E-01
  rms(prec ) = 0.69911E-01
  weight for this iteration     100.00

 Free energy of the ion-electron system (eV)
  ---------------------------------------------------
  alpha Z        PSCENC =         4.24101594
  Ewald energy   TEWEN  =     22022.66419367
  -Hartree energ DENC   =    -31231.75366956
  -exchange      EXHF   =         0.00000000
  -V(xc)+E(xc)   XCENC  =       770.47461887
  PAW double counting   =     12014.81148856   -12107.01496895
  entropy T*S    EENTRO =        -0.00000000
  eigenvalues    EBANDS =     -2319.86360783
  atomic energy  EATOM  =     10469.79689548
  Solvation  Ediel_sol  =       215.26024689
  ---------------------------------------------------
  free energy    TOTEN  =      -161.38378693 eV

  energy without entropy =     -161.38378693  energy(sigma->0) =     -161.38378693


--------------------------------------------------------------------------------------------------------




--------------------------------------- Iteration      1(   2)  ---------------------------------------


    POTLOK:  cpu time   92.9698: real time   93.1518
    SETDIJ:  cpu time    0.4129: real time    0.4139
    EDDIAG:  cpu time   10.6554: real time   10.6735
  RMM-DIIS:  cpu time   60.4018: real time   60.5023
    ORTHCH:  cpu time    0.0902: real time    0.0903
       DOS:  cpu time    0.0004: real time    0.0004
    CHARGE:  cpu time   10.0266: real time   10.0425
    MIXING:  cpu time    0.0556: real time    0.0569
    --------------------------------------------
      LOOP:  cpu time  174.6127: real time  174.9316

 eigenvalue-minimisations  :   368
 total energy-change (2. order) :-0.4093727E-02  (-0.2014946E-01)
 number of electron     132.0000030 magnetization      -0.0000000
 augmentation part       18.4264001 magnetization      -0.0000000

 Broyden mixing:
  rms(total) = 0.36969E-01    rms(broyden)= 0.36960E-01
  rms(prec ) = 0.40492E-01
  weight for this iteration     100.00

 eigenvalues of (default mixing * dielectric matrix)
  average eigenvalue GAMMA=   1.1776
  1.1776

 Free energy of the ion-electron system (eV)
  ---------------------------------------------------
  alpha Z        PSCENC =         4.24101594
  Ewald energy   TEWEN  =     22022.66419367
  -Hartree energ DENC   =    -31231.84856191
  -exchange      EXHF   =         0.00000000
  -V(xc)+E(xc)   XCENC  =       770.60495323
  PAW double counting   =     12019.83406261   -12112.06817441
  entropy T*S    EENTRO =        -0.00000000
  eigenvalues    EBANDS =     -2319.50861196
  atomic energy  EATOM  =     10469.79689548
  Solvation  Ediel_sol  =       214.89634669
  ---------------------------------------------------
  free energy    TOTEN  =      -161.38788066 eV

  energy without entropy =     -161.38788066  energy(sigma->0) =     -161.38788066


--------------------------------------------------------------------------------------------------------




--------------------------------------- Iteration      1(   3)  ---------------------------------------


    POTLOK:  cpu time   92.5624: real time   92.7371
    SETDIJ:  cpu time    0.4116: real time    0.4125
    EDDIAG:  cpu time   10.6359: real time   10.6545
  RMM-DIIS:  cpu time   62.4487: real time   62.5580
    ORTHCH:  cpu time    0.0904: real time    0.0906
       DOS:  cpu time    0.0004: real time    0.0004
    CHARGE:  cpu time   10.0410: real time   10.0587
    MIXING:  cpu time    0.0570: real time    0.0571
    --------------------------------------------
      LOOP:  cpu time  176.2473: real time  176.5688

 eigenvalue-minimisations  :   384
 total energy-change (2. order) : 0.2314590E-02  (-0.2125734E-02)
 number of electron     132.0000030 magnetization      -0.0000000
 augmentation part       18.4220049 magnetization      -0.0000003

 Broyden mixing:
  rms(total) = 0.23471E-01    rms(broyden)= 0.23465E-01
  rms(prec ) = 0.26429E-01
  weight for this iteration     100.00

 eigenvalues of (default mixing * dielectric matrix)
  average eigenvalue GAMMA=   1.3145
  1.3145  1.3145

 Free energy of the ion-electron system (eV)
  ---------------------------------------------------
  alpha Z        PSCENC =         4.24101594
  Ewald energy   TEWEN  =     22022.66419367
  -Hartree energ DENC   =    -31231.23912551
  -exchange      EXHF   =         0.00000000
  -V(xc)+E(xc)   XCENC  =       770.60462564
  PAW double counting   =     12020.21508690   -12112.43894656
  entropy T*S    EENTRO =        -0.00000000
  eigenvalues    EBANDS =     -2319.61916392
  atomic energy  EATOM  =     10469.79689548
  Solvation  Ediel_sol  =       214.38985229
  ---------------------------------------------------
  free energy    TOTEN  =      -161.38556607 eV

  energy without entropy =     -161.38556607  energy(sigma->0) =     -161.38556607


--------------------------------------------------------------------------------------------------------




--------------------------------------- Iteration      1(   4)  ---------------------------------------


    POTLOK:  cpu time   91.4754: real time   91.6484
    SETDIJ:  cpu time    0.4124: real time    0.4134
    EDDIAG:  cpu time   10.6215: real time   10.6386
  RMM-DIIS:  cpu time   60.8445: real time   60.9484
    ORTHCH:  cpu time    0.0922: real time    0.0924
       DOS:  cpu time    0.0004: real time    0.0004
    CHARGE:  cpu time   10.0359: real time   10.0526
    MIXING:  cpu time    0.0589: real time    0.0595
    --------------------------------------------
      LOOP:  cpu time  173.5413: real time  173.8536

 eigenvalue-minimisations  :   370
 total energy-change (2. order) : 0.1768494E-02  (-0.4115591E-03)
 number of electron     132.0000030 magnetization      -0.0000000
 augmentation part       18.4245600 magnetization      -0.0000000

 Broyden mixing:
  rms(total) = 0.12465E-01    rms(broyden)= 0.12464E-01
  rms(prec ) = 0.15694E-01
  weight for this iteration     100.00

 eigenvalues of (default mixing * dielectric matrix)
  average eigenvalue GAMMA=   1.5629
  2.6228  1.0329  1.0329

 Free energy of the ion-electron system (eV)
  ---------------------------------------------------
  alpha Z        PSCENC =         4.24101594
  Ewald energy   TEWEN  =     22022.66419367
  -Hartree energ DENC   =    -31230.43118129
  -exchange      EXHF   =         0.00000000
  -V(xc)+E(xc)   XCENC  =       770.57734756
  PAW double counting   =     12019.56643727   -12111.78352658
  entropy T*S    EENTRO =        -0.00000000
  eigenvalues    EBANDS =     -2319.85972398
  atomic energy  EATOM  =     10469.79689548
  Solvation  Ediel_sol  =       213.84474435
  ---------------------------------------------------
  free energy    TOTEN  =      -161.38379758 eV

  energy without entropy =     -161.38379758  energy(sigma->0) =     -161.38379758


--------------------------------------------------------------------------------------------------------




--------------------------------------- Iteration      1(   5)  ---------------------------------------


    POTLOK:  cpu time   92.0678: real time   92.2446
    SETDIJ:  cpu time    0.4113: real time    0.4121
    EDDIAG:  cpu time   10.5998: real time   10.6176
  RMM-DIIS:  cpu time   60.3876: real time   60.4864
    ORTHCH:  cpu time    0.0929: real time    0.0930
       DOS:  cpu time    0.0004: real time    0.0004
    CHARGE:  cpu time   10.0689: real time   10.0851
    MIXING:  cpu time    0.0607: real time    0.0607
    --------------------------------------------
      LOOP:  cpu time  173.6893: real time  174.0000

 eigenvalue-minimisations  :   368
 total energy-change (2. order) : 0.2521633E-02  (-0.3950924E-03)
 number of electron     132.0000030 magnetization       0.0000000
 augmentation part       18.4254113 magnetization       0.0000003

 Broyden mixing:
  rms(total) = 0.65843E-02    rms(broyden)= 0.65827E-02
  rms(prec ) = 0.91375E-02
  weight for this iteration     100.00

 eigenvalues of (default mixing * dielectric matrix)
  average eigenvalue GAMMA=   1.5668
  2.5263  0.9051  1.4179  1.4179

 Free energy of the ion-electron system (eV)
  ---------------------------------------------------
  alpha Z        PSCENC =         4.24101594
  Ewald energy   TEWEN  =     22022.66419367
  -Hartree energ DENC   =    -31229.61615576
  -exchange      EXHF   =         0.00000000
  -V(xc)+E(xc)   XCENC  =       770.60930101
  PAW double counting   =     12019.74152615   -12111.95623498
  entropy T*S    EENTRO =        -0.00000000
  eigenvalues    EBANDS =     -2319.81325239
  atomic energy  EATOM  =     10469.79689548
  Solvation  Ediel_sol  =       212.95143495
  ---------------------------------------------------
  free energy    TOTEN  =      -161.38127594 eV

  energy without entropy =     -161.38127594  energy(sigma->0) =     -161.38127594


--------------------------------------------------------------------------------------------------------




--------------------------------------- Iteration      1(   6)  ---------------------------------------


    POTLOK:  cpu time   91.6205: real time   91.7935
    SETDIJ:  cpu time    0.4119: real time    0.4127
    EDDIAG:  cpu time   10.5659: real time   10.5832
  RMM-DIIS:  cpu time   59.7972: real time   59.8991
    ORTHCH:  cpu time    0.0918: real time    0.0920
       DOS:  cpu time    0.0004: real time    0.0004
    CHARGE:  cpu time   10.0499: real time   10.0666
    MIXING:  cpu time    0.0673: real time    0.0675
    --------------------------------------------
      LOOP:  cpu time  172.6049: real time  172.9150

 eigenvalue-minimisations  :   362
 total energy-change (2. order) :-0.5163037E-03  (-0.2578598E-03)
 number of electron     132.0000030 magnetization       0.0000000
 augmentation part       18.4229002 magnetization       0.0000006

 Broyden mixing:
  rms(total) = 0.80042E-02    rms(broyden)= 0.80027E-02
  rms(prec ) = 0.95126E-02
  weight for this iteration     100.00

 eigenvalues of (default mixing * dielectric matrix)
  average eigenvalue GAMMA=   1.7463
  2.8139  2.8139  0.9604  1.0717  1.0717

 Free energy of the ion-electron system (eV)
  ---------------------------------------------------
  alpha Z        PSCENC =         4.24101594
  Ewald energy   TEWEN  =     22022.66419367
  -Hartree energ DENC   =    -31229.40537608
  -exchange      EXHF   =         0.00000000
  -V(xc)+E(xc)   XCENC  =       770.63326551
  PAW double counting   =     12020.30024212   -12112.52437515
  entropy T*S    EENTRO =        -0.00000000
  eigenvalues    EBANDS =     -2319.47623376
  atomic energy  EATOM  =     10469.79689548
  Solvation  Ediel_sol  =       212.38858002
  ---------------------------------------------------
  free energy    TOTEN  =      -161.38179225 eV

  energy without entropy =     -161.38179225  energy(sigma->0) =     -161.38179225


--------------------------------------------------------------------------------------------------------




--------------------------------------- Iteration      1(   7)  ---------------------------------------


    POTLOK:  cpu time   92.3866: real time   92.5649
    SETDIJ:  cpu time    0.4125: real time    0.4134
    EDDIAG:  cpu time   10.6855: real time   10.7027
  RMM-DIIS:  cpu time   60.4219: real time   60.5277
    ORTHCH:  cpu time    0.0914: real time    0.0916
       DOS:  cpu time    0.0004: real time    0.0004
    CHARGE:  cpu time   10.0867: real time   10.1045
    MIXING:  cpu time    0.0711: real time    0.0712
    --------------------------------------------
      LOOP:  cpu time  174.1560: real time  174.4764

 eigenvalue-minimisations  :   368
 total energy-change (2. order) :-0.3503423E-03  (-0.1382597E-03)
 number of electron     132.0000030 magnetization       0.0000000
 augmentation part       18.4244457 magnetization       0.0000002

 Broyden mixing:
  rms(total) = 0.33923E-02    rms(broyden)= 0.33910E-02
  rms(prec ) = 0.44080E-02
  weight for this iteration     100.00

 eigenvalues of (default mixing * dielectric matrix)
  average eigenvalue GAMMA=   1.6461
  2.8346  2.8346  1.1220  1.1220  0.9817  0.9817

 Free energy of the ion-electron system (eV)
  ---------------------------------------------------
  alpha Z        PSCENC =         4.24101594
  Ewald energy   TEWEN  =     22022.66419367
  -Hartree energ DENC   =    -31228.47950712
  -exchange      EXHF   =         0.00000000
  -V(xc)+E(xc)   XCENC  =       770.61358210
  PAW double counting   =     12019.93173955   -12112.15714513
  entropy T*S    EENTRO =        -0.00000000
  eigenvalues    EBANDS =     -2319.44700713
  atomic energy  EATOM  =     10469.79689548
  Solvation  Ediel_sol  =       211.45409004
  ---------------------------------------------------
  free energy    TOTEN  =      -161.38214259 eV

  energy without entropy =     -161.38214259  energy(sigma->0) =     -161.38214259


--------------------------------------------------------------------------------------------------------




--------------------------------------- Iteration      1(   8)  ---------------------------------------


    POTLOK:  cpu time   86.9750: real time   87.1826
    SETDIJ:  cpu time    0.4127: real time    0.4136
    EDDIAG:  cpu time   10.6785: real time   10.6968
  RMM-DIIS:  cpu time   58.2059: real time   58.3081
    ORTHCH:  cpu time    0.0921: real time    0.0922
       DOS:  cpu time    0.0005: real time    0.0005
    CHARGE:  cpu time   10.0356: real time   10.0522
    MIXING:  cpu time    0.0683: real time    0.0684
    --------------------------------------------
      LOOP:  cpu time  166.4684: real time  166.8144

 eigenvalue-minimisations  :   344
 total energy-change (2. order) :-0.4425773E-03  (-0.3027274E-04)
 number of electron     132.0000030 magnetization       0.0000000
 augmentation part       18.4249909 magnetization       0.0000011

 Broyden mixing:
  rms(total) = 0.31648E-02    rms(broyden)= 0.31645E-02
  rms(prec ) = 0.39428E-02
  weight for this iteration     100.00

 eigenvalues of (default mixing * dielectric matrix)
  average eigenvalue GAMMA=   1.8055
  4.2721  2.7095  1.5607  1.0624  1.0624  0.9858  0.9858

 Free energy of the ion-electron system (eV)
  ---------------------------------------------------
  alpha Z        PSCENC =         4.24101594
  Ewald energy   TEWEN  =     22022.66419367
  -Hartree energ DENC   =    -31228.26269342
  -exchange      EXHF   =         0.00000000
  -V(xc)+E(xc)   XCENC  =       770.61630560
  PAW double counting   =     12019.83570869   -12112.05941468
  entropy T*S    EENTRO =        -0.00000000
  eigenvalues    EBANDS =     -2319.46385291
  atomic energy  EATOM  =     10469.79689548
  Solvation  Ediel_sol  =       211.24925646
  ---------------------------------------------------
  free energy    TOTEN  =      -161.38258517 eV

  energy without entropy =     -161.38258517  energy(sigma->0) =     -161.38258517


--------------------------------------------------------------------------------------------------------




--------------------------------------- Iteration      1(   9)  ---------------------------------------


    POTLOK:  cpu time   90.0177: real time   90.1906
    SETDIJ:  cpu time    0.4132: real time    0.4140
    EDDIAG:  cpu time   10.5831: real time   10.6006
  RMM-DIIS:  cpu time   58.9878: real time   59.0880
    ORTHCH:  cpu time    0.0921: real time    0.0923
       DOS:  cpu time    0.0004: real time    0.0004
    CHARGE:  cpu time   10.0565: real time   10.0740
    MIXING:  cpu time    0.0713: real time    0.0714
    --------------------------------------------
      LOOP:  cpu time  170.2222: real time  170.5314

 eigenvalue-minimisations  :   350
 total energy-change (2. order) :-0.1473563E-02  (-0.9491548E-04)
 number of electron     132.0000030 magnetization       0.0000000
 augmentation part       18.4243852 magnetization      -0.0000007

 Broyden mixing:
  rms(total) = 0.11972E-02    rms(broyden)= 0.11965E-02
  rms(prec ) = 0.16319E-02
  weight for this iteration     100.00

 eigenvalues of (default mixing * dielectric matrix)
  average eigenvalue GAMMA=   1.9168
  5.0886  2.4826  2.4826  1.0502  1.0502  0.8832  1.1485  1.1485

 Free energy of the ion-electron system (eV)
  ---------------------------------------------------
  alpha Z        PSCENC =         4.24101594
  Ewald energy   TEWEN  =     22022.66419367
  -Hartree energ DENC   =    -31227.82506308
  -exchange      EXHF   =         0.00000000
  -V(xc)+E(xc)   XCENC  =       770.62185812
  PAW double counting   =     12019.88556508   -12112.11074050
  entropy T*S    EENTRO =        -0.00000000
  eigenvalues    EBANDS =     -2319.35796610
  atomic energy  EATOM  =     10469.79689548
  Solvation  Ediel_sol  =       210.70018267
  ---------------------------------------------------
  free energy    TOTEN  =      -161.38405873 eV

  energy without entropy =     -161.38405873  energy(sigma->0) =     -161.38405873


--------------------------------------------------------------------------------------------------------




--------------------------------------- Iteration      1(  10)  ---------------------------------------


    POTLOK:  cpu time   85.8238: real time   85.9925
    SETDIJ:  cpu time    0.4097: real time    0.4106
    EDDIAG:  cpu time   10.6825: real time   10.6998
  RMM-DIIS:  cpu time   57.1873: real time   57.2840
    ORTHCH:  cpu time    0.0975: real time    0.0976
       DOS:  cpu time    0.0005: real time    0.0005
    CHARGE:  cpu time   10.0525: real time   10.0697
    MIXING:  cpu time    0.0748: real time    0.0750
    --------------------------------------------
      LOOP:  cpu time  164.3285: real time  164.6297

 eigenvalue-minimisations  :   338
 total energy-change (2. order) :-0.1311486E-02  (-0.5990584E-04)
 number of electron     132.0000030 magnetization      -0.0000000
 augmentation part       18.4242913 magnetization      -0.0000033

 Broyden mixing:
  rms(total) = 0.11047E-02    rms(broyden)= 0.11045E-02
  rms(prec ) = 0.13098E-02
  weight for this iteration     100.00

 eigenvalues of (default mixing * dielectric matrix)
  average eigenvalue GAMMA=   2.0043
  6.5429  2.8340  2.3824  1.0412  1.0412  1.2139  1.2139  0.9316  0.8373

 Free energy of the ion-electron system (eV)
  ---------------------------------------------------
  alpha Z        PSCENC =         4.24101594
  Ewald energy   TEWEN  =     22022.66419367
  -Hartree energ DENC   =    -31227.62101877
  -exchange      EXHF   =         0.00000000
  -V(xc)+E(xc)   XCENC  =       770.61488142
  PAW double counting   =     12019.84720695   -12112.07166633
  entropy T*S    EENTRO =        -0.00000000
  eigenvalues    EBANDS =     -2319.37749736
  atomic energy  EATOM  =     10469.79689548
  Solvation  Ediel_sol  =       210.52061878
  ---------------------------------------------------
  free energy    TOTEN  =      -161.38537022 eV

  energy without entropy =     -161.38537022  energy(sigma->0) =     -161.38537022


--------------------------------------------------------------------------------------------------------




--------------------------------------- Iteration      1(  11)  ---------------------------------------


    POTLOK:  cpu time   84.0234: real time   84.1850
    SETDIJ:  cpu time    0.4100: real time    0.4109
    EDDIAG:  cpu time   10.6100: real time   10.6276
  RMM-DIIS:  cpu time   53.6479: real time   53.7410
    ORTHCH:  cpu time    0.0917: real time    0.0919
       DOS:  cpu time    0.0004: real time    0.0004
    CHARGE:  cpu time   10.0452: real time   10.0612
    MIXING:  cpu time    0.0817: real time    0.0819
    --------------------------------------------
      LOOP:  cpu time  158.9103: real time  159.1999

 eigenvalue-minimisations  :   308
 total energy-change (2. order) :-0.4479429E-03  (-0.2187524E-04)
 number of electron     132.0000030 magnetization      -0.0000000
 augmentation part       18.4243972 magnetization       0.0000082

 Broyden mixing:
  rms(total) = 0.48860E-03    rms(broyden)= 0.48852E-03
  rms(prec ) = 0.66912E-03
  weight for this iteration     100.00

 eigenvalues of (default mixing * dielectric matrix)
  average eigenvalue GAMMA=   2.0473
  7.2255  3.0048  2.4117  1.4875  1.4875  1.0578  1.0578  0.8883  0.8883  0.9641

 Free energy of the ion-electron system (eV)
  ---------------------------------------------------
  alpha Z        PSCENC =         4.24101594
  Ewald energy   TEWEN  =     22022.66419367
  -Hartree energ DENC   =    -31227.50666820
  -exchange      EXHF   =         0.00000000
  -V(xc)+E(xc)   XCENC  =       770.61096421
  PAW double counting   =     12019.80970192   -12112.03387522
  entropy T*S    EENTRO =        -0.00000000
  eigenvalues    EBANDS =     -2319.40436164
  atomic energy  EATOM  =     10469.79689548
  Solvation  Ediel_sol  =       210.43631569
  ---------------------------------------------------
  free energy    TOTEN  =      -161.38581816 eV

  energy without entropy =     -161.38581816  energy(sigma->0) =     -161.38581816


--------------------------------------------------------------------------------------------------------




--------------------------------------- Iteration      1(  12)  ---------------------------------------


    POTLOK:  cpu time   85.1313: real time   85.2934
    SETDIJ:  cpu time    0.4134: real time    0.4143
    EDDIAG:  cpu time   10.6403: real time   10.6576
  RMM-DIIS:  cpu time   55.0151: real time   55.1073
    ORTHCH:  cpu time    0.0915: real time    0.0917
       DOS:  cpu time    0.0004: real time    0.0004
    CHARGE:  cpu time   10.1041: real time   10.1210
    MIXING:  cpu time    0.0834: real time    0.0835
    --------------------------------------------
      LOOP:  cpu time  161.4795: real time  161.7692

 eigenvalue-minimisations  :   321
 total energy-change (2. order) :-0.5513485E-03  (-0.1682511E-04)
 number of electron     132.0000030 magnetization      -0.0000000
 augmentation part       18.4244954 magnetization       0.0000130

 Broyden mixing:
  rms(total) = 0.47242E-03    rms(broyden)= 0.47229E-03
  rms(prec ) = 0.52678E-03
  weight for this iteration     100.00

 eigenvalues of (default mixing * dielectric matrix)
  average eigenvalue GAMMA=   2.1543
  8.2033  3.8500  2.7022  1.9683  1.0535  1.0535  1.3649  0.9862  0.9366  0.9366
  0.6427

 Free energy of the ion-electron system (eV)
  ---------------------------------------------------
  alpha Z        PSCENC =         4.24101594
  Ewald energy   TEWEN  =     22022.66419367
  -Hartree energ DENC   =    -31227.39769373
  -exchange      EXHF   =         0.00000000
  -V(xc)+E(xc)   XCENC  =       770.60808166
  PAW double counting   =     12019.79867782   -12112.02278409
  entropy T*S    EENTRO =        -0.00000000
  eigenvalues    EBANDS =     -2319.45474632
  atomic energy  EATOM  =     10469.79689548
  Solvation  Ediel_sol  =       210.37999006
  ---------------------------------------------------
  free energy    TOTEN  =      -161.38636951 eV

  energy without entropy =     -161.38636951  energy(sigma->0) =     -161.38636951


--------------------------------------------------------------------------------------------------------




--------------------------------------- Iteration      1(  13)  ---------------------------------------


    POTLOK:  cpu time   81.2842: real time   81.4431
    SETDIJ:  cpu time    0.4091: real time    0.4100
    EDDIAG:  cpu time   10.5393: real time   10.5586
  RMM-DIIS:  cpu time   50.1752: real time   50.2656
    ORTHCH:  cpu time    0.0917: real time    0.0919
       DOS:  cpu time    0.0004: real time    0.0004
    CHARGE:  cpu time   10.0650: real time   10.0819
    MIXING:  cpu time    0.0882: real time    0.0884
    --------------------------------------------
      LOOP:  cpu time  152.6532: real time  152.9400

 eigenvalue-minimisations  :   275
 total energy-change (2. order) :-0.1736220E-03  (-0.7115705E-05)
 number of electron     132.0000030 magnetization      -0.0000000
 augmentation part       18.4244738 magnetization       0.0000094

 Broyden mixing:
  rms(total) = 0.32630E-03    rms(broyden)= 0.32629E-03
  rms(prec ) = 0.36733E-03
  weight for this iteration     100.00

 eigenvalues of (default mixing * dielectric matrix)
  average eigenvalue GAMMA=   2.1000
  8.2599  3.9078  2.8180  1.6127  1.6127  1.0669  1.0669  1.2244  1.1060  0.9423
  0.9423  0.6397

 Free energy of the ion-electron system (eV)
  ---------------------------------------------------
  alpha Z        PSCENC =         4.24101594
  Ewald energy   TEWEN  =     22022.66419367
  -Hartree energ DENC   =    -31227.37468779
  -exchange      EXHF   =         0.00000000
  -V(xc)+E(xc)   XCENC  =       770.60861302
  PAW double counting   =     12019.81061340   -12112.03476232
  entropy T*S    EENTRO =        -0.00000000
  eigenvalues    EBANDS =     -2319.46237421
  atomic energy  EATOM  =     10469.79689548
  Solvation  Ediel_sol  =       210.36394968
  ---------------------------------------------------
  free energy    TOTEN  =      -161.38654313 eV

  energy without entropy =     -161.38654313  energy(sigma->0) =     -161.38654313


--------------------------------------------------------------------------------------------------------




--------------------------------------- Iteration      1(  14)  ---------------------------------------


    POTLOK:  cpu time   81.2172: real time   81.3780
    SETDIJ:  cpu time    0.4129: real time    0.4138
    EDDIAG:  cpu time   10.5386: real time   10.5574
  RMM-DIIS:  cpu time   46.9188: real time   47.0054
    ORTHCH:  cpu time    0.0913: real time    0.0915
       DOS:  cpu time    0.0004: real time    0.0004
    CHARGE:  cpu time   10.0560: real time   10.0736
    MIXING:  cpu time    0.0928: real time    0.0929
    --------------------------------------------
      LOOP:  cpu time  149.3279: real time  149.6130

 eigenvalue-minimisations  :   247
 total energy-change (2. order) :-0.1091496E-03  (-0.2307791E-05)
 number of electron     132.0000030 magnetization      -0.0000000
 augmentation part       18.4243697 magnetization      -0.0000018

 Broyden mixing:
  rms(total) = 0.23755E-03    rms(broyden)= 0.23742E-03
  rms(prec ) = 0.26694E-03
  weight for this iteration     100.00

 eigenvalues of (default mixing * dielectric matrix)
  average eigenvalue GAMMA=   2.1451
  8.6559  4.5068  2.9135  2.0040  2.0040  1.4207  1.0556  1.0556  0.9977  0.8925
  0.8925  0.8579  0.6292

 Free energy of the ion-electron system (eV)
  ---------------------------------------------------
  alpha Z        PSCENC =         4.24101594
  Ewald energy   TEWEN  =     22022.66419367
  -Hartree energ DENC   =    -31227.36473398
  -exchange      EXHF   =         0.00000000
  -V(xc)+E(xc)   XCENC  =       770.60933577
  PAW double counting   =     12019.82529396   -12112.04951058
  entropy T*S    EENTRO =        -0.00000000
  eigenvalues    EBANDS =     -2319.45993310
  atomic energy  EATOM  =     10469.79689548
  Solvation  Ediel_sol  =       210.35079056
  ---------------------------------------------------
  free energy    TOTEN  =      -161.38665228 eV

  energy without entropy =     -161.38665228  energy(sigma->0) =     -161.38665228


--------------------------------------------------------------------------------------------------------




--------------------------------------- Iteration      1(  15)  ---------------------------------------


    POTLOK:  cpu time   80.1909: real time   80.3525
    SETDIJ:  cpu time    0.4137: real time    0.4146
    EDDIAG:  cpu time   10.5067: real time   10.5252
  RMM-DIIS:  cpu time   46.1988: real time   46.2860
    ORTHCH:  cpu time    0.0915: real time    0.0916
       DOS:  cpu time    0.0005: real time    0.0005
    CHARGE:  cpu time   10.0238: real time   10.0420
    MIXING:  cpu time    0.0983: real time    0.0985
    --------------------------------------------
      LOOP:  cpu time  147.5242: real time  147.8110

 eigenvalue-minimisations  :   242
 total energy-change (2. order) :-0.1017488E-03  (-0.1275259E-05)
 number of electron     132.0000030 magnetization      -0.0000000
 augmentation part       18.4243533 magnetization      -0.0000023

 Broyden mixing:
  rms(total) = 0.23257E-03    rms(broyden)= 0.23256E-03
  rms(prec ) = 0.24794E-03
  weight for this iteration     100.00

 eigenvalues of (default mixing * dielectric matrix)
  average eigenvalue GAMMA=   2.1200
  8.9672  4.9276  2.8460  2.3828  1.5882  1.5882  1.0641  1.0641  0.9882  0.9882
  0.9565  0.9177  0.7811  0.6201

 Free energy of the ion-electron system (eV)
  ---------------------------------------------------
  alpha Z        PSCENC =         4.24101594
  Ewald energy   TEWEN  =     22022.66419367
  -Hartree energ DENC   =    -31227.33673798
  -exchange      EXHF   =         0.00000000
  -V(xc)+E(xc)   XCENC  =       770.60845363
  PAW double counting   =     12019.81675589   -12112.04087747
  entropy T*S    EENTRO =        -0.00000000
  eigenvalues    EBANDS =     -2319.47159973
  atomic energy  EATOM  =     10469.79689548
  Solvation  Ediel_sol  =       210.33514654
  ---------------------------------------------------
  free energy    TOTEN  =      -161.38675403 eV

  energy without entropy =     -161.38675403  energy(sigma->0) =     -161.38675403


--------------------------------------------------------------------------------------------------------




--------------------------------------- Iteration      1(  16)  ---------------------------------------


    POTLOK:  cpu time   76.2405: real time   76.4266
    SETDIJ:  cpu time    0.4125: real time    0.4134
    EDDIAG:  cpu time   10.5781: real time   10.5977
  RMM-DIIS:  cpu time   46.2922: real time   46.3788
    ORTHCH:  cpu time    0.0913: real time    0.0915
       DOS:  cpu time    0.0004: real time    0.0004
    CHARGE:  cpu time   10.0556: real time   10.0731
    MIXING:  cpu time    0.1061: real time    0.1063
    --------------------------------------------
      LOOP:  cpu time  143.7768: real time  144.0877

 eigenvalue-minimisations  :   242
 total energy-change (2. order) :-0.3315195E-04  (-0.7521470E-06)
 number of electron     132.0000030 magnetization       0.0000000
 augmentation part       18.4243882 magnetization      -0.0000008

 Broyden mixing:
  rms(total) = 0.50486E-04    rms(broyden)= 0.50417E-04
  rms(prec ) = 0.68635E-04
  weight for this iteration     100.00

 eigenvalues of (default mixing * dielectric matrix)
  average eigenvalue GAMMA=   2.0912
  9.1570  5.1433  2.8915  2.5214  1.7973  1.4270  1.0744  1.0744  1.0134  1.0134
  1.0148  1.0148  0.9093  0.6969  0.6184

 Free energy of the ion-electron system (eV)
  ---------------------------------------------------
  alpha Z        PSCENC =         4.24101594
  Ewald energy   TEWEN  =     22022.66419367
  -Hartree energ DENC   =    -31227.32099946
  -exchange      EXHF   =         0.00000000
  -V(xc)+E(xc)   XCENC  =       770.60784966
  PAW double counting   =     12019.80415597   -12112.02816251
  entropy T*S    EENTRO =        -0.00000000
  eigenvalues    EBANDS =     -2319.47951902
  atomic energy  EATOM  =     10469.79689548
  Solvation  Ediel_sol  =       210.32778309
  ---------------------------------------------------
  free energy    TOTEN  =      -161.38678718 eV

  energy without entropy =     -161.38678718  energy(sigma->0) =     -161.38678718


--------------------------------------------------------------------------------------------------------




--------------------------------------- Iteration      1(  17)  ---------------------------------------


    POTLOK:  cpu time   75.8181: real time   75.9720
    SETDIJ:  cpu time    0.4138: real time    0.4146
    EDDIAG:  cpu time   10.5744: real time   10.5934
  RMM-DIIS:  cpu time   45.7132: real time   45.7985
    ORTHCH:  cpu time    0.0934: real time    0.0936
       DOS:  cpu time    0.0004: real time    0.0004
    CHARGE:  cpu time   10.0126: real time   10.0303
    MIXING:  cpu time    0.1098: real time    0.1100
    --------------------------------------------
      LOOP:  cpu time  142.7357: real time  143.0128

 eigenvalue-minimisations  :   236
 total energy-change (2. order) :-0.2621926E-04  (-0.5763568E-06)
 number of electron     132.0000030 magnetization       0.0000000
 augmentation part       18.4244041 magnetization      -0.0000013

 Broyden mixing:
  rms(total) = 0.57971E-04    rms(broyden)= 0.57953E-04
  rms(prec ) = 0.67927E-04
  weight for this iteration     100.00

 eigenvalues of (default mixing * dielectric matrix)
  average eigenvalue GAMMA=   2.1480
  9.4084  5.5674  3.3429  2.5102  2.2215  1.4521  1.4521  1.0756  1.0756  1.1051
  1.1051  0.9673  0.9673  0.8259  0.6777  0.6131

 Free energy of the ion-electron system (eV)
  ---------------------------------------------------
  alpha Z        PSCENC =         4.24101594
  Ewald energy   TEWEN  =     22022.66419367
  -Hartree energ DENC   =    -31227.31121576
  -exchange      EXHF   =         0.00000000
  -V(xc)+E(xc)   XCENC  =       770.60786827
  PAW double counting   =     12019.80093112   -12112.02490871
  entropy T*S    EENTRO =        -0.00000000
  eigenvalues    EBANDS =     -2319.48175761
  atomic energy  EATOM  =     10469.79689548
  Solvation  Ediel_sol  =       210.32016420
  ---------------------------------------------------
  free energy    TOTEN  =      -161.38681340 eV

  energy without entropy =     -161.38681340  energy(sigma->0) =     -161.38681340


--------------------------------------------------------------------------------------------------------




--------------------------------------- Iteration      1(  18)  ---------------------------------------


    POTLOK:  cpu time   76.3600: real time   76.5143
    SETDIJ:  cpu time    0.4133: real time    0.4143
    EDDIAG:  cpu time   10.5397: real time   10.5586
  RMM-DIIS:  cpu time   45.6888: real time   45.7748
    ORTHCH:  cpu time    0.0963: real time    0.0965
       DOS:  cpu time    0.0004: real time    0.0004
    CHARGE:  cpu time   10.0139: real time   10.0323
    MIXING:  cpu time    0.1164: real time    0.1165
    --------------------------------------------
      LOOP:  cpu time  143.2289: real time  143.5077

 eigenvalue-minimisations  :   236
 total energy-change (2. order) :-0.2703559E-04  (-0.4968819E-06)
 number of electron     132.0000030 magnetization       0.0000000
 augmentation part       18.4244042 magnetization      -0.0000010

 Broyden mixing:
  rms(total) = 0.27185E-04    rms(broyden)= 0.27180E-04
  rms(prec ) = 0.32419E-04
  weight for this iteration     100.00

 eigenvalues of (default mixing * dielectric matrix)
  average eigenvalue GAMMA=   2.1350
  9.5681  5.9551  3.7156  2.6587  2.1786  1.7678  1.3728  1.0767  1.0767  1.0264
  1.0264  0.9922  0.9922  0.8414  0.7898  0.6391  0.6167

 Free energy of the ion-electron system (eV)
  ---------------------------------------------------
  alpha Z        PSCENC =         4.24101594
  Ewald energy   TEWEN  =     22022.66419367
  -Hartree energ DENC   =    -31227.30153130
  -exchange      EXHF   =         0.00000000
  -V(xc)+E(xc)   XCENC  =       770.60798365
  PAW double counting   =     12019.80338646   -12112.02740315
  entropy T*S    EENTRO =        -0.00000000
  eigenvalues    EBANDS =     -2319.48124284
  atomic energy  EATOM  =     10469.79689548
  Solvation  Ediel_sol  =       210.30986166
  ---------------------------------------------------
  free energy    TOTEN  =      -161.38684044 eV

  energy without entropy =     -161.38684044  energy(sigma->0) =     -161.38684044


--------------------------------------------------------------------------------------------------------




--------------------------------------- Iteration      1(  19)  ---------------------------------------


    POTLOK:  cpu time   72.6661: real time   72.8130
    SETDIJ:  cpu time    0.4119: real time    0.4129
    EDDIAG:  cpu time   10.5517: real time   10.5710
  RMM-DIIS:  cpu time   45.8385: real time   45.9234
    ORTHCH:  cpu time    0.0924: real time    0.0926
       DOS:  cpu time    0.0004: real time    0.0003
    --------------------------------------------
      LOOP:  cpu time  129.5609: real time  129.8132

 eigenvalue-minimisations  :   236
 total energy-change (2. order) :-0.5970296E-05  (-0.3447871E-06)
 number of electron     132.0000030 magnetization       0.0000000
 augmentation part       18.4244042 magnetization      -0.0000010

 Free energy of the ion-electron system (eV)
  ---------------------------------------------------
  alpha Z        PSCENC =         4.24101594
  Ewald energy   TEWEN  =     22022.66419367
  -Hartree energ DENC   =    -31227.29935610
  -exchange      EXHF   =         0.00000000
  -V(xc)+E(xc)   XCENC  =       770.60798415
  PAW double counting   =     12019.80462827   -12112.02866534
  entropy T*S    EENTRO =        -0.00000000
  eigenvalues    EBANDS =     -2319.48097300
  atomic energy  EATOM  =     10469.79689548
  Solvation  Ediel_sol  =       210.30743052
  ---------------------------------------------------
  free energy    TOTEN  =      -161.38684641 eV

  energy without entropy =     -161.38684641  energy(sigma->0) =     -161.38684641


--------------------------------------------------------------------------------------------------------




 average (electrostatic) potential at core
  the test charge radii are     0.6991  0.7167  0.7215
  (the norm of the test charge is              1.0000)
       1 -66.0055       2 -66.3548       3 -65.0682       4 -66.5184       5 -66.5352
       6 -67.6773       7 -63.2900       8 -91.6239       9 -91.6280      10 -91.8587
      11 -91.8574      12 -91.9926      13 -91.9700      14 -91.9970      15 -91.9598
      16 -91.9460      17 -92.0497      18 -92.0215      19 -91.0261      20 -91.0040
      21 -83.2398      22 -83.3080
 
 
 
 E-fermi :  -5.9206     XC(G=0):  -0.1685     alpha+bet : -0.1062


 spin component 1

 k-point     1 :       0.0000    0.0000    0.0000
  band No.  band energies     occupation 
      1     -35.8430      1.00000
      2     -35.1831      1.00000
      3     -34.7380      1.00000
      4     -34.5983      1.00000
      5     -34.3469      1.00000
      6     -33.6401      1.00000
      7     -33.5784      1.00000
      8     -33.3796      1.00000
      9     -33.3334      1.00000
     10     -33.1773      1.00000
     11     -33.0980      1.00000
     12     -32.8640      1.00000
     13     -32.1391      1.00000
     14     -27.7205      1.00000
     15     -25.6302      1.00000
     16     -22.1912      1.00000
     17     -21.4421      1.00000
     18     -20.4010      1.00000
     19     -19.0605      1.00000
     20     -17.8928      1.00000
     21     -17.3328      1.00000
     22     -16.5771      1.00000
     23     -16.5097      1.00000
     24     -16.2791      1.00000
     25     -15.9659      1.00000
     26     -15.8990      1.00000
     27     -15.7833      1.00000
     28     -15.4341      1.00000
     29     -15.3821      1.00000
     30     -15.0020      1.00000
     31     -14.9532      1.00000
     32     -14.7640      1.00000
     33     -14.6089      1.00000
     34     -14.1432      1.00000
     35     -12.8434      1.00000
     36     -12.7253      1.00000
     37     -12.6027      1.00000
     38     -12.4607      1.00000
     39     -12.3885      1.00000
     40     -12.2754      1.00000
     41     -12.1336      1.00000
     42     -12.0324      1.00000
     43     -11.9455      1.00000
     44     -11.8336      1.00000
     45     -11.7212      1.00000
     46     -11.6769      1.00000
     47     -11.4488      1.00000
     48     -11.4039      1.00000
     49     -11.1712      1.00000
     50     -11.1432      1.00000
     51     -11.0629      1.00000
     52     -11.0188      1.00000
     53     -10.9440      1.00000
     54     -10.8900      1.00000
     55     -10.8448      1.00000
     56     -10.7998      1.00000
     57     -10.7172      1.00000
     58     -10.5086      1.00000
     59     -10.3426      1.00000
     60     -10.2953      1.00000
     61     -10.0843      1.00000
     62      -9.5979      1.00000
     63      -8.6888      1.00000
     64      -6.7866      1.00000
     65      -6.2835      1.00000
     66      -6.1770      1.00000
     67      -1.1921      0.00000
     68      -0.9962      0.00000
     69      -0.4359      0.00000
     70      -0.0536      0.00000
     71       0.1066      0.00000
     72       0.1232      0.00000
     73       0.2166      0.00000
     74       0.2456      0.00000
     75       0.2532      0.00000
     76       0.2707      0.00000
     77       0.3378      0.00000
     78       0.3952      0.00000
     79       0.4042      0.00000
     80       0.4119      0.00000
     81       0.4214      0.00000
     82       0.4306      0.00000
     83       0.4408      0.00000
     84       0.4470      0.00000
     85       0.5149      0.00000
     86       0.5242      0.00000
     87       0.5319      0.00000
     88       0.6133      0.00000
     89       0.6660      0.00000
     90       0.6687      0.00000
     91       0.6884      0.00000
     92       0.7001      0.00000

 spin component 2

 k-point     1 :       0.0000    0.0000    0.0000
  band No.  band energies     occupation 
      1     -35.8430      1.00000
      2     -35.1831      1.00000
      3     -34.7380      1.00000
      4     -34.5983      1.00000
      5     -34.3469      1.00000
      6     -33.6401      1.00000
      7     -33.5784      1.00000
      8     -33.3796      1.00000
      9     -33.3334      1.00000
     10     -33.1773      1.00000
     11     -33.0980      1.00000
     12     -32.8640      1.00000
     13     -32.1391      1.00000
     14     -27.7205      1.00000
     15     -25.6302      1.00000
     16     -22.1912      1.00000
     17     -21.4421      1.00000
     18     -20.4010      1.00000
     19     -19.0605      1.00000
     20     -17.8928      1.00000
     21     -17.3328      1.00000
     22     -16.5771      1.00000
     23     -16.5097      1.00000
     24     -16.2791      1.00000
     25     -15.9659      1.00000
     26     -15.8990      1.00000
     27     -15.7833      1.00000
     28     -15.4341      1.00000
     29     -15.3821      1.00000
     30     -15.0020      1.00000
     31     -14.9532      1.00000
     32     -14.7640      1.00000
     33     -14.6089      1.00000
     34     -14.1432      1.00000
     35     -12.8434      1.00000
     36     -12.7253      1.00000
     37     -12.6027      1.00000
     38     -12.4607      1.00000
     39     -12.3885      1.00000
     40     -12.2754      1.00000
     41     -12.1336      1.00000
     42     -12.0324      1.00000
     43     -11.9455      1.00000
     44     -11.8336      1.00000
     45     -11.7212      1.00000
     46     -11.6769      1.00000
     47     -11.4488      1.00000
     48     -11.4039      1.00000
     49     -11.1712      1.00000
     50     -11.1432      1.00000
     51     -11.0629      1.00000
     52     -11.0188      1.00000
     53     -10.9440      1.00000
     54     -10.8900      1.00000
     55     -10.8448      1.00000
     56     -10.7998      1.00000
     57     -10.7172      1.00000
     58     -10.5086      1.00000
     59     -10.3426      1.00000
     60     -10.2953      1.00000
     61     -10.0843      1.00000
     62      -9.5979      1.00000
     63      -8.6888      1.00000
     64      -6.7866      1.00000
     65      -6.2835      1.00000
     66      -6.1770      1.00000
     67      -1.1921      0.00000
     68      -0.9962      0.00000
     69      -0.4360      0.00000
     70      -0.0537      0.00000
     71       0.1067      0.00000
     72       0.1232      0.00000
     73       0.2167      0.00000
     74       0.2455      0.00000
     75       0.2532      0.00000
     76       0.2707      0.00000
     77       0.3376      0.00000
     78       0.3953      0.00000
     79       0.4042      0.00000
     80       0.4119      0.00000
     81       0.4214      0.00000
     82       0.4304      0.00000
     83       0.4407      0.00000
     84       0.4469      0.00000
     85       0.5150      0.00000
     86       0.5241      0.00000
     87       0.5316      0.00000
     88       0.6126      0.00000
     89       0.6672      0.00000
     90       0.6686      0.00000
     91       0.6883      0.00000
     92       0.7002      0.00000


--------------------------------------------------------------------------------------------------------


 soft charge-density along one line, spin component           1
         0         1         2         3         4         5         6         7         8         9
 total charge-density along one line
 
 soft charge-density along one line, spin component           2
         0         1         2         3         4         5         6         7         8         9
 total charge-density along one line
 
 pseudopotential strength for first ion, spin component:           1
 10.692  14.225   0.003  -0.008  -0.015  -0.009   0.020   0.037
 14.225  18.925   0.004  -0.010  -0.019  -0.011   0.025   0.047
  0.003   0.004  -4.667   0.001   0.000   9.069   0.001  -0.001
 -0.008  -0.010   0.001  -4.666  -0.001   0.001   9.078  -0.000
 -0.015  -0.019   0.000  -0.001  -4.668  -0.001  -0.000   9.079
 -0.009  -0.011   9.069   0.001  -0.001 -19.916  -0.003   0.003
  0.020   0.025   0.001   9.078  -0.000  -0.003 -19.941  -0.000
  0.037   0.047  -0.001  -0.000   9.079   0.003  -0.000 -19.942
 pseudopotential strength for first ion, spin component:           2
 10.692  14.225   0.003  -0.008  -0.015  -0.009   0.020   0.037
 14.225  18.925   0.004  -0.010  -0.019  -0.011   0.025   0.047
  0.003   0.004  -4.667   0.001   0.000   9.069   0.001  -0.001
 -0.008  -0.010   0.001  -4.666  -0.001   0.001   9.078  -0.000
 -0.015  -0.019   0.000  -0.001  -4.668  -0.001  -0.000   9.079
 -0.009  -0.011   9.069   0.001  -0.001 -19.916  -0.003   0.003
  0.020   0.025   0.001   9.078  -0.000  -0.003 -19.941  -0.000
  0.037   0.047  -0.001  -0.000   9.079   0.003  -0.000 -19.942
 total augmentation occupancy for first ion, spin component:           1
  7.988  -3.777   0.076  -0.120  -0.223   0.015  -0.038  -0.073
[...]
     31     -14.9902      1.00000
     32     -14.8002      1.00000
     33     -14.6355      1.00000
     34     -14.1872      1.00000
     35     -12.8657      1.00000
     36     -12.7416      1.00000
     37     -12.6181      1.00000
     38     -12.4783      1.00000
     39     -12.4159      1.00000
     40     -12.2880      1.00000
     41     -12.1373      1.00000
     42     -12.0381      1.00000
     43     -11.9472      1.00000
     44     -11.8481      1.00000
     45     -11.7343      1.00000
     46     -11.6746      1.00000
     47     -11.4830      1.00000
     48     -11.4511      1.00000
     49     -11.1855      1.00000
     50     -11.1711      1.00000
     51     -11.0766      1.00000
     52     -11.0361      1.00000
     53     -10.9560      1.00000
     54     -10.8841      1.00000
     55     -10.8706      1.00000
     56     -10.8133      1.00000
     57     -10.6809      1.00000
     58     -10.4610      1.00000
     59     -10.3377      1.00000
     60     -10.2785      1.00000
     61     -10.0284      1.00000
     62      -9.5836      1.00000
     63      -8.6692      1.00000
     64      -6.6912      1.00000
     65      -6.2195      1.00000
     66      -6.1132      1.00000
     67      -1.1950      0.00000
     68      -0.9782      0.00000
     69      -0.4506      0.00000
     70      -0.0527      0.00000
     71       0.1077      0.00000
     72       0.1264      0.00000
     73       0.2179      0.00000
     74       0.2457      0.00000
     75       0.2555      0.00000
     76       0.2744      0.00000
     77       0.3290      0.00000
     78       0.3828      0.00000
     79       0.3961      0.00000
     80       0.4103      0.00000
     81       0.4265      0.00000
     82       0.4387      0.00000
     83       0.4459      0.00000
     84       0.4487      0.00000
     85       0.4989      0.00000
     86       0.5263      0.00000
     87       0.5308      0.00000
     88       0.5359      0.00000
     89       0.5406      0.00000
     90       0.6106      0.00000
     91       0.6478      0.00000
     92       0.6530      0.00000


--------------------------------------------------------------------------------------------------------


 soft charge-density along one line, spin component           1
         0         1         2         3         4         5         6         7         8         9
 total charge-density along one line
 
 soft charge-density along one line, spin component           2
         0         1         2         3         4         5         6         7         8         9
 total charge-density along one line
 
 pseudopotential strength for first ion, spin component:           1
 10.692  14.225   0.002  -0.008  -0.015  -0.007   0.020   0.037
 14.225  18.925   0.003  -0.010  -0.019  -0.009   0.025   0.047
  0.002   0.003  -4.667   0.000  -0.000   9.068   0.001  -0.000
 -0.008  -0.010   0.000  -4.666  -0.001   0.001   9.078  -0.000
 -0.015  -0.019  -0.000  -0.001  -4.668  -0.000  -0.000   9.079
 -0.007  -0.009   9.068   0.001  -0.000 -19.914  -0.004   0.001
  0.020   0.025   0.001   9.078  -0.000  -0.004 -19.940  -0.000
  0.037   0.047  -0.000  -0.000   9.079   0.001  -0.000 -19.942
 pseudopotential strength for first ion, spin component:           2
 10.692  14.225   0.002  -0.008  -0.015  -0.007   0.020   0.037
 14.225  18.925   0.003  -0.010  -0.019  -0.009   0.025   0.047
  0.002   0.003  -4.667   0.000  -0.000   9.068   0.001  -0.000
 -0.008  -0.010   0.000  -4.666  -0.001   0.001   9.078  -0.000
 -0.015  -0.019  -0.000  -0.001  -4.668  -0.000  -0.000   9.079
 -0.007  -0.009   9.068   0.001  -0.000 -19.914  -0.004   0.001
  0.020   0.025   0.001   9.078  -0.000  -0.004 -19.940  -0.000
  0.037   0.047  -0.000  -0.000   9.079   0.001  -0.000 -19.942
 total augmentation occupancy for first ion, spin component:           1
  8.004  -3.787   0.047  -0.119  -0.231   0.008  -0.037  -0.075
 -3.787   1.981  -0.055   0.151   0.291  -0.005   0.027   0.055
  0.047  -0.055   1.635  -0.050  -0.013   0.124   0.004  -0.002
 -0.119   0.151  -0.050   1.343   0.057   0.004   0.150  -0.006
 -0.231   0.291  -0.013   0.057   1.430  -0.002  -0.006   0.142
  0.008  -0.005   0.124   0.004  -0.002   0.012   0.001  -0.001
 -0.037   0.027   0.004   0.150  -0.006   0.001   0.020  -0.002
 -0.075   0.055  -0.002  -0.006   0.142  -0.001  -0.002   0.018
 total augmentation occupancy for first ion, spin component:           2
 -0.000   0.000   0.000  -0.000  -0.000   0.000  -0.000  -0.000
  0.000  -0.000  -0.000   0.000   0.000  -0.000   0.000   0.000
  0.000  -0.000   0.000  -0.000  -0.000   0.000  -0.000  -0.000
 -0.000   0.000  -0.000   0.000   0.000   0.000   0.000   0.000
 -0.000   0.000  -0.000   0.000  -0.000   0.000   0.000   0.000
  0.000  -0.000   0.000   0.000   0.000   0.000   0.000   0.000
 -0.000   0.000  -0.000   0.000   0.000   0.000   0.000   0.000
 -0.000   0.000  -0.000   0.000   0.000   0.000   0.000   0.000


------------------------ aborting loop because EDIFF is reached ----------------------------------------


 


 total charge     
 
# of ion       s       p       d       tot
------------------------------------------
    1        0.835   1.594   0.000   2.428
    2        0.833   1.595   0.000   2.428
    3        0.840   1.574   0.000   2.414
    4        0.832   1.597   0.000   2.430
    5        0.833   1.604   0.000   2.437
    6        0.815   1.565   0.000   2.381
    7        0.875   1.720   0.000   2.595
    8        1.757   4.402   0.000   6.159
    9        1.757   4.404   0.000   6.161
   10        1.758   4.403   0.000   6.161
   11        1.758   4.403   0.000   6.161
   12        1.758   4.403   0.000   6.160
   13        1.758   4.402   0.000   6.160
   14        1.758   4.402   0.000   6.160
   15        1.758   4.403   0.000   6.161
   16        1.758   4.412   0.000   6.170
   17        1.759   4.412   0.000   6.170
   18        1.759   4.413   0.000   6.172
   19        1.755   4.402   0.000   6.157
   20        1.755   4.405   0.000   6.160
   21        1.585   3.596   0.000   5.181
   22        1.586   3.595   0.000   5.181
--------------------------------------------------
tot         31.881  75.706   0.000 107.588
 


 magnetization (x)
 
# of ion       s       p       d       tot
------------------------------------------
    1       -0.000  -0.000   0.000  -0.000
    2       -0.000  -0.000   0.000  -0.000
    3       -0.000   0.000   0.000  -0.000
    4       -0.000   0.000   0.000   0.000
    5        0.000   0.000   0.000   0.000
    6       -0.000  -0.000   0.000  -0.000
    7        0.000   0.000   0.000   0.000
    8        0.000  -0.000   0.000  -0.000
    9        0.000   0.000   0.000   0.000
   10        0.000   0.000   0.000   0.000
   11       -0.000  -0.000   0.000  -0.000
   12       -0.000   0.000   0.000   0.000
   13       -0.000  -0.000   0.000  -0.000
   14        0.000   0.000   0.000   0.000
   15        0.000   0.000   0.000   0.000
   16        0.000   0.000   0.000   0.000
   17        0.000   0.000   0.000   0.000
   18       -0.000  -0.000   0.000  -0.000
   19        0.000  -0.000   0.000  -0.000
   20        0.000   0.000   0.000   0.000
   21       -0.000  -0.000   0.000  -0.000
   22       -0.000   0.000   0.000   0.000
--------------------------------------------------
tot         -0.000  -0.000   0.000  -0.000
 
    CHARGE:  cpu time    1.2659: real time    1.2682
    FORLOC:  cpu time    0.1695: real time    0.1699
    FORNL :  cpu time    3.8765: real time    3.8828
    STRESS:  cpu time  181.1113: real time  181.4047
    FORCOR:  cpu time   30.7301: real time   30.7948
    FORHAR:  cpu time    0.4288: real time    0.4296
    MIXING:  cpu time    0.0591: real time    0.0592
    OFIELD:  cpu time    0.0001: real time    0.0001

  FORCE on cell =-STRESS in cart. coord.  units (eV):
  Direction    XX          YY          ZZ          XY          YZ          ZX
  --------------------------------------------------------------------------------------
  Alpha Z     4.24102     4.24102     4.24102
  Ewald    5352.91213 12151.96023  4525.07041    -6.20595   139.41091  -151.27200
  Hartree  8436.26531 15207.34605  7588.93287    -2.04192    90.69387   -44.62186
  E(xc)    -725.47722  -722.69757  -726.93268     0.14288     0.50270     0.12219
  Local  -15533.75178-29258.00175-13815.09881     7.78936  -229.79054   174.59252
  n-local  -569.15473  -574.94725  -565.15173    -0.52268    -2.49699     1.13604
  augment   249.79440   269.06959   242.57768    -0.50269     0.55736     1.58779
  Kinetic  2784.58457  2922.02864  2746.74958     0.74539     0.61911    18.83900
  Fock        0.00000     0.00000     0.00000     0.00000     0.00000     0.00000
  -------------------------------------------------------------------------------------
  Total      -0.58631    -1.00105     0.38834    -0.59562    -0.50358     0.38367
  in kB      -0.05891    -0.10058     0.03902    -0.05984    -0.05060     0.03855
  external pressure =       -0.04 kB  Pullay stress =        0.00 kB


 VOLUME and BASIS-vectors are now :
 -----------------------------------------------------------------------------
  energy-cutoff  :      550.00
  volume of cell :    15946.28
      direct lattice vectors                 reciprocal lattice vectors
    23.226057760  0.000000000  0.000000000     0.043055090  0.000000000  0.000000000
     0.000000000 29.498630020  0.000000000     0.000000000  0.033899879  0.000000000
     0.000000000  0.000000000 23.274589510     0.000000000  0.000000000  0.042965312

  length of vectors
    23.226057760 29.498630020 23.274589510     0.043055090  0.033899879  0.042965312


 FORCES acting on ions
    electron-ion (+dipol)            ewald-force                    non-local-force                 convergence-correction
 -----------------------------------------------------------------------------------------------
   0.326E+02 0.117E+03 0.169E+02   -.234E+02 -.121E+03 -.119E+02   -.951E+01 0.194E+01 -.503E+01   -.224E-02 0.122E-02 0.201E-03
   -.355E+02 0.244E+02 -.548E+01   0.251E+02 -.271E+02 0.322E+01   0.101E+02 0.939E+00 0.217E+01   -.141E-02 0.446E-03 0.102E-02
   -.123E+02 0.228E+03 -.117E+02   0.302E+01 -.234E+03 0.258E+01   0.856E+01 0.503E+01 0.847E+01   -.247E-02 0.332E-02 0.157E-02
   0.337E+02 -.546E+02 0.105E+01   -.235E+02 0.525E+02 -.165E+01   -.101E+02 0.648E+00 0.542E+00   0.136E-03 -.796E-03 -.130E-03
   -.435E+02 -.141E+03 0.207E+02   0.338E+02 0.140E+03 -.176E+02   0.945E+01 -.866E-01 -.302E+01   -.227E-03 -.735E-03 0.716E-03
   0.227E+02 -.210E+03 -.954E+01   -.184E+02 0.201E+03 0.787E+01   -.421E+01 0.772E+01 0.162E+01   0.145E-02 -.190E-02 -.124E-02
   0.236E+02 0.246E+03 0.329E+02   -.238E+02 -.247E+03 -.332E+02   -.524E+00 -.759E+00 -.514E+00   -.187E-02 0.173E-02 0.196E-02
   0.209E+03 0.222E+03 0.719E+03   -.220E+03 -.231E+03 -.773E+03   0.992E+01 0.509E+01 0.543E+02   -.848E-02 0.216E-03 0.122E-01
   0.704E+03 0.140E+03 -.263E+03   -.755E+03 -.140E+03 0.288E+03   0.500E+02 -.444E+01 -.251E+02   -.218E-02 -.475E-03 -.676E-02
   -.401E+03 0.269E+02 -.664E+03   0.424E+03 -.319E+02 0.715E+03   -.238E+02 0.212E+01 -.518E+02   -.845E-02 -.694E-03 -.103E-01
   -.631E+03 0.391E+02 0.451E+03   0.673E+03 -.402E+02 -.488E+03   -.425E+02 -.189E+01 0.379E+02   -.262E-02 -.236E-04 0.369E-02
   0.556E+03 -.679E+02 0.536E+03   -.593E+03 0.609E+02 -.580E+03   0.370E+02 0.427E+01 0.438E+02   0.108E-01 -.149E-02 0.591E-02
   0.486E+03 -.125E+03 -.587E+03   -.518E+03 0.128E+03 0.634E+03   0.312E+02 -.558E+01 -.479E+02   0.108E-02 -.176E-02 0.924E-03
   -.666E+03 -.243E+03 -.343E+03   0.713E+03 0.239E+03 0.376E+03   -.468E+02 0.199E+01 -.334E+02   -.735E-02 -.501E-03 0.492E-03
   -.325E+03 -.249E+03 0.691E+03   0.343E+03 0.250E+03 -.746E+03   -.184E+02 -.201E+01 0.548E+02   0.176E-02 0.435E-02 0.217E-02
   -.279E+03 -.747E+03 0.172E+03   0.312E+03 0.792E+03 -.191E+03   -.324E+02 -.454E+02 0.192E+02   0.595E-02 -.597E-02 -.374E-02
   0.611E+03 -.407E+03 0.274E+03   -.664E+03 0.408E+03 -.301E+03   0.522E+02 -.254E+01 0.273E+02   0.478E-02 -.110E-02 -.548E-02
   0.142E+03 -.443E+03 -.639E+03   -.151E+03 0.449E+03 0.698E+03   0.888E+01 -.756E+01 -.582E+02   0.673E-03 0.278E-03 0.658E-02
   -.176E+02 0.356E+03 -.693E+03   0.116E+02 -.362E+03 0.744E+03   0.451E+01 0.329E+01 -.521E+02   0.604E-02 0.855E-02 -.299E-02
   -.683E+03 0.314E+03 0.540E+02   0.734E+03 -.315E+03 -.657E+02   -.515E+02 -.232E+01 0.105E+02   -.329E-02 0.616E-02 -.153E-02
   0.479E+03 0.399E+03 -.172E+02   -.530E+03 -.406E+03 0.253E+02   0.493E+02 0.457E+01 -.863E+01   -.207E-01 0.114E-01 -.647E-02
   -.212E+03 0.533E+03 0.259E+03   0.244E+03 -.565E+03 -.285E+03   -.324E+02 0.299E+02 0.248E+02   -.317E-02 -.795E-02 0.163E-01
 -----------------------------------------------------------------------------------------------
   0.113E+01 0.509E+01 0.216E+00   0.284E-12 0.000E+00 0.114E-12   -.109E+01 -.513E+01 -.230E+00   -.318E-01 0.143E-01 0.151E-01
 
 
 POSITION                                       TOTAL-FORCE (eV/Angst)
 -----------------------------------------------------------------------------------
     11.20749     13.22187     11.39723        -0.009240      0.009396     -0.004445
     12.02616     14.51989     11.63221        -0.001111      0.007741      0.014800
     11.88792     11.92295     11.87984         0.001704      0.011352      0.001201
     11.18558     15.82473     11.53116        -0.002929      0.005512     -0.009609
     12.04482     17.10065     11.32273         0.011211     -0.005851     -0.000747
     11.30776     18.42884     11.62731         0.008121     -0.007901     -0.008745
     11.27550     10.63430     11.24479         0.012075     -0.006003     -0.009984
     10.98560     13.10733     10.05935         0.003103      0.002917     -0.012205
     10.01054     13.37728     12.01832         0.003976      0.003319      0.007585
     12.57459     14.47279     12.87027         0.010267     -0.000653      0.013105
     13.02397     14.59000     10.71737        -0.005603      0.003637      0.004334
     10.32931     15.71957     10.48757        -0.012535      0.001584     -0.002864
     10.46591     15.97480     12.66855         0.003266     -0.003867     -0.006541
     13.13332     17.04407     12.12650         0.006169     -0.000681      0.000764
     12.45284     17.14801     10.03544        -0.004939     -0.003502      0.000484
     12.05678     19.44684     11.18518        -0.002972      0.005520      0.007644
     10.12320     18.45881     11.00141        -0.001908     -0.002417      0.003522
     11.11306     18.58149     12.94106        -0.005271     -0.006171     -0.011748
     11.76925     11.86579     13.24605        -0.004231     -0.002522      0.004838
     13.22539     12.05016     11.61076        -0.000676     -0.000454      0.011714
     10.05235     10.52440     11.45989         0.004947     -0.017110      0.003275
     12.07016      9.90022     10.63405        -0.013426      0.006154     -0.006378
 -----------------------------------------------------------------------------------
    total drift:                                0.004201     -0.018800      0.001213


--------------------------------------------------------------------------------------------------------



  FREE ENERGIE OF THE ION-ELECTRON SYSTEM (eV)
  ---------------------------------------------------
  free  energy   TOTEN  =      -161.42025134 eV

  energy  without entropy=     -161.42025134  energy(sigma->0) =     -161.42025134
 
 d Force = 0.6343787E-04[ 0.498E-04, 0.771E-04]  d Energy = 0.9310619E-04-0.297E-04
 d Force = 0.2729541E+00[ 0.273E+00, 0.273E+00]  d Ewald  = 0.2729541E+00 0.272E-08


--------------------------------------------------------------------------------------------------------


    POTLOK:  cpu time   83.1879: real time   83.3423


--------------------------------------------------------------------------------------------------------


 Conjugate gradient step on ions:
 trial-energy change:   -0.000093  1 .order   -0.000063   -0.000077   -0.000050
  (g-gl).g = 0.134E-03      g.g   = 0.312E-03  gl.gl    = 0.499E-03
 g(Force)  = 0.312E-03   g(Stress)= 0.000E+00 ortho     = 0.333E-04
 gamma     =   0.26779
 trial     =   0.24014
 opt step  =   0.67891  (harmonic =   0.67891) maximal distance =0.00121656
 next E    =  -161.420267   (d E  =  -0.00011)


--------------------------------------------------------------------------------------------------------


  
 reached required accuracy - stopping structural energy minimisation
 writing wavefunctions
     LOOP+:  cpu time  749.4743: real time  753.1230
    4ORBIT:  cpu time    0.0000: real time    0.0000
 


 total charge     
 
# of ion       s       p       d       tot
------------------------------------------
    1        0.835   1.594   0.000   2.428
    2        0.833   1.595   0.000   2.428
    3        0.840   1.574   0.000   2.414
    4        0.832   1.597   0.000   2.430
    5        0.833   1.604   0.000   2.437
    6        0.815   1.565   0.000   2.381
    7        0.875   1.720   0.000   2.595
    8        1.757   4.402   0.000   6.159
    9        1.757   4.404   0.000   6.161
   10        1.758   4.403   0.000   6.161
   11        1.758   4.403   0.000   6.161
   12        1.758   4.403   0.000   6.160
   13        1.758   4.402   0.000   6.160
   14        1.758   4.402   0.000   6.160
   15        1.758   4.403   0.000   6.161
   16        1.758   4.412   0.000   6.170
   17        1.759   4.412   0.000   6.170
   18        1.759   4.413   0.000   6.172
   19        1.755   4.402   0.000   6.157
   20        1.755   4.405   0.000   6.160
   21        1.585   3.596   0.000   5.181
   22        1.586   3.595   0.000   5.181
--------------------------------------------------
tot         31.881  75.706   0.000 107.588
 


 magnetization (x)
 
# of ion       s       p       d       tot
------------------------------------------
    1       -0.000  -0.000   0.000  -0.000
    2       -0.000  -0.000   0.000  -0.000
    3       -0.000   0.000   0.000  -0.000
    4       -0.000   0.000   0.000   0.000
    5        0.000   0.000   0.000   0.000
    6       -0.000  -0.000   0.000  -0.000
    7        0.000   0.000   0.000   0.000
    8        0.000  -0.000   0.000  -0.000
    9        0.000   0.000   0.000   0.000
   10        0.000   0.000   0.000   0.000
   11       -0.000  -0.000   0.000  -0.000
   12       -0.000   0.000   0.000   0.000
   13       -0.000  -0.000   0.000  -0.000
   14        0.000   0.000   0.000   0.000
   15        0.000   0.000   0.000   0.000
   16        0.000   0.000   0.000   0.000
   17        0.000   0.000   0.000   0.000
   18       -0.000  -0.000   0.000  -0.000
   19        0.000  -0.000   0.000  -0.000
   20        0.000   0.000   0.000   0.000
   21       -0.000  -0.000   0.000  -0.000
   22       -0.000   0.000   0.000   0.000
--------------------------------------------------
tot         -0.000  -0.000   0.000  -0.000
 

 total amount of memory used by VASP MPI-rank0   363231. kBytes
=======================================================================

   base      :      30000. kBytes
   nonlr-proj:       1715. kBytes
   fftplans  :      64967. kBytes
   grid      :     237872. kBytes
   one-center:         12. kBytes
   wavefun   :      28665. kBytes
 
  
  
 General timing and accounting informations for this job:
 ========================================================
  
                  Total CPU time used (sec):    52184.531
                            User time (sec):    49930.312
                          System time (sec):     2254.220
                         Elapsed time (sec):    52304.817
  
                   Maximum memory used (kb):     1645616.
                   Average memory used (kb):           0.
  
                          Minor page faults:     15058457
                          Major page faults:          158
                 Voluntary context switches:       546820
