 vasp.5.4.4.18Apr17-6-g9f103f2a35 (build Jun 11 2020 13:42:08) complex          
  
 executed on             LinuxIFC date 2021.02.02  03:13:07
 running on   48 total cores
 distrk:  each k-point on    8 cores,    6 groups
 distr:  one band on NCORES_PER_BAND=   1 cores,    8 groups


--------------------------------------------------------------------------------------------------------


 INCAR:
 POTCAR:    PAW_PBE B 06Sep2000                   
 POTCAR:    PAW_PBE N 08Apr2002                   
 POTCAR:    PAW_PBE C 08Apr2002                   
 POTCAR:    PAW_PBE F 08Apr2002                   
 POTCAR:    PAW_PBE O 08Apr2002                   

 ----------------------------------------------------------------------------- 
|                                                                             |
|           W    W    AA    RRRRR   N    N  II  N    N   GGGG   !!!           |
|           W    W   A  A   R    R  NN   N  II  NN   N  G    G  !!!           |
|           W    W  A    A  R    R  N N  N  II  N N  N  G       !!!           |
|           W WW W  AAAAAA  RRRRR   N  N N  II  N  N N  G  GGG   !            |
|           WW  WW  A    A  R   R   N   NN  II  N   NN  G    G                |
|           W    W  A    A  R    R  N    N  II  N    N   GGGG   !!!           |
|                                                                             |
|      For optimal performance we recommend to set                            |
|        NCORE= 4 - approx SQRT( number of cores)                             |
|      NCORE specifies how many cores store one orbital (NPAR=cpu/NCORE).     |
|      This setting can  greatly improve the performance of VASP for DFT.     |
|      The default,   NCORE=1            might be grossly inefficient         |
|      on modern multi-core architectures or massively parallel machines.     |
|      Do your own testing !!!!                                               |
|      Unfortunately you need to use the default for GW and RPA calculations. |
|      (for HF NCORE is supported but not extensively tested yet)             |
|                                                                             |
 ----------------------------------------------------------------------------- 


 ----------------------------------------------------------------------------- 
|                                                                             |
|           W    W    AA    RRRRR   N    N  II  N    N   GGGG   !!!           |
|           W    W   A  A   R    R  NN   N  II  NN   N  G    G  !!!           |
|           W    W  A    A  R    R  N N  N  II  N N  N  G       !!!           |
|           W WW W  AAAAAA  RRRRR   N  N N  II  N  N N  G  GGG   !            |
|           WW  WW  A    A  R   R   N   NN  II  N   NN  G    G                |
|           W    W  A    A  R    R  N    N  II  N    N   GGGG   !!!           |
|                                                                             |
|      You have enabled k-point parallelism (KPAR>1).                         |
|      This developmental code was originally  written by Paul Kent at ORNL,  |
|      and carefully double checked in Vienna.                                |
|      GW as well as linear response parallelism added by Martijn Marsman     |
|      and Georg Kresse.                                                      |
|      Carefully verify results versus KPAR=1.                                |
|      Report problems to Paul Kent and Vienna.                               |
|                                                                             |
 ----------------------------------------------------------------------------- 

 POTCAR:    PAW_PBE B 06Sep2000                   
   VRHFIN =B: s2p1                                                              
   LEXCH  = PE                                                                  
   EATOM  =    71.1703 eV,    5.2309 Ry                                         
                                                                                
   TITEL  = PAW_PBE B 06Sep2000                                                 
   LULTRA =        F    use ultrasoft PP ?                                      
   IUNSCR =        1    unscreen: 0-lin 1-nonlin 2-no                           
   RPACOR =    1.200    partial core radius                                     
   POMASS =   10.811; ZVAL   =    3.000    mass and valenz                      
   RCORE  =    1.700    outmost cutoff radius                                   
   RWIGS  =    1.710; RWIGS  =    0.905    wigner-seitz radius (au A)           
   ENMAX  =  318.614; ENMIN  =  238.960 eV                                      
   ICORE  =        2    local potential                                         
   LCOR   =        T    correct aug charges                                     
   LPAW   =        T    paw PP                                                  
   EAUG   =  535.514                                                            
   DEXC   =    0.000                                                            
   RMAX   =    1.732    core radius for proj-oper                               
   RAUG   =    1.300    factor for augmentation sphere                          
   RDEP   =    1.757    radius for radial grids                                 
   RDEPT  =    1.436    core radius for aug-charge                              
                                                                                
   Atomic configuration                                                         
    4 entries                                                                   
     n  l   j            E        occ.                                          
     1  0  0.50      -180.5896   2.0000                                         
     2  0  0.50        -9.4431   2.0000                                         
     2  1  0.50        -3.6068   1.0000                                         
     3  2  1.50        -4.0817   0.0000                                         
   Description                                                                  
     l       E           TYP  RCUT    TYP  RCUT                                 
     0     -9.4430752     23  1.500                                             
     0      0.8675899     23  1.500                                             
     1     -3.6067955     23  1.700                                             
     1      6.1086146     23  1.700                                             
     2     -4.0817478      7  1.700                                             
  local pseudopotential read in
  partial core-charges read in
  partial kinetic energy density read in
  atomic valenz-charges read in
  non local Contribution for L=           0  read in
    real space projection operators read in
  non local Contribution for L=           0  read in
    real space projection operators read in
  non local Contribution for L=           1  read in
    real space projection operators read in
  non local Contribution for L=           1  read in
    real space projection operators read in
    PAW grid and wavefunctions read in
 
   number of l-projection  operators is LMAX  =           4
   number of lm-projection operators is LMMAX =           8
 
 POTCAR:    PAW_PBE N 08Apr2002                   
   VRHFIN =N: s2p3                                                              
   LEXCH  = PE                                                                  
   EATOM  =   264.5486 eV,   19.4438 Ry                                         
                                                                                
   TITEL  = PAW_PBE N 08Apr2002                                                 
   LULTRA =        F    use ultrasoft PP ?                                      
   IUNSCR =        1    unscreen: 0-lin 1-nonlin 2-no                           
   RPACOR =    1.200    partial core radius                                     
   POMASS =   14.001; ZVAL   =    5.000    mass and valenz                      
   RCORE  =    1.500    outmost cutoff radius                                   
   RWIGS  =    1.400; RWIGS  =    0.741    wigner-seitz radius (au A)           
   ENMAX  =  400.000; ENMIN  =  300.000 eV                                      
   ICORE  =        2    local potential                                         
   LCOR   =        T    correct aug charges                                     
   LPAW   =        T    paw PP                                                  
   EAUG   =  627.112                                                            
   DEXC   =    0.000                                                            
   RMAX   =    1.529    core radius for proj-oper                               
   RAUG   =    1.300    factor for augmentation sphere                          
   RDEP   =    1.514    radius for radial grids                                 
   RDEPT  =    1.338    core radius for aug-charge                              
                                                                                
   Atomic configuration                                                         
    4 entries                                                                   
     n  l   j            E        occ.                                          
     1  0  0.50      -384.7179   2.0000                                         
     2  0  0.50       -18.5828   2.0000                                         
     2  1  0.50        -7.0898   3.0000                                         
     3  2  1.50        -6.8029   0.0000                                         
   Description                                                                  
     l       E           TYP  RCUT    TYP  RCUT                                 
     0    -18.5828119     23  1.200                                             
     0    -13.5018863     23  1.200                                             
     1     -7.0897853     23  1.500                                             
     1      9.5240782     23  1.500                                             
     2     -6.8029130      7  1.500                                             
  local pseudopotential read in
  partial core-charges read in
  partial kinetic energy density read in
  atomic valenz-charges read in
  non local Contribution for L=           0  read in
    real space projection operators read in
  non local Contribution for L=           0  read in
    real space projection operators read in
  non local Contribution for L=           1  read in
    real space projection operators read in
  non local Contribution for L=           1  read in
    real space projection operators read in
    PAW grid and wavefunctions read in
 
   number of l-projection  operators is LMAX  =           4
   number of lm-projection operators is LMMAX =           8
 
 POTCAR:    PAW_PBE C 08Apr2002                   
   VRHFIN =C: s2p2                                                              
   LEXCH  = PE                                                                  
   EATOM  =   147.1560 eV,   10.8157 Ry                                         
                                                                                
   TITEL  = PAW_PBE C 08Apr2002                                                 
   LULTRA =        F    use ultrasoft PP ?                                      
   IUNSCR =        1    unscreen: 0-lin 1-nonlin 2-no                           
   RPACOR =    1.200    partial core radius                                     
   POMASS =   12.011; ZVAL   =    4.000    mass and valenz                      
   RCORE  =    1.500    outmost cutoff radius                                   
   RWIGS  =    1.630; RWIGS  =    0.863    wigner-seitz radius (au A)           
   ENMAX  =  400.000; ENMIN  =  300.000 eV                                      
   ICORE  =        2    local potential                                         
   LCOR   =        T    correct aug charges                                     
   LPAW   =        T    paw PP                                                  
   EAUG   =  644.873                                                            
   DEXC   =    0.000                                                            
   RMAX   =    1.529    core radius for proj-oper                               
   RAUG   =    1.300    factor for augmentation sphere                          
   RDEP   =    1.501    radius for radial grids                                 
   RDEPT  =    1.300    core radius for aug-charge                              
                                                                                
   Atomic configuration                                                         
    4 entries                                                                   
     n  l   j            E        occ.                                          
     1  0  0.50      -273.3789   2.0000                                         
     2  0  0.50       -13.7508   2.0000                                         
     2  1  0.50        -5.2854   2.0000                                         
     3  2  1.50        -5.4423   0.0000                                         
   Description                                                                  
     l       E           TYP  RCUT    TYP  RCUT                                 
     0    -13.7508458     23  1.200                                             
     0     -8.2022199     23  1.200                                             
     1     -5.2854383     23  1.500                                             
     1     34.0145650     23  1.500                                             
     2     -5.4423304      7  1.500                                             
  local pseudopotential read in
  partial core-charges read in
  partial kinetic energy density read in
  atomic valenz-charges read in
  non local Contribution for L=           0  read in
    real space projection operators read in
  non local Contribution for L=           0  read in
    real space projection operators read in
  non local Contribution for L=           1  read in
    real space projection operators read in
  non local Contribution for L=           1  read in
    real space projection operators read in
    PAW grid and wavefunctions read in
 
   number of l-projection  operators is LMAX  =           4
   number of lm-projection operators is LMMAX =           8
 
 POTCAR:    PAW_PBE F 08Apr2002                   
   VRHFIN =F: s2p5                                                              
   LEXCH  = PE                                                                  
   EATOM  =   659.6475 eV,   48.4827 Ry                                         
                                                                                
   TITEL  = PAW_PBE F 08Apr2002                                                 
   LULTRA =        F    use ultrasoft PP ?                                      
   IUNSCR =        1    unscreen: 0-lin 1-nonlin 2-no                           
   RPACOR =    1.200    partial core radius                                     
   POMASS =   18.998; ZVAL   =    7.000    mass and valenz                      
   RCORE  =    1.520    outmost cutoff radius                                   
   RWIGS  =    1.500; RWIGS  =    0.794    wigner-seitz radius (au A)           
   ENMAX  =  400.000; ENMIN  =  300.000 eV                                      
   ICORE  =        2    local potential                                         
   LCOR   =        T    correct aug charges                                     
   LPAW   =        T    paw PP                                                  
   EAUG   =  613.614                                                            
   RMAX   =    1.555    core radius for proj-oper                               
   RAUG   =    1.300    factor for augmentation sphere                          
   RDEP   =    1.539    radius for radial grids                                 
   RDEPT  =    1.299    core radius for aug-charge                              
                                                                                
   Atomic configuration                                                         
    4 entries                                                                   
     n  l   j            E        occ.                                          
     1  0  0.50      -663.3661   2.0000                                         
     2  0  0.50       -29.8995   2.0000                                         
     2  1  0.50       -11.1114   5.0000                                         
     3  2  1.50       -10.8847   0.0000                                         
   Description                                                                  
     l       E           TYP  RCUT    TYP  RCUT                                 
     0    -29.8995018     23  1.200                                             
     0     -9.5240782     23  1.200                                             
     1    -11.1113914     23  1.520                                             
     1      1.3605826     23  1.520                                             
     2    -10.8846608      7  1.500                                             
  local pseudopotential read in
  partial core-charges read in
  partial kinetic energy density read in
  atomic valenz-charges read in
  non local Contribution for L=           0  read in
    real space projection operators read in
  non local Contribution for L=           0  read in
    real space projection operators read in
  non local Contribution for L=           1  read in
    real space projection operators read in
  non local Contribution for L=           1  read in
    real space projection operators read in
    PAW grid and wavefunctions read in
 
   number of l-projection  operators is LMAX  =           4
   number of lm-projection operators is LMMAX =           8
 
 POTCAR:    PAW_PBE O 08Apr2002                   
   VRHFIN =O: s2p4                                                              
   LEXCH  = PE                                                                  
   EATOM  =   432.3788 eV,   31.7789 Ry                                         
                                                                                
   TITEL  = PAW_PBE O 08Apr2002                                                 
   LULTRA =        F    use ultrasoft PP ?                                      
   IUNSCR =        1    unscreen: 0-lin 1-nonlin 2-no                           
   RPACOR =    1.200    partial core radius                                     
   POMASS =   16.000; ZVAL   =    6.000    mass and valenz                      
   RCORE  =    1.520    outmost cutoff radius                                   
   RWIGS  =    1.550; RWIGS  =    0.820    wigner-seitz radius (au A)           
   ENMAX  =  400.000; ENMIN  =  300.000 eV                                      
   ICORE  =        2    local potential                                         
   LCOR   =        T    correct aug charges                                     
   LPAW   =        T    paw PP                                                  
   EAUG   =  605.392                                                            
   DEXC   =    0.000                                                            
   RMAX   =    1.553    core radius for proj-oper                               
   RAUG   =    1.300    factor for augmentation sphere                          
   RDEP   =    1.550    radius for radial grids                                 
   RDEPT  =    1.329    core radius for aug-charge                              
                                                                                
   Atomic configuration                                                         
    4 entries                                                                   
     n  l   j            E        occ.                                          
     1  0  0.50      -514.6923   2.0000                                         
     2  0  0.50       -23.9615   2.0000                                         
     2  1  0.50        -9.0305   4.0000                                         
     3  2  1.50        -9.5241   0.0000                                         
   Description                                                                  
     l       E           TYP  RCUT    TYP  RCUT                                 
     0    -23.9615318     23  1.200                                             
     0     -9.5240782     23  1.200                                             
     1     -9.0304911     23  1.520                                             
     1      8.1634956     23  1.520                                             
     2     -9.5240782      7  1.500                                             
  local pseudopotential read in
  partial core-charges read in
  partial kinetic energy density read in
  kinetic energy density of atom read in
  atomic valenz-charges read in
  non local Contribution for L=           0  read in
    real space projection operators read in
  non local Contribution for L=           0  read in
    real space projection operators read in
  non local Contribution for L=           1  read in
    real space projection operators read in
  non local Contribution for L=           1  read in
    real space projection operators read in
    PAW grid and wavefunctions read in
 
   number of l-projection  operators is LMAX  =           4
   number of lm-projection operators is LMMAX =           8
 
 Optimization of the real space projectors (new method)

 maximal supplied QI-value         = 22.11
 optimisation between [QCUT,QGAM] = [ 11.94, 23.88] = [ 39.92,159.67] Ry 
 Optimized for a Real-space Cutoff    1.11 Angstroem

   l    n(q)    QCUT    max X(q) W(low)/X(q) W(high)/X(q)  e(spline) 
   0      8    11.939    53.033    0.41E-03    0.69E-03    0.53E-07
   0      8    11.939    34.740    0.40E-03    0.68E-03    0.52E-07
   1      7    11.939    30.949    0.26E-03    0.22E-03    0.14E-06
   1      7    11.939    19.518    0.24E-03    0.20E-03    0.13E-06
 Optimization of the real space projectors (new method)

 maximal supplied QI-value         = 25.13
 optimisation between [QCUT,QGAM] = [ 11.81, 23.88] = [ 39.08,159.64] Ry 
 Optimized for a Real-space Cutoff    1.25 Angstroem

   l    n(q)    QCUT    max X(q) W(low)/X(q) W(high)/X(q)  e(spline) 
   0      9    11.813    79.467    0.37E-04    0.68E-04    0.41E-06
   0      9    11.813    66.151    0.38E-04    0.67E-04    0.41E-06
   1      8    11.813    20.169    0.33E-03    0.30E-03    0.71E-06
   1      8    11.813    14.454    0.33E-03    0.31E-03    0.72E-06
 Optimization of the real space projectors (new method)

 maximal supplied QI-value         = 25.13
 optimisation between [QCUT,QGAM] = [ 11.81, 23.88] = [ 39.08,159.64] Ry 
 Optimized for a Real-space Cutoff    1.05 Angstroem

   l    n(q)    QCUT    max X(q) W(low)/X(q) W(high)/X(q)  e(spline) 
   0      7    11.813   115.676    0.42E-03    0.31E-03    0.23E-06
   0      7    11.813    87.132    0.42E-03    0.31E-03    0.23E-06
   1      7    11.813     4.429    0.34E-03    0.52E-04    0.16E-06
   1      7    11.813     2.733    0.27E-03    0.31E-04    0.13E-06
 Optimization of the real space projectors (new method)

 maximal supplied QI-value         = 24.76
 optimisation between [QCUT,QGAM] = [ 11.88, 24.01] = [ 39.54,161.47] Ry 
 Optimized for a Real-space Cutoff    1.05 Angstroem

   l    n(q)    QCUT    max X(q) W(low)/X(q) W(high)/X(q)  e(spline) 
   0      7    11.883    14.049    0.20E-03    0.16E-03    0.14E-06
   0      7    11.883     8.945    0.29E-03    0.20E-03    0.19E-06
   1      7    11.883     7.086    0.38E-03    0.88E-04    0.22E-06
   1      7    11.883     6.747    0.34E-03    0.55E-04    0.20E-06
 Optimization of the real space projectors (new method)

 maximal supplied QI-value         = 24.76
 optimisation between [QCUT,QGAM] = [ 11.88, 24.01] = [ 39.54,161.47] Ry 
 Optimized for a Real-space Cutoff    1.05 Angstroem

   l    n(q)    QCUT    max X(q) W(low)/X(q) W(high)/X(q)  e(spline) 
   0      7    11.883    20.381    0.32E-03    0.21E-03    0.20E-06
   0      7    11.883    15.268    0.35E-03    0.22E-03    0.22E-06
   1      7    11.883     5.964    0.44E-03    0.69E-04    0.24E-06
   1      7    11.883     5.382    0.38E-03    0.34E-04    0.20E-06
  PAW_PBE B 06Sep2000                   :
 energy of atom  1       EATOM=  -71.1703
 kinetic energy error for atom=    0.0009 (will be added to EATOM!!)
  PAW_PBE N 08Apr2002                   :
 energy of atom  2       EATOM= -264.5486
 kinetic energy error for atom=    0.0116 (will be added to EATOM!!)
  PAW_PBE C 08Apr2002                   :
 energy of atom  3       EATOM= -147.1560
 kinetic energy error for atom=    0.0066 (will be added to EATOM!!)
  PAW_PBE F 08Apr2002                   :
 energy of atom  4       EATOM= -659.6475
 kinetic energy error for atom=    0.0296 (will be added to EATOM!!)
  PAW_PBE O 08Apr2002                   :
 energy of atom  5       EATOM= -432.3788
 kinetic energy error for atom=    0.0194 (will be added to EATOM!!)
 
 
 POSCAR: B N C F O                               
  positions in direct lattice
  velocities in cartesian coordinates

 METAGGA = SCAN     LMAXTAU =  6    LMIXTAU =  F

 exchange correlation table for  LEXCH =        8
   RHO(1)=    0.500       N(1)  =     2000
   RHO(2)=  100.500       N(2)  =     4000

 VTST: version 3.1, (03/28/14)

 CHAIN: initializing optimizer
 
 OPT: Using Conjugate-Gradient optimizer
 OPT: CG, Init
 OPT: CG, FDSTEP      0.005000
 OPT: CG, MAXMOVE      0.200000
 
 CHAIN: Read ICHAIN            2
 
 POSCAR: B N C F O                               
  positions in direct lattice
  velocities in cartesian coordinates
 CHAIN: Running the Dimer method

 Dimer: -----------------
 Dimer: Input Parameters
 Dimer:   Seed      0
 Dimer: RotMax      4
 Dimer:     dR      0.005000
 Dimer:  FNMax      1.000000
 Dimer:  FNMin      0.010000
 Dimer: -----------------
 


--------------------------------------------------------------------------------------------------------


 ion  position               nearest neighbor table
   1  0.111  0.056  0.500-  42 1.45  37 1.45  43 1.45
   2  0.111  0.222  0.500-  37 1.45  38 1.45  44 1.45
   3  0.111  0.389  0.500-  38 1.45  39 1.45  45 1.45
   4  0.111  0.556  0.500-  46 1.45  39 1.45  40 1.45
   5  0.111  0.722  0.500-  40 1.45  41 1.45  47 1.45
   6  0.111  0.889  0.500-  41 1.45  42 1.45  48 1.45
   7  0.278  0.056  0.500-  48 1.45  49 1.45  43 1.45
   8  0.278  0.222  0.500-  43 1.45  50 1.45  44 1.45
   9  0.278  0.389  0.500-  45 1.45  44 1.45  51 1.45
  10  0.278  0.556  0.500-  52 1.45  46 1.45  45 1.45
  11  0.278  0.722  0.500-  53 1.45  47 1.45  46 1.45
  12  0.278  0.889  0.500-  47 1.45  54 1.45  48 1.45
  13  0.444  0.056  0.500-  54 1.45  55 1.45  49 1.45
  14  0.444  0.222  0.500-  49 1.45  56 1.45  50 1.45
  15  0.444  0.389  0.500-  57 1.45  50 1.45  51 1.45
  16  0.444  0.556  0.500-  58 1.45  52 1.45  51 1.45
  17  0.444  0.722  0.500-  59 1.45  53 1.45  52 1.45
  18  0.444  0.889  0.500-  60 1.45  53 1.45  54 1.45
  19  0.611  0.056  0.500-  61 1.45  60 1.45  55 1.45
  20  0.611  0.222  0.500-  62 1.45  55 1.45  56 1.45
  21  0.611  0.389  0.500-  63 1.45  56 1.45  57 1.45
  22  0.611  0.556  0.500-  64 1.45  58 1.45  57 1.45
  23  0.611  0.722  0.500-  58 1.45  65 1.45  59 1.45
  24  0.611  0.889  0.500-  66 1.45  59 1.45  60 1.45
  25  0.778  0.056  0.500-  61 1.45  66 1.45  67 1.45
  26  0.778  0.222  0.500-  61 1.45  68 1.45  62 1.45
  27  0.778  0.389  0.500-  69 1.45  62 1.45  63 1.45
  28  0.778  0.556  0.500-  70 1.45  64 1.45  63 1.45
  29  0.778  0.722  0.500-  64 1.45  71 1.45  65 1.45
  30  0.778  0.889  0.500-  65 1.45  66 1.45  72 1.45
  31  0.944  0.056  0.500-  72 1.45  67 1.45  37 1.45
  32  0.944  0.222  0.500-  68 1.45  67 1.45  38 1.45
  33  0.944  0.389  0.500-  68 1.45  69 1.45  39 1.45
  34  0.944  0.556  0.500-  69 1.45  40 1.45  70 1.45
  35  0.944  0.722  0.500-  70 1.45  71 1.45  41 1.45
  36  0.944  0.889  0.500-  71 1.45  72 1.45  42 1.45
  37  0.056  0.111  0.500-   2 1.45   1 1.45  31 1.45
  38  0.056  0.278  0.500-   2 1.45   3 1.45  32 1.45
  39  0.056  0.444  0.500-   3 1.45  33 1.45   4 1.45
  40  0.056  0.611  0.500-  34 1.45   5 1.45   4 1.45
  41  0.056  0.778  0.500-   6 1.45   5 1.45  35 1.45
  42  0.056  0.944  0.500-   1 1.45   6 1.45  36 1.45
  43  0.222  0.111  0.500-   8 1.45   7 1.45   1 1.45
  44  0.222  0.278  0.500-   9 1.45   8 1.45   2 1.45
  45  0.222  0.444  0.500-   9 1.45   3 1.45  10 1.45
  46  0.222  0.611  0.500-   4 1.45  10 1.45  11 1.45
  47  0.222  0.778  0.500-  12 1.45   5 1.45  11 1.45
  48  0.222  0.944  0.500-   7 1.45   6 1.45  12 1.45
  49  0.389  0.111  0.500-  14 1.45   7 1.45  13 1.45
  50  0.389  0.278  0.500-  15 1.45   8 1.45  14 1.45
  51  0.389  0.444  0.500-   9 1.45  15 1.45  16 1.45
  52  0.389  0.611  0.500-  16 1.45  10 1.45  17 1.45
  53  0.389  0.778  0.500-  11 1.45  17 1.45  18 1.45
  54  0.389  0.944  0.500-  13 1.45  12 1.45  18 1.45
  55  0.556  0.111  0.500-  13 1.45  20 1.45  19 1.45
  56  0.556  0.278  0.500-  14 1.45  21 1.45  20 1.45
  57  0.556  0.444  0.500-  15 1.45  21 1.45  22 1.45
  58  0.556  0.611  0.500-  16 1.45  23 1.45  22 1.45
  59  0.556  0.778  0.500-  17 1.45  24 1.45  23 1.45
  60  0.556  0.944  0.500-  19 1.45  18 1.45  24 1.45
  61  0.722  0.111  0.500-  19 1.45  26 1.45  25 1.45
  62  0.722  0.278  0.500-  20 1.45  27 1.45  26 1.45
  63  0.722  0.444  0.500-  21 1.45  28 1.45  27 1.45
  64  0.722  0.611  0.500-  22 1.45  28 1.45  29 1.45
  65  0.722  0.778  0.500-  30 1.45  23 1.45  29 1.45
  66  0.722  0.944  0.500-  24 1.45  25 1.45  30 1.45
  67  0.889  0.111  0.500-  31 1.45  32 1.45  25 1.45
  68  0.889  0.278  0.500-  32 1.45  33 1.45  26 1.45
  69  0.889  0.444  0.500-  27 1.45  34 1.45  33 1.45
  70  0.889  0.611  0.500-  35 1.45  28 1.45  34 1.45
  71  0.889  0.778  0.500-  36 1.45  35 1.45  29 1.45
  72  0.889  0.944  0.500-  31 1.45  36 1.45  30 1.45
  73  0.374  0.313  0.673-  76 1.33  78 1.34  77 1.34  74 1.54
  74  0.355  0.311  0.630-  80 1.32  79 1.33  73 1.54  75 1.89
  75  0.342  0.425  0.617-  82 1.20  81 1.20  74 1.89
  76  0.462  0.396  0.682-  73 1.33
  77  0.378  0.229  0.683-  73 1.34
  78  0.297  0.313  0.692-  73 1.34
  79  0.434  0.317  0.610-  74 1.33
  80  0.269  0.227  0.620-  74 1.32
  81  0.429  0.494  0.613-  75 1.20
  82  0.252  0.395  0.616-  75 1.20
 

IMPORTANT INFORMATION: All symmetrisations will be switched off!
NOSYMM: (Re-)initialisation of all symmetry stuff for point group C_1.

 
 
 KPOINTS: K-Point Grid                            

Automatic generation of k-mesh.
Space group operators:
 irot       det(A)        alpha          n_x          n_y          n_z        tau_x        tau_y        tau_z
    1     1.000000     0.000000     1.000000     0.000000     0.000000     0.000000     0.000000     0.000000
 
 Subroutine IBZKPT returns following result:
 ===========================================
 
 Found      5 irreducible k-points:
 
 Following reciprocal coordinates:
            Coordinates               Weight
  0.000000  0.000000  0.000000      1.000000
  0.333333  0.000000  0.000000      2.000000
  0.000000  0.333333  0.000000      2.000000
  0.333333  0.333333  0.000000      2.000000
 -0.333333  0.333333  0.000000      2.000000
 
 Following cartesian coordinates:
            Coordinates               Weight
  0.000000  0.000000  0.000000      1.000000
  0.022114 -0.012768  0.000000      2.000000
  0.022114  0.012768  0.000000      2.000000
  0.044229  0.000000  0.000000      2.000000
  0.000000  0.025535  0.000000      2.000000
 


--------------------------------------------------------------------------------------------------------




 Dimension of arrays:
   k-points           NKPTS =      5   k-points in BZ     NKDIM =      5   number of bands    NBANDS=    256
   number of dos      NEDOS =   1200   number of ions     NIONS =     82
   non local maximal  LDIM  =      4   non local SUM 2l+1 LMDIM =      8
   total plane-waves  NPLWV = ******
   max r-space proj   IRMAX =   2059   max aug-charges    IRDMAX=   4038
   dimension x,y,z NGX =    90 NGY =   90 NGZ =  210
   dimension x,y,z NGXF=   180 NGYF=  180 NGZF=  420
   support grid    NGXF=   180 NGYF=  180 NGZF=  420
   ions per type =              36  36   3   5   2
   NGX,Y,Z   is equivalent  to a cutoff of   9.93,  9.93,  9.94 a.u.
   NGXF,Y,Z  is equivalent  to a cutoff of  19.85, 19.85, 19.88 a.u.

 SYSTEM =  hBN                                     
 POSCAR =  B N C F O                               

 Startparameter for this run:
   NWRITE =      2    write-flag & timer
   PREC   = normal    normal or accurate (medium, high low for compatibility)
   ISTART =      0    job   : 0-new  1-cont  2-samecut
   ICHARG =      2    charge: 1-file 2-atom 10-const
   ISPIN  =      2    spin polarized calculation?
   LNONCOLLINEAR =      F non collinear calculations
   LSORBIT =      F    spin-orbit coupling
   INIWAV =      1    electr: 0-lowe 1-rand  2-diag
   LASPH  =      T    aspherical Exc in radial PAW
   METAGGA=      F    non-selfconsistent MetaGGA calc.

 Electronic Relaxation 1
   ENCUT  =  550.0 eV  40.42 Ry    6.36 a.u.  28.82 28.82 67.15*2*pi/ulx,y,z
   ENINI  =  550.0     initial cutoff
   ENAUG  =  644.9 eV  augmentation charge cutoff
   NELM   =    100;   NELMIN=  2; NELMDL=  0     # of ELM steps 
   EDIFF  = 0.1E-04   stopping-criterion for ELM
   LREAL  =      T    real-space projection
   NLSPLINE    = F    spline interpolate recip. space projectors
   LCOMPAT=      F    compatible to vasp.4.4
   GGA_COMPAT  = T    GGA compatible to vasp.4.4-vasp.4.6
   LMAXPAW     = -100 max onsite density
   LMAXMIX     =    2 max onsite mixed and CHGCAR
   VOSKOWN=      0    Vosko Wilk Nusair interpolation
   ROPT   =   -0.00050  -0.00050  -0.00050  -0.00050
   ROPT   =   -0.00050
 Ionic relaxation
   EDIFFG = -.5E-01   stopping-criterion for IOM
   NSW    =    500    number of steps for IOM
   NBLOCK =      1;   KBLOCK =    500    inner block; outer block 
   IBRION =      3    ionic relax: 0-MD 1-quasi-New 2-CG
   NFREE  =      0    steps in history (QN), initial steepest desc. (CG)
   ISIF   =      2    stress and relaxation
   IWAVPR =     11    prediction:  0-non 1-charg 2-wave 3-comb
   ISYM   =      0    0-nonsym 1-usesym 2-fastsym
   LCORR  =      T    Harris-Foulkes like correction to forces

   POTIM  = 0.0000    time-step for ionic-motion
   TEIN   =    0.0    initial temperature
   TEBEG  =    0.0;   TEEND  =   0.0 temperature during run
   SMASS  =  -3.00    Nose mass-parameter (am)
   estimated Nose-frequenzy (Omega)   =  0.10E-29 period in steps =  0.00 mass=  -0.519E-26a.u.
   SCALEE = 1.0000    scale energy and forces
   NPACO  =    256;   APACO  = 16.0  distance and # of slots for P.C.
   PSTRESS=    0.0 pullay stress

  Mass of Ions in am
   POMASS =  10.81 14.00 12.01 19.00 16.00
  Ionic Valenz
   ZVAL   =   3.00  5.00  4.00  7.00  6.00
  Atomic Wigner-Seitz radii
   RWIGS  =  -1.00 -1.00 -1.00 -1.00 -1.00
  virtual crystal weights 
   VCA    =   1.00  1.00  1.00  1.00  1.00
   NELECT =     346.7000    total number of electrons
   NUPDOWN=      -1.0000    fix difference up-down

 DOS related values:
   EMIN   = -10.00;   EMAX   =  5.00  energy-range for DOS
   EFERMI =   0.00
   ISMEAR =     0;   SIGMA  =   0.05  broadening in eV -4-tet -1-fermi 0-gaus

 Electronic relaxation 2 (details)
   IALGO  =     68    algorithm
   LDIAG  =      T    sub-space diagonalisation (order eigenvalues)
   LSUBROT=      F    optimize rotation matrix (better conditioning)
   TURBO    =      0    0=normal 1=particle mesh
   IRESTART =      0    0=no restart 2=restart with 2 vectors
   NREBOOT  =      0    no. of reboots
   NMIN     =      0    reboot dimension
   EREF     =   0.00    reference energy to select bands
   IMIX   =      4    mixing-type and parameters
     AMIX     =   0.40;   BMIX     =  1.00
     AMIX_MAG =   1.60;   BMIX_MAG =  1.00
     AMIN     =   0.10
     WC   =   100.;   INIMIX=   1;  MIXPRE=   1;  MAXMIX= -45

 Intra band minimization:
   WEIMIN = 0.0010     energy-eigenvalue tresh-hold
   EBREAK =  0.98E-08  absolut break condition
   DEPER  =   0.30     relativ break condition  

   TIME   =   0.40     timestep for ELM

  volume/ion in A,a.u.               =      84.26       568.60
  Fermi-wavevector in a.u.,A,eV,Ry     =   0.603834  1.141080  4.960890  0.364615
  Thomas-Fermi vector in A             =   1.656962
 
 Write flags
   LWAVE        =      T    write WAVECAR
   LDOWNSAMPLE  =      F    k-point downsampling of WAVECAR
   LCHARG       =      F    write CHGCAR
   LVTOT        =      F    write LOCPOT, total local potential
   LVHAR        =      F    write LOCPOT, Hartree potential only
   LELF         =      F    write electronic localiz. function (ELF)
   LORBIT       =     11    0 simple, 1 ext, 2 COOP (PROOUT), +10 PAW based schemes


 Dipole corrections
   LMONO  =      F    monopole corrections only (constant potential shift)
   LDIPOL =      F    correct potential (dipole corrections)
   IDIPOL =      0    1-x, 2-y, 3-z, 4-all directions 
   EPSILON=  1.0000000 bulk dielectric constant

 Exchange correlation treatment:
   GGA     =    --    GGA type
   LEXCH   =     8    internal setting for exchange type
   VOSKOWN=      0    Vosko Wilk Nusair interpolation
   LHFCALC =     F    Hartree Fock is set to
   LHFONE  =     F    Hartree Fock one center treatment
   AEXX    =    0.0000 exact exchange contribution

 Linear response parameters
   LEPSILON=     F    determine dielectric tensor
   LRPA    =     F    only Hartree local field effects (RPA)
   LNABLA  =     F    use nabla operator in PAW spheres
   LVEL    =     F    velocity operator in full k-point grid
   LINTERFAST=   F  fast interpolation
   KINTER  =     0    interpolate to denser k-point grid
   CSHIFT  =0.1000    complex shift for real part using Kramers Kronig
   OMEGAMAX=  -1.0    maximum frequency
   DEG_THRESHOLD= 0.2000000E-02 threshold for treating states as degnerate
   RTIME   =   -0.100 relaxation time in fs
  (WPLASMAI=    0.000 imaginary part of plasma frequency in eV, 0.658/RTIME)
   DFIELD  = 0.0000000 0.0000000 0.0000000 field for delta impulse in time
 
 Orbital magnetization related:
   ORBITALMAG=     F  switch on orbital magnetization
   LCHIMAG   =     F  perturbation theory with respect to B field
   DQ        =  0.001000  dq finite difference perturbation B field
   LLRAUG    =     F  two centre corrections for induced B field

 Solvation model:
   LSOL    =     T         switch on solvation model
   EB_K    = 78.400000     relative permittivity of the bulk solvent
   SIGMA_K =  0.600000     width of the dielectric cavity
   NC_K    =  0.002500     cutoff charge density
   TAU     =  0.000000     cavity surface tension
   LAMBDA_D_K    =  3.040000     Debye length in Angstroms
   LRHOB     =     F     write boundcharge  density
   LRHOION     =     F     write ioniccharge density



--------------------------------------------------------------------------------------------------------


 quickmin algorithm: (dynamic with friction)
   using selective dynamics as specified on POSCAR
 charge density and potential will be updated during run
 spin polarized calculation
 RMM-DIIS sequential band-by-band and
  variant of blocked Davidson during initial phase
 perform sub-space diagonalisation
    before iterative eigenvector-optimisation
 modified Broyden-mixing scheme, WC =      100.0
 initial mixing is a Kerker type mixing with AMIX =  0.4000 and BMIX =      1.0000
 Hartree-type preconditioning will be used
 using additional bands           82
 real space projection scheme for non local part
 use partial core corrections
 calculate Harris-corrections to forces 
   (improved forces if not selfconsistent)
 use gradient corrections 
 use of overlap-Matrix (Vanderbilt PP)
 Gauss-broadening in eV      SIGMA  =   0.05


--------------------------------------------------------------------------------------------------------


  energy-cutoff  :      550.00
  volume of cell :     6909.18
      direct lattice vectors                 reciprocal lattice vectors
     7.536550057-13.053746059  0.000000000     0.066343353 -0.038303181  0.000000000
     7.536550057 13.053746059  0.000000000     0.066343353  0.038303181  0.000000000
     0.000000000  0.000000000 35.114664386     0.000000000  0.000000000  0.028478131

  length of vectors
    15.073150730 15.073150730 35.114664386     0.076606620  0.076606620  0.028478131


 
 k-points in units of 2pi/SCALE and weight: K-Point Grid                            
   0.00000000  0.00000000  0.00000000       0.111
   0.02211445 -0.01276773  0.00000000       0.222
   0.02211445  0.01276773  0.00000000       0.222
   0.04422890  0.00000000  0.00000000       0.222
   0.00000000  0.02553545  0.00000000       0.222
 
 k-points in reciprocal lattice and weights: K-Point Grid                            
   0.00000000  0.00000000  0.00000000       0.111
   0.33333333  0.00000000  0.00000000       0.222
   0.00000000  0.33333333  0.00000000       0.222
   0.33333333  0.33333333  0.00000000       0.222
  -0.33333333  0.33333333  0.00000000       0.222
 
 position of ions in fractional coordinates (direct lattice) 
   0.11110153  0.05556331  0.50001275
   0.11109247  0.22222492  0.49997619
   0.11110790  0.38889570  0.49995703
   0.11111483  0.55557008  0.49997603
   0.11111421  0.72223967  0.50001631
   0.11111181  0.88890364  0.50003202
   0.27778218  0.05556510  0.50002725
   0.27776699  0.22221453  0.49996399
   0.27775996  0.38889380  0.49994031
   0.27778014  0.55556577  0.49995323
   0.27778391  0.72223865  0.49998405
   0.27778339  0.88890440  0.50002903
   0.44445444  0.05556812  0.50003582
   0.44445699  0.22222698  0.50002884
   0.44445764  0.38889720  0.49996687
   0.44445062  0.55557306  0.49996959
   0.44444649  0.72223514  0.49996682
   0.44445161  0.88890432  0.50000814
   0.61111745  0.05557158  0.50002427
   0.61112058  0.22223603  0.50002982
   0.61111949  0.38890368  0.50000272
   0.61111201  0.55557360  0.49996976
   0.61110772  0.72223078  0.49996820
   0.61111367  0.88890565  0.49999966
   0.77777698  0.05557168  0.50001902
   0.77778094  0.22223866  0.50001872
   0.77778275  0.38890747  0.50002004
   0.77777925  0.55557489  0.50000383
   0.77777424  0.72223736  0.49999874
   0.77777497  0.88890270  0.50001382
   0.94443695  0.05556875  0.50001678
   0.94443940  0.22223668  0.49999474
   0.94444744  0.38890617  0.49999779
   0.94444772  0.55557508  0.50001566
   0.94444498  0.72223959  0.50002411
   0.94444095  0.88890255  0.50002787
   0.05555206  0.11112311  0.50000511
   0.05555302  0.27778749  0.49996606
   0.05555941  0.44445761  0.49996593
   0.05555938  0.61112785  0.50000317
   0.05555819  0.77779616  0.50002947
   0.05555535  0.94446034  0.50003039
   0.22222051  0.11112045  0.50000159
   0.22222054  0.27778512  0.49995885
   0.22221989  0.44445118  0.49993362
   0.22222605  0.61112437  0.49995997
   0.22222710  0.77779514  0.50001302
   0.22222565  0.94446135  0.50003670
   0.38889346  0.11112517  0.50004113
   0.38888331  0.27778452  0.50001374
   0.38887574  0.44443659  0.50000199
   0.38888831  0.61111599  0.49996011
   0.38889352  0.77779252  0.49997796
   0.38889427  0.94446099  0.50003027
   0.55556164  0.11112799  0.50003164
   0.55555934  0.27779214  0.50002867
   0.55555207  0.44445304  0.49997221
   0.55555017  0.61112337  0.49995056
   0.55555276  0.77779622  0.49996598
   0.55556065  0.94446254  0.50001378
   0.72222554  0.11112956  0.50002192
   0.72222698  0.27779664  0.50002537
   0.72222418  0.44446184  0.50000717
   0.72221874  0.61112527  0.49998080
   0.72221701  0.77779351  0.49999045
   0.72222284  0.94446183  0.50001627
   0.88888839  0.11112810  0.50001096
   0.88889135  0.27779608  0.50000266
   0.88889348  0.44446367  0.50001767
   0.88889013  0.61113007  0.50002044
   0.88888765  0.77779496  0.50002094
   0.88888807  0.94446103  0.50002723
   0.37355306  0.31310644  0.67293001
   0.35513718  0.31062864  0.62975734
   0.34239864  0.42528384  0.61678906
   0.46197572  0.39592266  0.68242702
   0.37769090  0.22918112  0.68298464
   0.29688574  0.31341763  0.69195124
   0.43360773  0.31728897  0.61024990
   0.26890787  0.22707871  0.62001441
   0.42902404  0.49442450  0.61303979
   0.25192353  0.39474420  0.61613218
 
 position of ions in cartesian coordinates  (Angst):
   1.25607786 -0.72498179 17.55777994
   2.51206318  1.45069485 17.55649602
   3.76830220  3.62617138 17.55582340
   5.02450413  5.80180598 17.55649033
   6.28061322  7.97747655 17.55790475
   7.53666649 10.15309699 17.55845660
   2.51228842 -2.90076539 17.55828910
   3.76813577 -0.72516770 17.55606779
   5.02426944  1.45071299 17.55523632
   6.28055313  3.62614302 17.55568991
   7.53672008  5.80179939 17.55677198
   8.79280093  7.97741851 17.55835141
   3.76844505 -5.07642315 17.55858992
   5.02449711 -2.90093423 17.55834488
   6.28062046 -0.72527196 17.55616870
   7.53672857  1.45056414 17.55626453
   8.79275455  3.62618248 17.55616710
  10.04890368  5.80177280 17.55761815
   5.02453525 -7.25195474 17.55818452
   6.28063375 -5.07640019 17.55837941
   7.53672464 -2.90074872 17.55742785
   8.79278447 -0.72498438 17.55627040
  10.04877239  1.45057215 17.55621561
  11.30497070  3.62622606 17.55732008
   6.28057389 -9.42748468 17.55799997
   7.53669777 -7.25190795 17.55798958
   8.79281919 -5.07627917 17.55803600
  10.04889025 -2.90059928 17.55746681
  11.30491254 -0.72496428 17.55728784
  12.56099969  1.45063309 17.55781743
   7.53659305-11.60305981 17.55792131
   8.79271268 -9.42745101 17.55714745
  10.04888618 -7.25189464 17.55725461
  11.30499690 -5.07624465 17.55788193
  12.56105174 -2.90061273 17.55817873
  13.81708507 -0.72498411 17.55831082
   1.25615578  0.72541037 17.55751149
   2.51223743  2.90099233 17.55614042
   3.76840328  5.07657832 17.55613570
   5.02452164  7.25224973 17.55744367
   6.28061675  9.42791100 17.55836693
   7.53666832 11.60354008 17.55839945
   2.51224088 -1.45027200 17.55738795
   3.76831765  0.72532598 17.55588738
   5.02439991  2.90095087 17.55500117
   6.28058720  5.07657987 17.55592658
   7.53671762  7.25224414 17.55778940
   8.79279493  9.42788138 17.55862102
   3.76841545 -3.62591673 17.55877659
   5.02437550 -1.45025533 17.55781450
   6.28030014  0.72527725 17.55740198
   7.53658251  2.90090370 17.55593133
   8.79278771  5.07658878 17.55655823
  10.04889862  7.25222688 17.55839496
   5.02453976 -5.80152405 17.55844339
   6.28059511 -3.62590243 17.55833880
   7.53658854 -1.45025858 17.55635629
   8.79269355  0.72543841 17.55559609
  10.04885137  2.90110971 17.55613747
  11.30499986  5.07662661 17.55781597
   6.28062241 -7.97709175 17.55810176
   7.53672801 -5.80148078 17.55822303
   8.79278760 -3.62583895 17.55758400
  10.04881383 -1.45018594 17.55665798
  11.30490438  0.72548150 17.55699690
  12.56105243  2.90105131 17.55790354
   7.53667435-10.15268530 17.55771691
   8.79279816 -7.97708249 17.55742549
  10.04891294 -5.80147393 17.55795258
  11.30497731 -3.62580920 17.55804988
  12.56103694 -1.45017572 17.55806739
  13.81712725  0.72543534 17.55828835
   5.17504365 -0.78905483 23.62971148
   5.01757745 -0.58100315 22.11371779
   5.78567737  1.08196235 21.65834084
   6.46559407 -0.86223996 23.96319581
   4.57372137 -1.93860893 23.98277632
   4.59958193  0.21580305 24.29763561
   5.65917060 -1.51839561 21.42872040
   3.73802772 -0.54602720 21.77159794
   6.95961616  0.85372099 21.52668648
   4.87364371  1.86434487 21.63527482
 


--------------------------------------------------------------------------------------------------------


 k-point  1 :   0.0000 0.0000 0.0000  plane waves:  202395
 k-point  2 :   0.3333 0.0000 0.0000  plane waves:  202358
 k-point  3 :   0.0000 0.3333 0.0000  plane waves:  202358
 k-point  4 :   0.3333 0.3333 0.0000  plane waves:  202335
 k-point  5 :  -0.3333 0.3333 0.0000  plane waves:  202358

 maximum and minimum number of plane-waves per node :    202395   202335

 maximum number of plane-waves:    202395
 maximum index in each direction: 
   IXMAX=   29   IYMAX=   28   IZMAX=   67
   IXMIN=  -29   IYMIN=  -29   IZMIN=  -67


 serial   3D FFT for wavefunctions
 parallel 3D FFT for charge:
    minimum data exchange during FFTs selected (reduces bandwidth)


 total amount of memory used by VASP MPI-rank0  1602137. kBytes
=======================================================================

   base      :      30000. kBytes
   nonlr-proj:      12088. kBytes
   fftplans  :      65180. kBytes
   grid      :     454720. kBytes
   one-center:        503. kBytes
   wavefun   :    1039646. kBytes
 
     INWAV:  cpu time    0.0001: real time    0.0005
 Broyden mixing: mesh for mixing (old mesh)
   NGX = 57   NGY = 57   NGZ =135
  (NGX  =180   NGY  =180   NGZ  =420)
  gives a total of 438615 points

 initial charge density was supplied:
 charge density of overlapping atoms calculated
 number of electron     347.0000000 magnetization      82.0000000
 keeping initial charge density in first step


--------------------------------------------------------------------------------------------------------


 Maximum index for non-local projection operator         1953
 Maximum index for augmentation-charges          482 (set IRDMAX)


--------------------------------------------------------------------------------------------------------


 First call to EWALD:  gamma=   0.093
 Maximum number of real-space cells 4x 4x 2
 Maximum number of reciprocal cells 2x 2x 5

    FEWALD:  cpu time    0.0577: real time    0.0570


--------------------------------------- Iteration      1(   1)  ---------------------------------------


    POTLOK:  cpu time   81.9957: real time   82.4150
    SETDIJ:  cpu time    1.1064: real time    1.2086
     EDDAV:  cpu time  152.7572: real time   91.9039
       DOS:  cpu time    0.1407: real time    0.1391
    --------------------------------------------
      LOOP:  cpu time  236.0002: real time  175.6665

 eigenvalue-minimisations  :  6104
 total energy-change (2. order) : 0.3499991E+04  (-0.1182223E+05)
 number of electron     347.0000000 magnetization      82.0000000
 augmentation part      347.0000000 magnetization      82.0000000

 Free energy of the ion-electron system (eV)
  ---------------------------------------------------
  alpha Z        PSCENC =        92.14382556
  Ewald energy   TEWEN  =    110930.99235369
  -Hartree energ DENC   =   -123619.89917814
  -exchange      EXHF   =         0.00000000
  -V(xc)+E(xc)   XCENC  =      1477.74171700
  PAW double counting   =     12389.81687870   -12541.43845553
  entropy T*S    EENTRO =        -0.05450193
  eigenvalues    EBANDS =     -2298.43647599
  atomic energy  EATOM  =     16689.68470767
  Solvation  Ediel_sol  =       379.44005564
  ---------------------------------------------------
  free energy    TOTEN  =      3499.99092668 eV

  energy without entropy =     3500.04542861  energy(sigma->0) =     3500.01817764


--------------------------------------------------------------------------------------------------------




--------------------------------------- Iteration      1(   2)  ---------------------------------------


     EDDAV:  cpu time  187.9216: real time  111.0862
       DOS:  cpu time    0.0022: real time    0.0011
    --------------------------------------------
      LOOP:  cpu time  187.9239: real time  111.0873

 eigenvalue-minimisations  :  8152
 total energy-change (2. order) :-0.3411512E+04  (-0.3114672E+04)
 number of electron     347.0000000 magnetization      82.0000000
 augmentation part      347.0000000 magnetization      82.0000000

 Free energy of the ion-electron system (eV)
  ---------------------------------------------------
  alpha Z        PSCENC =        92.14382556
  Ewald energy   TEWEN  =    110930.99235369
  -Hartree energ DENC   =   -123619.89917814
  -exchange      EXHF   =         0.00000000
  -V(xc)+E(xc)   XCENC  =      1477.74171700
  PAW double counting   =     12389.81687870   -12541.43845553
  entropy T*S    EENTRO =        -0.00801492
  eigenvalues    EBANDS =     -5709.99545296
  atomic energy  EATOM  =     16689.68470767
  Solvation  Ediel_sol  =       379.44005564
  ---------------------------------------------------
  free energy    TOTEN  =        88.47843671 eV

  energy without entropy =       88.48645163  energy(sigma->0) =       88.48244417


--------------------------------------------------------------------------------------------------------




--------------------------------------- Iteration      1(   3)  ---------------------------------------


     EDDAV:  cpu time  162.0187: real time   96.9253
       DOS:  cpu time    0.0023: real time    0.0011
    --------------------------------------------
      LOOP:  cpu time  162.0210: real time   96.9264

 eigenvalue-minimisations  :  6600
 total energy-change (2. order) :-0.9476374E+03  (-0.9392039E+03)
 number of electron     347.0000000 magnetization      82.0000000
 augmentation part      347.0000000 magnetization      82.0000000

 Free energy of the ion-electron system (eV)
  ---------------------------------------------------
  alpha Z        PSCENC =        92.14382556
  Ewald energy   TEWEN  =    110930.99235369
  -Hartree energ DENC   =   -123619.89917814
  -exchange      EXHF   =         0.00000000
  -V(xc)+E(xc)   XCENC  =      1477.74171700
  PAW double counting   =     12389.81687870   -12541.43845553
  entropy T*S    EENTRO =        -0.00675528
  eigenvalues    EBANDS =     -6657.63407167
  atomic energy  EATOM  =     16689.68470767
  Solvation  Ediel_sol  =       379.44005564
  ---------------------------------------------------
  free energy    TOTEN  =      -859.15892235 eV

  energy without entropy =     -859.15216708  energy(sigma->0) =     -859.15554471


--------------------------------------------------------------------------------------------------------




--------------------------------------- Iteration      1(   4)  ---------------------------------------


     EDDAV:  cpu time  158.0742: real time   94.6851
       DOS:  cpu time    0.0022: real time    0.0011
    --------------------------------------------
      LOOP:  cpu time  158.0763: real time   94.6861

 eigenvalue-minimisations  :  6344
 total energy-change (2. order) :-0.4847350E+02  (-0.4804348E+02)
 number of electron     347.0000000 magnetization      82.0000000
 augmentation part      347.0000000 magnetization      82.0000000

 Free energy of the ion-electron system (eV)
  ---------------------------------------------------
  alpha Z        PSCENC =        92.14382556
  Ewald energy   TEWEN  =    110930.99235369
  -Hartree energ DENC   =   -123619.89917814
  -exchange      EXHF   =         0.00000000
  -V(xc)+E(xc)   XCENC  =      1477.74171700
  PAW double counting   =     12389.81687870   -12541.43845553
  entropy T*S    EENTRO =        -0.01226881
  eigenvalues    EBANDS =     -6706.10205970
  atomic energy  EATOM  =     16689.68470767
  Solvation  Ediel_sol  =       379.44005564
  ---------------------------------------------------
  free energy    TOTEN  =      -907.63242391 eV

  energy without entropy =     -907.62015511  energy(sigma->0) =     -907.62628951


--------------------------------------------------------------------------------------------------------




--------------------------------------- Iteration      1(   5)  ---------------------------------------


     EDDAV:  cpu time  159.6166: real time   95.6498
       DOS:  cpu time    0.0022: real time    0.0011
    CHARGE:  cpu time   15.8758: real time   15.0087
    MIXING:  cpu time    0.1627: real time    0.1718
    --------------------------------------------
      LOOP:  cpu time  175.6573: real time  110.8315

 eigenvalue-minimisations  :  6488
 total energy-change (2. order) :-0.1018394E+01  (-0.1014544E+01)
 number of electron     346.6999668 magnetization      77.9644168
 augmentation part       18.4504825 magnetization      77.8305826

 Broyden mixing:
  rms(total) = 0.65782E+01    rms(broyden)= 0.65772E+01
  rms(prec ) = 0.66737E+01
  weight for this iteration     100.00

 Free energy of the ion-electron system (eV)
  ---------------------------------------------------
  alpha Z        PSCENC =        92.14382556
  Ewald energy   TEWEN  =    110930.99235369
  -Hartree energ DENC   =   -123619.89917814
  -exchange      EXHF   =         0.00000000
  -V(xc)+E(xc)   XCENC  =      1477.74171700
  PAW double counting   =     12389.81687870   -12541.43845553
  entropy T*S    EENTRO =        -0.01229278
  eigenvalues    EBANDS =     -6707.12042976
  atomic energy  EATOM  =     16689.68470767
  Solvation  Ediel_sol  =       379.44005564
  ---------------------------------------------------
  free energy    TOTEN  =      -908.65081794 eV

  energy without entropy =     -908.63852516  energy(sigma->0) =     -908.64467155


--------------------------------------------------------------------------------------------------------




--------------------------------------- Iteration      1(   6)  ---------------------------------------


    POTLOK:  cpu time   76.8882: real time   77.0393
    SETDIJ:  cpu time    1.0724: real time    0.6687
    EDDIAG:  cpu time   22.8707: real time   18.3065
  RMM-DIIS:  cpu time  172.7696: real time  104.9391
    ORTHCH:  cpu time    2.1488: real time    1.0769
       DOS:  cpu time    0.0033: real time    0.0016
    CHARGE:  cpu time   16.0435: real time   14.9590
    MIXING:  cpu time    0.1398: real time    0.1031
    --------------------------------------------
      LOOP:  cpu time  291.9363: real time  217.0944

 eigenvalue-minimisations  :  5120
 total energy-change (2. order) : 0.2419287E+03  (-0.2836451E+02)
 number of electron     346.6999694 magnetization      73.2602931
 augmentation part       17.3660796 magnetization      71.0320842

 Broyden mixing:
  rms(total) = 0.33582E+01    rms(broyden)= 0.33579E+01
  rms(prec ) = 0.34021E+01
  weight for this iteration     100.00

 eigenvalues of (default mixing * dielectric matrix)
  average eigenvalue GAMMA=   1.0488
  1.0488

 Free energy of the ion-electron system (eV)
  ---------------------------------------------------
  alpha Z        PSCENC =        92.14382556
  Ewald energy   TEWEN  =    110930.99235369
  -Hartree energ DENC   =   -124253.69627434
  -exchange      EXHF   =         0.00000000
  -V(xc)+E(xc)   XCENC  =      1625.06885708
  PAW double counting   =     20292.70023303   -20451.38710637
  entropy T*S    EENTRO =        -0.00766064
  eigenvalues    EBANDS =     -5868.21809509
  atomic energy  EATOM  =     16689.68470767
  Solvation  Ediel_sol  =       275.99700004
  ---------------------------------------------------
  free energy    TOTEN  =      -666.72215937 eV

  energy without entropy =     -666.71449873  energy(sigma->0) =     -666.71832905


--------------------------------------------------------------------------------------------------------




--------------------------------------- Iteration      1(   7)  ---------------------------------------


    POTLOK:  cpu time   74.7550: real time   74.8999
    SETDIJ:  cpu time    1.0503: real time    0.6466
    EDDIAG:  cpu time   22.9089: real time   18.3166
  RMM-DIIS:  cpu time  173.6795: real time  105.1280
    ORTHCH:  cpu time    2.1480: real time    1.0767
       DOS:  cpu time    0.0037: real time    0.0019
    CHARGE:  cpu time   15.7551: real time   14.8080
    MIXING:  cpu time    0.1437: real time    0.0885
    --------------------------------------------
      LOOP:  cpu time  290.4442: real time  214.9661

 eigenvalue-minimisations  :  5125
 total energy-change (2. order) :-0.3698867E+02  (-0.8168920E+01)
 number of electron     346.6999714 magnetization      69.2193450
 augmentation part       16.2946111 magnetization      66.8179478

 Broyden mixing:
  rms(total) = 0.22885E+01    rms(broyden)= 0.22883E+01
  rms(prec ) = 0.23023E+01
  weight for this iteration     100.00

 eigenvalues of (default mixing * dielectric matrix)
  average eigenvalue GAMMA=   1.0558
  1.3000  0.8117

 Free energy of the ion-electron system (eV)
  ---------------------------------------------------
  alpha Z        PSCENC =        92.14382556
  Ewald energy   TEWEN  =    110930.99235369
  -Hartree energ DENC   =   -124689.10046001
  -exchange      EXHF   =         0.00000000
  -V(xc)+E(xc)   XCENC  =      1624.00080055
  PAW double counting   =     28911.36616234   -29075.18207749
  entropy T*S    EENTRO =        -0.00787260
  eigenvalues    EBANDS =     -5353.52599881
  atomic energy  EATOM  =     16689.68470767
  Solvation  Ediel_sol  =       165.91772753
  ---------------------------------------------------
  free energy    TOTEN  =      -703.71083157 eV

  energy without entropy =     -703.70295897  energy(sigma->0) =     -703.70689527


--------------------------------------------------------------------------------------------------------




--------------------------------------- Iteration      1(   8)  ---------------------------------------


    POTLOK:  cpu time   73.9387: real time   74.0847
    SETDIJ:  cpu time    1.0522: real time    0.6486
    EDDIAG:  cpu time   22.9682: real time   18.3704
  RMM-DIIS:  cpu time  173.0625: real time  104.8135
    ORTHCH:  cpu time    2.1398: real time    1.0748
       DOS:  cpu time    0.0092: real time    0.0046
    CHARGE:  cpu time   15.8173: real time   14.8640
    MIXING:  cpu time    0.1456: real time    0.0910
    --------------------------------------------
      LOOP:  cpu time  289.1335: real time  213.9516

 eigenvalue-minimisations  :  5120
 total energy-change (2. order) :-0.5462318E+01  (-0.1208789E+01)
 number of electron     346.6999715 magnetization      61.6638207
 augmentation part       16.1840691 magnetization      59.3645437

 Broyden mixing:
  rms(total) = 0.17025E+01    rms(broyden)= 0.17025E+01
  rms(prec ) = 0.17097E+01
  weight for this iteration     100.00

 eigenvalues of (default mixing * dielectric matrix)
  average eigenvalue GAMMA=   1.2714
  1.7986  1.2922  0.7234

 Free energy of the ion-electron system (eV)
  ---------------------------------------------------
  alpha Z        PSCENC =        92.14382556
  Ewald energy   TEWEN  =    110930.99235369
  -Hartree energ DENC   =   -124820.84762788
  -exchange      EXHF   =         0.00000000
  -V(xc)+E(xc)   XCENC  =      1625.18382777
  PAW double counting   =     34157.75570765   -34323.56479599
  entropy T*S    EENTRO =        -0.01697542
  eigenvalues    EBANDS =     -5160.26511123
  atomic energy  EATOM  =     16689.68470767
  Solvation  Ediel_sol  =        99.76093905
  ---------------------------------------------------
  free energy    TOTEN  =      -709.17314914 eV

  energy without entropy =     -709.15617372  energy(sigma->0) =     -709.16466143


--------------------------------------------------------------------------------------------------------




--------------------------------------- Iteration      1(   9)  ---------------------------------------


    POTLOK:  cpu time   76.6689: real time   76.8170
    SETDIJ:  cpu time    0.8777: real time    0.5369
    EDDIAG:  cpu time   22.8924: real time   18.2836
  RMM-DIIS:  cpu time  172.9238: real time  104.7960
    ORTHCH:  cpu time    2.1487: real time    1.0791
       DOS:  cpu time    0.0026: real time    0.0013
    CHARGE:  cpu time   15.7543: real time   14.8038
    MIXING:  cpu time    0.1522: real time    0.0972
    --------------------------------------------
      LOOP:  cpu time  291.4206: real time  216.4149

 eigenvalue-minimisations  :  5120
 total energy-change (2. order) :-0.4184333E+02  (-0.2448643E+01)
 number of electron     346.6999707 magnetization      57.8955759
 augmentation part       16.2978484 magnetization      56.1732435

 Broyden mixing:
  rms(total) = 0.11769E+01    rms(broyden)= 0.11768E+01
  rms(prec ) = 0.11811E+01
  weight for this iteration     100.00

 eigenvalues of (default mixing * dielectric matrix)
  average eigenvalue GAMMA=   1.3331
  2.4923  1.4016  0.8248  0.6136

 Free energy of the ion-electron system (eV)
  ---------------------------------------------------
  alpha Z        PSCENC =        92.14382556
  Ewald energy   TEWEN  =    110930.99235369
  -Hartree energ DENC   =   -124960.97995454
  -exchange      EXHF   =         0.00000000
  -V(xc)+E(xc)   XCENC  =      1603.73833777
  PAW double counting   =     40814.94485674   -40981.77895636
  entropy T*S    EENTRO =        -0.03232825
  eigenvalues    EBANDS =     -4951.39001363
  atomic energy  EATOM  =     16689.68470767
  Solvation  Ediel_sol  =        11.66069675
  ---------------------------------------------------
  free energy    TOTEN  =      -751.01647459 eV

  energy without entropy =     -750.98414633  energy(sigma->0) =     -751.00031046


--------------------------------------------------------------------------------------------------------




--------------------------------------- Iteration      1(  10)  ---------------------------------------


    POTLOK:  cpu time   74.0239: real time   74.1688
    SETDIJ:  cpu time    1.1594: real time    0.7560
    EDDIAG:  cpu time   22.8992: real time   18.2974
  RMM-DIIS:  cpu time  173.3994: real time  105.2790
    ORTHCH:  cpu time    2.1325: real time    1.0710
       DOS:  cpu time    0.0045: real time    0.0023
    CHARGE:  cpu time   15.7598: real time   14.8110
    MIXING:  cpu time    0.1584: real time    0.1040
    --------------------------------------------
      LOOP:  cpu time  289.5370: real time  214.4895

 eigenvalue-minimisations  :  5125
 total energy-change (2. order) :-0.1443754E+02  (-0.7409401E+00)
 number of electron     346.6999706 magnetization      52.2226720
 augmentation part       16.2371482 magnetization      50.7191210

 Broyden mixing:
  rms(total) = 0.99543E+00    rms(broyden)= 0.99539E+00
  rms(prec ) = 0.99846E+00
  weight for this iteration     100.00

 eigenvalues of (default mixing * dielectric matrix)
  average eigenvalue GAMMA=   1.2875
  2.5068  1.5545  0.8820  0.8820  0.6123

 Free energy of the ion-electron system (eV)
  ---------------------------------------------------
  alpha Z        PSCENC =        92.14382556
  Ewald energy   TEWEN  =    110930.99235369
  -Hartree energ DENC   =   -125010.32835154
  -exchange      EXHF   =         0.00000000
  -V(xc)+E(xc)   XCENC  =      1596.15279416
  PAW double counting   =     42096.63820964   -42264.23940471
  entropy T*S    EENTRO =        -0.03216287
  eigenvalues    EBANDS =     -4889.71427715
  atomic energy  EATOM  =     16689.68470767
  Solvation  Ediel_sol  =        -6.75170655
  ---------------------------------------------------
  free energy    TOTEN  =      -765.45401209 eV

  energy without entropy =     -765.42184922  energy(sigma->0) =     -765.43793066


--------------------------------------------------------------------------------------------------------




--------------------------------------- Iteration      1(  11)  ---------------------------------------


    POTLOK:  cpu time   73.8137: real time   73.9553
    SETDIJ:  cpu time    1.1977: real time    0.7944
    EDDIAG:  cpu time   22.8693: real time   18.2501
  RMM-DIIS:  cpu time  172.9413: real time  104.8450
    ORTHCH:  cpu time    2.1573: real time    1.0834
       DOS:  cpu time    0.0031: real time    0.0015
    CHARGE:  cpu time   15.8093: real time   14.8201
    MIXING:  cpu time    0.1630: real time    0.1077
    --------------------------------------------
      LOOP:  cpu time  288.9547: real time  213.8574

 eigenvalue-minimisations  :  5120
 total energy-change (2. order) :-0.1568873E+02  (-0.8654420E+00)
 number of electron     346.6999707 magnetization      48.4831851
 augmentation part       16.0718379 magnetization      47.0315537

 Broyden mixing:
  rms(total) = 0.87693E+00    rms(broyden)= 0.87679E+00
  rms(prec ) = 0.88106E+00
  weight for this iteration     100.00

 eigenvalues of (default mixing * dielectric matrix)
  average eigenvalue GAMMA=   1.2343
  2.6824  1.5088  0.9281  0.9281  0.6232  0.7354

 Free energy of the ion-electron system (eV)
  ---------------------------------------------------
  alpha Z        PSCENC =        92.14382556
  Ewald energy   TEWEN  =    110930.99235369
  -Hartree energ DENC   =   -125029.63587264
  -exchange      EXHF   =         0.00000000
  -V(xc)+E(xc)   XCENC  =      1586.09664653
  PAW double counting   =     41572.55608804   -41740.12644212
  entropy T*S    EENTRO =        -0.00585563
  eigenvalues    EBANDS =     -4885.82459583
  atomic energy  EATOM  =     16689.68470767
  Solvation  Ediel_sol  =         2.97640025
  ---------------------------------------------------
  free energy    TOTEN  =      -781.14274447 eV

  energy without entropy =     -781.13688884  energy(sigma->0) =     -781.13981666


--------------------------------------------------------------------------------------------------------




--------------------------------------- Iteration      1(  12)  ---------------------------------------


    POTLOK:  cpu time   72.0848: real time   72.2236
    SETDIJ:  cpu time    1.2790: real time    0.8761
    EDDIAG:  cpu time   22.9437: real time   18.3169
  RMM-DIIS:  cpu time  173.1735: real time  105.1072
    ORTHCH:  cpu time    2.1248: real time    1.0671
       DOS:  cpu time    0.0040: real time    0.0020
    CHARGE:  cpu time   15.8371: real time   14.8562
    MIXING:  cpu time    0.1683: real time    0.1138
    --------------------------------------------
      LOOP:  cpu time  287.6152: real time  212.5628

 eigenvalue-minimisations  :  5120
 total energy-change (2. order) :-0.6066732E+01  (-0.2713522E+00)
 number of electron     346.6999707 magnetization      35.8447181
 augmentation part       16.0749536 magnetization      34.5909311

 Broyden mixing:
  rms(total) = 0.73928E+00    rms(broyden)= 0.73926E+00
  rms(prec ) = 0.74183E+00
  weight for this iteration     100.00

 eigenvalues of (default mixing * dielectric matrix)
  average eigenvalue GAMMA=   1.5052
  3.7398  2.2961  1.1226  1.1226  0.9170  0.7301  0.6084

 Free energy of the ion-electron system (eV)
  ---------------------------------------------------
  alpha Z        PSCENC =        92.14382556
  Ewald energy   TEWEN  =    110930.99235369
  -Hartree energ DENC   =   -125030.04950580
  -exchange      EXHF   =         0.00000000
  -V(xc)+E(xc)   XCENC  =      1579.99081521
  PAW double counting   =     41616.42912458   -41783.67351281
  entropy T*S    EENTRO =        -0.00510417
  eigenvalues    EBANDS =     -4899.55917091
  atomic energy  EATOM  =     16689.68470767
  Solvation  Ediel_sol  =        16.83699008
  ---------------------------------------------------
  free energy    TOTEN  =      -787.20947691 eV

  energy without entropy =     -787.20437273  energy(sigma->0) =     -787.20692482


--------------------------------------------------------------------------------------------------------




--------------------------------------- Iteration      1(  13)  ---------------------------------------


    POTLOK:  cpu time   74.4919: real time   74.6366
    SETDIJ:  cpu time    1.2209: real time    0.8176
    EDDIAG:  cpu time   22.9788: real time   18.3512
  RMM-DIIS:  cpu time  172.8371: real time  104.7521
    ORTHCH:  cpu time    2.1419: real time    1.0756
       DOS:  cpu time    0.0045: real time    0.0023
    CHARGE:  cpu time   15.9315: real time   14.8848
    MIXING:  cpu time    0.1767: real time    0.1218
    --------------------------------------------
      LOOP:  cpu time  289.7834: real time  214.6420

 eigenvalue-minimisations  :  5120
 total energy-change (2. order) :-0.1086786E+02  (-0.1212953E+01)
 number of electron     346.6999704 magnetization      30.7184984
 augmentation part       16.1222680 magnetization      30.8420634

 Broyden mixing:
  rms(total) = 0.81310E+00    rms(broyden)= 0.81272E+00
  rms(prec ) = 0.83097E+00
  weight for this iteration     100.00

 eigenvalues of (default mixing * dielectric matrix)
  average eigenvalue GAMMA=   1.5845
  5.1777  2.4218  1.3793  0.7850  0.7850  0.7784  0.7493  0.5997

 Free energy of the ion-electron system (eV)
  ---------------------------------------------------
  alpha Z        PSCENC =        92.14382556
  Ewald energy   TEWEN  =    110930.99235369
  -Hartree energ DENC   =   -125030.87993342
  -exchange      EXHF   =         0.00000000
  -V(xc)+E(xc)   XCENC  =      1570.30418643
  PAW double counting   =     40758.63792484   -40925.11228639
  entropy T*S    EENTRO =        -0.03068272
  eigenvalues    EBANDS =     -4957.64252307
  atomic energy  EATOM  =     16689.68470767
  Solvation  Ediel_sol  =        73.82509205
  ---------------------------------------------------
  free energy    TOTEN  =      -798.07733537 eV

  energy without entropy =     -798.04665265  energy(sigma->0) =     -798.06199401


--------------------------------------------------------------------------------------------------------




--------------------------------------- Iteration      1(  14)  ---------------------------------------


    POTLOK:  cpu time   73.8118: real time   73.9546
    SETDIJ:  cpu time    1.3091: real time    0.9060
    EDDIAG:  cpu time   22.8999: real time   18.2803
  RMM-DIIS:  cpu time  172.9022: real time  104.7740
    ORTHCH:  cpu time    2.1306: real time    1.0701
       DOS:  cpu time    0.0030: real time    0.0015
    CHARGE:  cpu time   15.7584: real time   14.8110
    MIXING:  cpu time    0.1832: real time    0.1283
    --------------------------------------------
      LOOP:  cpu time  288.9983: real time  213.9258

 eigenvalue-minimisations  :  5120
 total energy-change (2. order) :-0.1900615E+01  (-0.2856671E+00)
 number of electron     346.6999706 magnetization      26.2772192
 augmentation part       16.0251604 magnetization      25.4633132

 Broyden mixing:
  rms(total) = 0.44342E+00    rms(broyden)= 0.44302E+00
  rms(prec ) = 0.44625E+00
  weight for this iteration     100.00

 eigenvalues of (default mixing * dielectric matrix)
  average eigenvalue GAMMA=   1.7335
  7.1799  2.4239  1.2861  0.9899  0.9899  0.7294  0.7294  0.6649  0.6082

 Free energy of the ion-electron system (eV)
  ---------------------------------------------------
  alpha Z        PSCENC =        92.14382556
  Ewald energy   TEWEN  =    110930.99235369
  -Hartree energ DENC   =   -125037.63929761
  -exchange      EXHF   =         0.00000000
  -V(xc)+E(xc)   XCENC  =      1568.85098255
  PAW double counting   =     40418.49988985   -40584.89769496
  entropy T*S    EENTRO =        -0.00963174
  eigenvalues    EBANDS =     -4959.50093927
  atomic energy  EATOM  =     16689.68470767
  Solvation  Ediel_sol  =        81.89785407
  ---------------------------------------------------
  free energy    TOTEN  =      -799.97795019 eV

  energy without entropy =     -799.96831845  energy(sigma->0) =     -799.97313432


--------------------------------------------------------------------------------------------------------




--------------------------------------- Iteration      1(  15)  ---------------------------------------


    POTLOK:  cpu time   72.7279: real time   72.8712
    SETDIJ:  cpu time    1.1812: real time    0.7780
    EDDIAG:  cpu time   23.3765: real time   18.5789
  RMM-DIIS:  cpu time  172.8309: real time  104.8211
    ORTHCH:  cpu time    2.1305: real time    1.0699
       DOS:  cpu time    0.0040: real time    0.0020
    CHARGE:  cpu time   15.7368: real time   14.7830
    MIXING:  cpu time    0.1937: real time    0.1394
    --------------------------------------------
      LOOP:  cpu time  288.1814: real time  213.0435

 eigenvalue-minimisations  :  5120
 total energy-change (2. order) : 0.1701169E+01  (-0.1206396E+00)
 number of electron     346.6999705 magnetization      20.5684879
 augmentation part       16.0700262 magnetization      19.6813404

 Broyden mixing:
  rms(total) = 0.36011E+00    rms(broyden)= 0.36005E+00
  rms(prec ) = 0.36326E+00
  weight for this iteration     100.00

 eigenvalues of (default mixing * dielectric matrix)
  average eigenvalue GAMMA=   1.8308
  8.4259  2.4780  1.5247  1.2750  0.9616  0.9616  0.6899  0.6899  0.6910  0.6104

 Free energy of the ion-electron system (eV)
  ---------------------------------------------------
  alpha Z        PSCENC =        92.14382556
  Ewald energy   TEWEN  =    110930.99235369
  -Hartree energ DENC   =   -125030.16957243
  -exchange      EXHF   =         0.00000000
  -V(xc)+E(xc)   XCENC  =      1569.50133099
  PAW double counting   =     40448.12036264   -40614.60534497
  entropy T*S    EENTRO =        -0.00551475
  eigenvalues    EBANDS =     -4982.64383215
  atomic energy  EATOM  =     16689.68470767
  Solvation  Ediel_sol  =        98.70490216
  ---------------------------------------------------
  free energy    TOTEN  =      -798.27678159 eV

  energy without entropy =     -798.27126684  energy(sigma->0) =     -798.27402422


--------------------------------------------------------------------------------------------------------




--------------------------------------- Iteration      1(  16)  ---------------------------------------


    POTLOK:  cpu time   73.2312: real time   73.3758
    SETDIJ:  cpu time    0.9724: real time    0.5849
    EDDIAG:  cpu time   22.9062: real time   18.3225
  RMM-DIIS:  cpu time  172.9814: real time  104.7694
    ORTHCH:  cpu time    2.1366: real time    1.0730
       DOS:  cpu time    0.0045: real time    0.0023
    CHARGE:  cpu time   15.8204: real time   14.8467
    MIXING:  cpu time    0.2003: real time    0.1455
    --------------------------------------------
      LOOP:  cpu time  288.2530: real time  213.1201

 eigenvalue-minimisations  :  5120
 total energy-change (2. order) : 0.3725498E+01  (-0.6333087E-01)
 number of electron     346.6999705 magnetization      15.7589097
 augmentation part       16.0824051 magnetization      15.0818754

 Broyden mixing:
  rms(total) = 0.27362E+00    rms(broyden)= 0.27357E+00
  rms(prec ) = 0.27411E+00
  weight for this iteration     100.00

 eigenvalues of (default mixing * dielectric matrix)
  average eigenvalue GAMMA=   1.9570
  9.7752  2.7010  2.3092  1.2847  1.0299  1.0299  0.6938  0.6938  0.7431  0.6330
  0.6330

 Free energy of the ion-electron system (eV)
  ---------------------------------------------------
  alpha Z        PSCENC =        92.14382556
  Ewald energy   TEWEN  =    110930.99235369
  -Hartree energ DENC   =   -125026.72845421
  -exchange      EXHF   =         0.00000000
  -V(xc)+E(xc)   XCENC  =      1572.80888616
  PAW double counting   =     40326.11820518   -40492.95811709
  entropy T*S    EENTRO =        -0.01615647
  eigenvalues    EBANDS =     -5005.25145822
  atomic energy  EATOM  =     16689.68470767
  Solvation  Ediel_sol  =       118.65492383
  ---------------------------------------------------
  free energy    TOTEN  =      -794.55128390 eV

  energy without entropy =     -794.53512743  energy(sigma->0) =     -794.54320566


--------------------------------------------------------------------------------------------------------




--------------------------------------- Iteration      1(  17)  ---------------------------------------


    POTLOK:  cpu time   71.5801: real time   71.7217
    SETDIJ:  cpu time    1.2511: real time    0.8479
    EDDIAG:  cpu time   22.8427: real time   18.2441
  RMM-DIIS:  cpu time  173.0320: real time  104.7921
[...]
   -.322E+02 0.997E+01 0.913E+02   0.321E+02 -.985E+01 -.910E+02   -.517E-02 0.379E-02 0.777E-02   0.468E-03 -.234E-03 -.120E-02
   -.202E+02 -.317E+01 0.793E+02   0.200E+02 0.318E+01 -.790E+02   -.263E-02 -.108E-02 0.102E-03   0.364E-03 -.472E-04 -.114E-02
   -.318E+01 -.431E+01 0.700E+02   0.313E+01 0.427E+01 -.698E+02   -.538E-03 0.130E-02 -.664E-02   0.147E-03 0.124E-03 -.969E-03
   0.188E+02 -.103E+02 0.776E+02   -.187E+02 0.103E+02 -.773E+02   0.127E-02 -.568E-03 -.148E-02   -.322E-03 0.184E-03 -.106E-02
   0.975E+01 -.914E+01 0.760E+02   -.964E+01 0.907E+01 -.757E+02   -.759E-03 -.159E-02 -.292E-03   -.297E-03 0.171E-03 -.105E-02
   -.473E+01 0.177E+00 0.730E+02   0.476E+01 -.231E+00 -.728E+02   -.139E-02 0.147E-02 -.789E-02   0.796E-05 0.111E-03 -.104E-02
   -.112E+02 0.610E+01 0.722E+02   0.111E+02 -.608E+01 -.720E+02   -.228E-03 0.205E-02 -.700E-02   0.241E-03 -.270E-04 -.918E-03
   -.316E+01 0.387E+01 0.726E+02   0.308E+01 -.382E+01 -.724E+02   0.128E-02 0.170E-02 -.424E-02   0.116E-03 -.178E-03 -.929E-03
   0.123E+02 -.324E+01 0.751E+02   -.123E+02 0.327E+01 -.749E+02   0.139E-02 0.140E-02 -.802E-02   -.140E-03 -.259E-04 -.104E-02
   0.370E+01 0.255E+02 -.413E+03   -.447E+01 -.242E+02 0.405E+03   0.931E+00 -.926E+00 0.830E+01   -.119E-03 -.847E-03 0.105E-02
   -.120E+02 -.440E+02 -.322E+03   0.179E+02 0.533E+02 0.330E+03   -.556E+01 -.869E+01 -.662E+01   -.645E-03 -.145E-02 -.536E-03
   -.434E+02 -.113E+03 -.312E+03   0.431E+02 0.113E+03 0.313E+03   0.558E+00 0.116E+01 -.174E+00   0.278E-03 0.540E-03 -.128E-02
   -.535E+03 0.865E+02 -.904E+03   0.594E+03 -.896E+02 0.919E+03   -.575E+02 0.345E+01 -.156E+02   0.132E-02 -.145E-02 0.148E-02
   0.245E+03 0.514E+03 -.883E+03   -.271E+03 -.563E+03 0.900E+03   0.257E+02 0.495E+02 -.160E+02   -.929E-03 -.224E-02 0.832E-03
   0.243E+03 -.365E+03 -.103E+04   -.269E+03 0.411E+03 0.106E+04   0.255E+02 -.442E+02 -.305E+02   -.104E-02 0.121E-03 0.207E-02
   -.215E+03 0.414E+03 -.309E+03   0.246E+03 -.455E+03 0.278E+03   -.293E+02 0.418E+02 0.318E+02   0.572E-03 -.378E-02 -.323E-02
   0.552E+03 0.268E+02 -.436E+03   -.610E+03 -.228E+02 0.420E+03   0.580E+02 -.239E+01 0.164E+02   -.351E-02 -.171E-02 -.228E-02
   -.448E+03 -.121E+03 -.442E+03   0.508E+03 0.110E+03 0.436E+03   -.576E+02 0.113E+02 0.653E+01   0.243E-02 -.856E-04 -.212E-02
   0.208E+03 -.429E+03 -.481E+03   -.255E+03 0.470E+03 0.481E+03   0.450E+02 -.384E+02 0.117E+01   -.153E-02 0.184E-02 -.197E-02
 -----------------------------------------------------------------------------------------------
   -.571E+01 -.126E+02 0.474E+01   -.284E-12 0.568E-13 0.284E-12   0.573E+01 0.126E+02 -.466E+01   -.319E-02 -.906E-02 -.788E-01
 
 
 POSITION                                       TOTAL-FORCE (eV/Angst)
 -----------------------------------------------------------------------------------
      1.25608     -0.72498     17.55778        -0.001044      0.000447      0.000663
      2.51206      1.45069     17.55650        -0.003538      0.002411      0.000791
      3.76830      3.62617     17.55582        -0.003700      0.004365     -0.000023
      5.02450      5.80181     17.55649        -0.000256      0.001130     -0.000339
      6.28061      7.97748     17.55790         0.000290     -0.000185      0.000634
      7.53667     10.15310     17.55846         0.000603      0.000762      0.001541
      2.51229     -2.90077     17.55829        -0.001087     -0.000587      0.001395
      3.76814     -0.72517     17.55607        -0.002427     -0.001169      0.002184
      5.02427      1.45071     17.55524        -0.001516     -0.000718      0.001579
      6.28055      3.62614     17.55569        -0.001561      0.003348      0.001212
      7.53672      5.80180     17.55677        -0.000466      0.001081     -0.000251
      8.79280      7.97742     17.55835        -0.000059      0.000592      0.000837
      3.76845     -5.07642     17.55859        -0.000272      0.000198      0.001829
      5.02450     -2.90093     17.55834        -0.000422     -0.001021      0.002543
      6.28062     -0.72527     17.55617         0.002352     -0.002272      0.003583
      7.53673      1.45056     17.55626         0.004618      0.003983      0.002650
      8.79275      3.62618     17.55617         0.003287      0.002566     -0.000122
     10.04890      5.80177     17.55762         0.000262      0.000789      0.000160
      5.02454     -7.25195     17.55818         0.000187      0.000495      0.001167
      6.28063     -5.07640     17.55838         0.000426     -0.000223      0.001857
      7.53672     -2.90075     17.55743         0.000920     -0.001703      0.001614
      8.79278     -0.72498     17.55627         0.002157      0.000061      0.001023
     10.04877      1.45057     17.55622         0.005383      0.007517      0.000098
     11.30497      3.62623     17.55732         0.000477      0.000961     -0.000132
      6.28057     -9.42748     17.55800         0.000486     -0.000106      0.000745
      7.53670     -7.25191     17.55799         0.001083      0.000547      0.000914
      8.79282     -5.07628     17.55804         0.001046      0.000133      0.000586
     10.04889     -2.90060     17.55747         0.000336     -0.000108      0.000264
     11.30491     -0.72496     17.55729         0.001290      0.001173     -0.000067
     12.56100      1.45063     17.55782         0.001075      0.001609      0.000091
      7.53659    -11.60306     17.55792        -0.000432      0.000461      0.000681
      8.79271     -9.42745     17.55715        -0.000677      0.000439      0.000117
     10.04889     -7.25189     17.55725         0.000495      0.000513     -0.000310
     11.30500     -5.07624     17.55788         0.000271      0.000083      0.000494
     12.56105     -2.90061     17.55818         0.000784      0.001006      0.001128
     13.81709     -0.72498     17.55831         0.000883      0.001117      0.001036
      1.25616      0.72541     17.55751         0.001453      0.000421     -0.000236
      2.51224      2.90099     17.55614         0.002251     -0.000687      0.000101
      3.76840      5.07658     17.55614         0.000789     -0.000835     -0.000333
      5.02452      7.25225     17.55744         0.000628      0.000362     -0.000024
      6.28062      9.42791     17.55837        -0.000312      0.000401      0.001091
      7.53667     11.60354     17.55840        -0.000338      0.000294      0.001099
      2.51224     -1.45027     17.55739         0.001081      0.000978      0.000198
      3.76832      0.72533     17.55589         0.002342     -0.000809      0.003141
      5.02440      2.90095     17.55500         0.002104     -0.003407      0.001962
      6.28059      5.07658     17.55593         0.000741     -0.002540     -0.000744
      7.53672      7.25224     17.55779        -0.000013     -0.000106      0.000269
      8.79279      9.42788     17.55862         0.000317     -0.000024      0.001326
      3.76842     -3.62592     17.55878         0.000952      0.000821      0.001893
      5.02438     -1.45026     17.55781         0.001219      0.001808      0.001498
      6.28030      0.72528     17.55740         0.000169      0.000063      0.003254
      7.53658      2.90090     17.55593        -0.001097     -0.002747      0.000286
      8.79279      5.07659     17.55656        -0.000777     -0.000423     -0.000133
     10.04890      7.25223     17.55839         0.000376     -0.000169      0.000810
      5.02454     -5.80152     17.55844         0.000349      0.000794      0.001641
      6.28060     -3.62590     17.55834        -0.000209      0.001767      0.002333
      7.53659     -1.45026     17.55636        -0.000516      0.002203      0.000927
      8.79269      0.72544     17.55560        -0.005180     -0.002717      0.000573
     10.04885      2.90111     17.55614        -0.002374     -0.005513     -0.000173
     11.30500      5.07663     17.55782        -0.000154      0.000803      0.000189
      6.28062     -7.97709     17.55810         0.000122      0.000628      0.000979
      7.53673     -5.80148     17.55822        -0.000205      0.000617      0.000902
      8.79279     -3.62584     17.55758        -0.000291      0.001030      0.000520
     10.04881     -1.45019     17.55666        -0.000826      0.001537      0.000189
     11.30490      0.72548     17.55700        -0.001601     -0.001890     -0.000545
     12.56105      2.90105     17.55790        -0.000064      0.000012      0.000001
      7.53667    -10.15269     17.55772        -0.000049      0.000782      0.000480
      8.79280     -7.97708     17.55743        -0.000174      0.000508      0.000109
     10.04891     -5.80147     17.55795        -0.000109      0.000908     -0.000128
     11.30498     -3.62581     17.55805        -0.000308      0.000510      0.000145
     12.56104     -1.45018     17.55807        -0.001130      0.000356      0.000732
     13.81713      0.72544     17.55829        -0.000948      0.000569      0.000525
      5.17504     -0.78905     23.62971        -0.005085      0.004992     -0.037438
      5.01758     -0.58100     22.11372         0.025339      0.003659      0.008576
      5.78568      1.08196     21.65834        -0.022124     -0.004996      0.006586
      6.46559     -0.86224     23.96320         0.011760      0.011599     -0.011913
      4.57372     -1.93861     23.98278         0.001203      0.001715      0.017698
      4.59958      0.21580     24.29764         0.003643      0.014933     -0.021047
      5.65917     -1.51840     21.42872        -0.001585     -0.016124     -0.017297
      3.73803     -0.54603     21.77160        -0.032452     -0.023109     -0.020472
      6.95962      0.85372     21.52669        -0.022262      0.004453      0.005871
      4.87364      1.86434     21.63527         0.032086     -0.023123      0.012407
 -----------------------------------------------------------------------------------
    total drift:                                0.010808      0.016092     -0.003224


--------------------------------------------------------------------------------------------------------



  FREE ENERGIE OF THE ION-ELECTRON SYSTEM (eV)
  ---------------------------------------------------
  free  energy   TOTEN  =      -777.10647908 eV

  energy  without entropy=     -777.09458002  energy(sigma->0) =     -777.10052955
 


--------------------------------------------------------------------------------------------------------


    POTLOK:  cpu time   53.2758: real time   53.0955


--------------------------------------------------------------------------------------------------------


 Dimer: Init Mode:
 Dimer: MODECAR found
 Dimer: -----------------
 Dimer: Itr    1 Rot    0

 Dimer: Central Point
 Dimer: F0      0.097505

 Dimer: Projection
 Dimer: N*F0  3.303790966486651E-002
 Dimer: F0sq  9.507135315040948E-003
 Dimer: Feffsq   1.091503475023880E-003
 
 stress matrix after NEB project (eV)
    -26.86467      0.66353      0.34344
      0.66356    -25.91299      0.25195
      0.34202      0.25179      0.11829
  FORCES: max atom, RMS     0.044791    0.010768
  FORCE total and by dimension    0.097505    0.037438
  Stress total and by dimension   37.342337   26.864672
 OPT: skip step - force has converged


--------------------------------------------------------------------------------------------------------


  
 reached required accuracy - stopping structural energy minimisation
 writing wavefunctions
     LOOP+:  cpu time 9971.8021: real time 7301.2850
    4ORBIT:  cpu time    0.0000: real time    0.0000
 


 total charge     
 
# of ion       s       p       d       tot
------------------------------------------
    1        0.745   1.393   0.000   2.138
    2        0.745   1.393   0.000   2.138
    3        0.745   1.393   0.000   2.138
    4        0.745   1.393   0.000   2.138
    5        0.745   1.393   0.000   2.138
    6        0.745   1.393   0.000   2.138
    7        0.745   1.393   0.000   2.138
    8        0.745   1.394   0.000   2.138
    9        0.745   1.394   0.000   2.139
   10        0.745   1.393   0.000   2.138
   11        0.745   1.393   0.000   2.138
   12        0.745   1.393   0.000   2.138
   13        0.745   1.393   0.000   2.138
   14        0.745   1.393   0.000   2.138
   15        0.745   1.394   0.000   2.138
   16        0.745   1.393   0.000   2.138
   17        0.745   1.393   0.000   2.138
   18        0.745   1.393   0.000   2.138
   19        0.745   1.393   0.000   2.138
   20        0.745   1.393   0.000   2.138
   21        0.745   1.393   0.000   2.138
   22        0.745   1.393   0.000   2.138
   23        0.745   1.393   0.000   2.138
   24        0.745   1.393   0.000   2.138
   25        0.745   1.393   0.000   2.138
   26        0.745   1.393   0.000   2.138
   27        0.745   1.393   0.000   2.138
   28        0.745   1.393   0.000   2.138
   29        0.745   1.393   0.000   2.138
   30        0.745   1.393   0.000   2.138
   31        0.745   1.393   0.000   2.138
   32        0.745   1.393   0.000   2.138
   33        0.745   1.393   0.000   2.138
   34        0.745   1.393   0.000   2.138
   35        0.745   1.393   0.000   2.138
   36        0.745   1.393   0.000   2.138
   37        1.238   2.820   0.000   4.058
   38        1.238   2.820   0.000   4.058
   39        1.238   2.820   0.000   4.058
   40        1.238   2.820   0.000   4.058
   41        1.238   2.820   0.000   4.058
   42        1.238   2.820   0.000   4.058
   43        1.238   2.820   0.000   4.058
   44        1.238   2.820   0.000   4.058
   45        1.238   2.820   0.000   4.058
   46        1.238   2.820   0.000   4.058
   47        1.238   2.820   0.000   4.058
   48        1.238   2.820   0.000   4.058
   49        1.238   2.820   0.000   4.058
   50        1.238   2.819   0.000   4.058
   51        1.238   2.819   0.000   4.057
   52        1.238   2.820   0.000   4.058
   53        1.238   2.820   0.000   4.058
   54        1.238   2.820   0.000   4.058
   55        1.238   2.820   0.000   4.058
   56        1.238   2.820   0.000   4.058
   57        1.238   2.820   0.000   4.058
   58        1.238   2.820   0.000   4.058
   59        1.238   2.820   0.000   4.058
   60        1.238   2.820   0.000   4.058
   61        1.238   2.820   0.000   4.058
   62        1.238   2.820   0.000   4.058
   63        1.238   2.820   0.000   4.058
   64        1.238   2.820   0.000   4.058
   65        1.238   2.820   0.000   4.058
   66        1.238   2.820   0.000   4.058
   67        1.238   2.820   0.000   4.058
   68        1.238   2.820   0.000   4.058
   69        1.238   2.820   0.000   4.058
   70        1.238   2.820   0.000   4.058
   71        1.238   2.820   0.000   4.058
   72        1.238   2.820   0.000   4.058
   73        0.814   1.563   0.000   2.377
   74        0.838   1.551   0.000   2.389
   75        0.906   1.728   0.000   2.633
   76        1.759   4.414   0.000   6.173
   77        1.759   4.407   0.000   6.165
   78        1.759   4.413   0.000   6.172
   79        1.759   4.401   0.000   6.159
   80        1.759   4.403   0.000   6.161
   81        1.605   3.558   0.000   5.163
   82        1.605   3.560   0.000   5.165
--------------------------------------------------
tot         85.936 185.672   0.000 271.607
 


 magnetization (x)
 
# of ion       s       p       d       tot
------------------------------------------
    1       -0.000  -0.000   0.000  -0.000
    2       -0.000  -0.000   0.000  -0.000
    3       -0.000  -0.000   0.000  -0.000
    4       -0.000  -0.000   0.000  -0.000
    5       -0.000  -0.000   0.000  -0.000
    6       -0.000  -0.000   0.000  -0.000
    7       -0.000  -0.000   0.000  -0.000
    8       -0.000  -0.000   0.000  -0.000
    9       -0.000   0.000   0.000  -0.000
   10       -0.000  -0.000   0.000  -0.000
   11       -0.000  -0.000   0.000  -0.000
   12       -0.000  -0.000   0.000  -0.000
   13       -0.000  -0.000   0.000  -0.000
   14       -0.000  -0.000   0.000  -0.000
   15       -0.000  -0.000   0.000  -0.000
   16        0.000   0.000   0.000   0.000
   17       -0.000  -0.000   0.000  -0.000
   18       -0.000  -0.000   0.000  -0.000
   19       -0.000  -0.000   0.000  -0.000
   20       -0.000  -0.000   0.000  -0.000
   21       -0.000  -0.000   0.000  -0.000
   22       -0.000  -0.000   0.000  -0.000
   23       -0.000  -0.000   0.000  -0.000
   24       -0.000  -0.000   0.000  -0.000
   25       -0.000  -0.000   0.000  -0.000
   26       -0.000  -0.000   0.000  -0.000
   27       -0.000  -0.000   0.000  -0.000
   28       -0.000  -0.000   0.000  -0.000
   29       -0.000  -0.000   0.000  -0.000
   30       -0.000  -0.000   0.000  -0.000
   31       -0.000  -0.000   0.000  -0.000
   32       -0.000  -0.000   0.000  -0.000
   33       -0.000  -0.000   0.000  -0.000
   34       -0.000  -0.000   0.000  -0.000
   35       -0.000  -0.000   0.000  -0.000
   36       -0.000  -0.000   0.000  -0.000
   37        0.000   0.000   0.000   0.000
   38       -0.000   0.000   0.000   0.000
   39        0.000   0.000   0.000   0.000
   40        0.000   0.000   0.000   0.000
   41        0.000   0.000   0.000   0.000
   42        0.000   0.000   0.000   0.000
   43        0.000   0.000   0.000   0.000
   44        0.000   0.000   0.000   0.000
   45        0.000   0.000   0.000   0.000
   46        0.000   0.000   0.000   0.000
   47        0.000   0.000   0.000   0.000
   48        0.000   0.000   0.000   0.000
   49        0.000   0.000   0.000   0.000
   50       -0.000  -0.000   0.000  -0.000
   51        0.000   0.000   0.000   0.000
   52        0.000  -0.000   0.000  -0.000
   53       -0.000   0.000   0.000   0.000
   54        0.000   0.000   0.000   0.000
   55        0.000   0.000   0.000   0.000
   56        0.000   0.000   0.000   0.000
   57        0.000   0.000   0.000   0.000
   58        0.000   0.000   0.000   0.000
   59        0.000   0.000   0.000   0.000
   60       -0.000   0.000   0.000   0.000
   61        0.000   0.000   0.000   0.000
   62        0.000   0.000   0.000   0.000
   63        0.000   0.000   0.000   0.000
   64       -0.000   0.000   0.000   0.000
   65        0.000   0.000   0.000   0.000
   66        0.000   0.000   0.000   0.000
   67        0.000   0.000   0.000   0.000
   68        0.000   0.000   0.000   0.000
   69        0.000   0.000   0.000   0.000
   70        0.000   0.000   0.000   0.000
   71        0.000   0.000   0.000   0.000
   72        0.000   0.000   0.000   0.000
   73        0.005   0.014   0.000   0.019
   74        0.037   0.196   0.000   0.233
   75       -0.013  -0.026   0.000  -0.039
   76       -0.000  -0.001   0.000  -0.001
   77        0.000   0.019   0.000   0.019
   78       -0.000  -0.001   0.000  -0.001
   79        0.001   0.050   0.000   0.051
   80        0.001   0.048   0.000   0.049
   81        0.002   0.157   0.000   0.159
   82        0.002   0.148   0.000   0.150
--------------------------------------------------
tot          0.035   0.604   0.000   0.640
 

 total amount of memory used by VASP MPI-rank0  1602137. kBytes
=======================================================================

   base      :      30000. kBytes
   nonlr-proj:      12088. kBytes
   fftplans  :      65180. kBytes
   grid      :     454720. kBytes
   one-center:        503. kBytes
   wavefun   :    1039646. kBytes
 
  
  
 General timing and accounting informations for this job:
 ========================================================
  
                  Total CPU time used (sec):    10019.604
                            User time (sec):     9789.040
                          System time (sec):      230.564
                         Elapsed time (sec):     7350.409
  
                   Maximum memory used (kb):     3364304.
                   Average memory used (kb):           0.
  
                          Minor page faults:      2597936
                          Major page faults:           14
                 Voluntary context switches:        96030
