 vasp.5.4.4.18Apr17-6-g9f103f2a35 (build May 01 2020 14:57:12) complex          
  
 executed on             LinuxIFC date 2020.11.25  13:11:38
 running on  384 total cores
 distrk:  each k-point on   96 cores,    4 groups
 distr:  one band on NCORES_PER_BAND=  24 cores,    4 groups


--------------------------------------------------------------------------------------------------------


 INCAR:
 POTCAR:    PAW_PBE B 06Sep2000                   
 POTCAR:    PAW_PBE N 08Apr2002                   

 ----------------------------------------------------------------------------- 
|                                                                             |
|           W    W    AA    RRRRR   N    N  II  N    N   GGGG   !!!           |
|           W    W   A  A   R    R  NN   N  II  NN   N  G    G  !!!           |
|           W    W  A    A  R    R  N N  N  II  N N  N  G       !!!           |
|           W WW W  AAAAAA  RRRRR   N  N N  II  N  N N  G  GGG   !            |
|           WW  WW  A    A  R   R   N   NN  II  N   NN  G    G                |
|           W    W  A    A  R    R  N    N  II  N    N   GGGG   !!!           |
|                                                                             |
|      You have enabled k-point parallelism (KPAR>1).                         |
|      This developmental code was originally  written by Paul Kent at ORNL,  |
|      and carefully double checked in Vienna.                                |
|      GW as well as linear response parallelism added by Martijn Marsman     |
|      and Georg Kresse.                                                      |
|      Carefully verify results versus KPAR=1.                                |
|      Report problems to Paul Kent and Vienna.                               |
|                                                                             |
 ----------------------------------------------------------------------------- 

 POTCAR:    PAW_PBE B 06Sep2000                   
   VRHFIN =B: s2p1                                                              
   LEXCH  = PE                                                                  
   EATOM  =    71.1703 eV,    5.2309 Ry                                         
                                                                                
   TITEL  = PAW_PBE B 06Sep2000                                                 
   LULTRA =        F    use ultrasoft PP ?                                      
   IUNSCR =        1    unscreen: 0-lin 1-nonlin 2-no                           
   RPACOR =    1.200    partial core radius                                     
   POMASS =   10.811; ZVAL   =    3.000    mass and valenz                      
   RCORE  =    1.700    outmost cutoff radius                                   
   RWIGS  =    1.710; RWIGS  =    0.905    wigner-seitz radius (au A)           
   ENMAX  =  318.614; ENMIN  =  238.960 eV                                      
   ICORE  =        2    local potential                                         
   LCOR   =        T    correct aug charges                                     
   LPAW   =        T    paw PP                                                  
   EAUG   =  535.514                                                            
   DEXC   =    0.000                                                            
   RMAX   =    1.732    core radius for proj-oper                               
   RAUG   =    1.300    factor for augmentation sphere                          
   RDEP   =    1.757    radius for radial grids                                 
   RDEPT  =    1.436    core radius for aug-charge                              
                                                                                
   Atomic configuration                                                         
    4 entries                                                                   
     n  l   j            E        occ.                                          
     1  0  0.50      -180.5896   2.0000                                         
     2  0  0.50        -9.4431   2.0000                                         
     2  1  0.50        -3.6068   1.0000                                         
     3  2  1.50        -4.0817   0.0000                                         
   Description                                                                  
     l       E           TYP  RCUT    TYP  RCUT                                 
     0     -9.4430752     23  1.500                                             
     0      0.8675899     23  1.500                                             
     1     -3.6067955     23  1.700                                             
     1      6.1086146     23  1.700                                             
     2     -4.0817478      7  1.700                                             
  local pseudopotential read in
  partial core-charges read in
  partial kinetic energy density read in
  atomic valenz-charges read in
  non local Contribution for L=           0  read in
    real space projection operators read in
  non local Contribution for L=           0  read in
    real space projection operators read in
  non local Contribution for L=           1  read in
    real space projection operators read in
  non local Contribution for L=           1  read in
    real space projection operators read in
    PAW grid and wavefunctions read in
 
   number of l-projection  operators is LMAX  =           4
   number of lm-projection operators is LMMAX =           8
 
 POTCAR:    PAW_PBE N 08Apr2002                   
   VRHFIN =N: s2p3                                                              
   LEXCH  = PE                                                                  
   EATOM  =   264.5486 eV,   19.4438 Ry                                         
                                                                                
   TITEL  = PAW_PBE N 08Apr2002                                                 
   LULTRA =        F    use ultrasoft PP ?                                      
   IUNSCR =        1    unscreen: 0-lin 1-nonlin 2-no                           
   RPACOR =    1.200    partial core radius                                     
   POMASS =   14.001; ZVAL   =    5.000    mass and valenz                      
   RCORE  =    1.500    outmost cutoff radius                                   
   RWIGS  =    1.400; RWIGS  =    0.741    wigner-seitz radius (au A)           
   ENMAX  =  400.000; ENMIN  =  300.000 eV                                      
   ICORE  =        2    local potential                                         
   LCOR   =        T    correct aug charges                                     
   LPAW   =        T    paw PP                                                  
   EAUG   =  627.112                                                            
   DEXC   =    0.000                                                            
   RMAX   =    1.529    core radius for proj-oper                               
   RAUG   =    1.300    factor for augmentation sphere                          
   RDEP   =    1.514    radius for radial grids                                 
   RDEPT  =    1.338    core radius for aug-charge                              
                                                                                
   Atomic configuration                                                         
    4 entries                                                                   
     n  l   j            E        occ.                                          
     1  0  0.50      -384.7179   2.0000                                         
     2  0  0.50       -18.5828   2.0000                                         
     2  1  0.50        -7.0898   3.0000                                         
     3  2  1.50        -6.8029   0.0000                                         
   Description                                                                  
     l       E           TYP  RCUT    TYP  RCUT                                 
     0    -18.5828119     23  1.200                                             
     0    -13.5018863     23  1.200                                             
     1     -7.0897853     23  1.500                                             
     1      9.5240782     23  1.500                                             
     2     -6.8029130      7  1.500                                             
  local pseudopotential read in
  partial core-charges read in
  partial kinetic energy density read in
  atomic valenz-charges read in
  non local Contribution for L=           0  read in
    real space projection operators read in
  non local Contribution for L=           0  read in
    real space projection operators read in
  non local Contribution for L=           1  read in
    real space projection operators read in
  non local Contribution for L=           1  read in
    real space projection operators read in
    PAW grid and wavefunctions read in
 
   number of l-projection  operators is LMAX  =           4
   number of lm-projection operators is LMMAX =           8
 
 Optimization of the real space projectors (new method)

 maximal supplied QI-value         = 22.11
 optimisation between [QCUT,QGAM] = [ 11.94, 23.88] = [ 39.92,159.67] Ry 
 Optimized for a Real-space Cutoff    1.18 Angstroem

   l    n(q)    QCUT    max X(q) W(low)/X(q) W(high)/X(q)  e(spline) 
   0      8    11.939    53.033    0.11E-03    0.34E-03    0.60E-07
   0      8    11.939    34.740    0.11E-03    0.34E-03    0.59E-07
   1      8    11.939    30.949    0.22E-03    0.20E-03    0.17E-06
   1      8    11.939    19.518    0.20E-03    0.18E-03    0.16E-06
 Optimization of the real space projectors (new method)

 maximal supplied QI-value         = 25.13
 optimisation between [QCUT,QGAM] = [ 11.81, 23.88] = [ 39.08,159.64] Ry 
 Optimized for a Real-space Cutoff    1.41 Angstroem

   l    n(q)    QCUT    max X(q) W(low)/X(q) W(high)/X(q)  e(spline) 
   0     10    11.813    79.467    0.48E-04    0.30E-04    0.67E-06
   0     10    11.813    66.151    0.47E-04    0.30E-04    0.67E-06
   1     10    11.813    20.169    0.11E-03    0.17E-03    0.11E-05
   1     10    11.813    14.454    0.11E-03    0.17E-03    0.11E-05
  PAW_PBE B 06Sep2000                   :
 energy of atom  1       EATOM=  -71.1703
 kinetic energy error for atom=    0.0009 (will be added to EATOM!!)
  PAW_PBE N 08Apr2002                   :
 energy of atom  2       EATOM= -264.5486
 kinetic energy error for atom=    0.0116 (will be added to EATOM!!)
 
 
 POSCAR: B N                                     
  positions in direct lattice
  velocities in cartesian coordinates

 METAGGA = SCAN     LMAXTAU =  6    LMIXTAU =  F

 exchange correlation table for  LEXCH =        8
   RHO(1)=    0.500       N(1)  =     2000
   RHO(2)=  100.500       N(2)  =     4000
 


--------------------------------------------------------------------------------------------------------


 ion  position               nearest neighbor table
   1  0.167  0.083  0.500-  20 1.45  21 1.45  17 1.45
   2  0.167  0.333  0.500-  17 1.45  22 1.45  18 1.45
   3  0.167  0.583  0.500-  18 1.45  23 1.45  19 1.45
   4  0.167  0.833  0.500-  19 1.45  24 1.45  20 1.45
   5  0.417  0.083  0.500-  24 1.45  25 1.45  21 1.45
   6  0.417  0.333  0.500-  21 1.45  26 1.45  22 1.45
   7  0.417  0.583  0.500-  22 1.45  27 1.45  23 1.45
   8  0.417  0.833  0.500-  23 1.45  28 1.45  24 1.45
   9  0.667  0.083  0.500-  28 1.45  29 1.45  25 1.45
  10  0.667  0.333  0.500-  25 1.45  30 1.45  26 1.45
  11  0.667  0.583  0.500-  26 1.45  31 1.45  27 1.45
  12  0.667  0.833  0.500-  27 1.45  32 1.45  28 1.45
  13  0.917  0.083  0.500-  17 1.45  32 1.45  29 1.45
  14  0.917  0.333  0.500-  18 1.45  29 1.45  30 1.45
  15  0.917  0.583  0.500-  19 1.45  30 1.45  31 1.45
  16  0.917  0.833  0.500-  20 1.45  31 1.45  32 1.45
  17  0.083  0.167  0.500-   2 1.45  13 1.45   1 1.45
  18  0.083  0.417  0.500-   3 1.45  14 1.45   2 1.45
  19  0.083  0.667  0.500-   4 1.45  15 1.45   3 1.45
  20  0.083  0.917  0.500-   1 1.45  16 1.45   4 1.45
  21  0.333  0.167  0.500-   1 1.45   6 1.45   5 1.45
  22  0.333  0.417  0.500-   2 1.45   7 1.45   6 1.45
  23  0.333  0.667  0.500-   3 1.45   8 1.45   7 1.45
  24  0.333  0.917  0.500-   4 1.45   5 1.45   8 1.45
  25  0.583  0.167  0.500-   5 1.45  10 1.45   9 1.45
  26  0.583  0.417  0.500-   6 1.45  11 1.45  10 1.45
  27  0.583  0.667  0.500-   7 1.45  12 1.45  11 1.45
  28  0.583  0.917  0.500-   8 1.45   9 1.45  12 1.45
  29  0.833  0.167  0.500-   9 1.45  14 1.45  13 1.45
  30  0.833  0.417  0.500-  10 1.45  15 1.45  14 1.45
  31  0.833  0.667  0.500-  11 1.45  16 1.45  15 1.45
  32  0.833  0.917  0.500-  12 1.45  13 1.45  16 1.45
 
  LATTYP: Found a hexagonal cell.
 ALAT       =    10.0487671536
 C/A-ratio  =     3.4944251219
  
  Lattice vectors:
  
 A1 = (   5.0243667045,  -8.7024973730,   0.0000000000)
 A2 = (   5.0243667045,   8.7024973730,   0.0000000000)
 A3 = (   0.0000000000,   0.0000000000,  35.1146643856)


Analysis of symmetry for initial positions (statically):
=====================================================================
 Subroutine PRICEL returns following result:
 
  Warning from LATTYP: Got some problem with cell dimensions!
  Tried to take original basis but could not verify dimensions!
  LATTYP: Found a hexagonal cell.
 ALAT       =     2.5121833522
 C/A-ratio  =    13.9777474261
  
  Lattice vectors:
  
 A1 = (   2.5121833522,   0.0000000000,   0.0000000000)
 A2 = (  -1.2560916761,  -2.1756243432,   0.0000000000)
 A3 = (   0.0000000000,   0.0000000000, -35.1146643856)
 
  16 primitive cells build up your supercell.
 

 Routine SETGRP: Setting up the symmetry group for a 
 hexagonal supercell.


 Subroutine GETGRP returns: Found 12 space group operations
 (whereof 12 operations were pure point group operations)
 out of a pool of 24 trial point group operations.


The static configuration has the point symmetry D_3h.


Analysis of symmetry for dynamics (positions and initial velocities):
=====================================================================
 Subroutine PRICEL returns following result:
 
  Warning from LATTYP: Got some problem with cell dimensions!
  Tried to take original basis but could not verify dimensions!
  LATTYP: Found a hexagonal cell.
 ALAT       =     2.5121833522
 C/A-ratio  =    13.9777474261
  
  Lattice vectors:
  
 A1 = (   2.5121833522,   0.0000000000,   0.0000000000)
 A2 = (  -1.2560916761,  -2.1756243432,   0.0000000000)
 A3 = (   0.0000000000,   0.0000000000, -35.1146643856)
 
  16 primitive cells build up your supercell.
 

 Routine SETGRP: Setting up the symmetry group for a 
 hexagonal supercell.


 Subroutine GETGRP returns: Found 12 space group operations
 (whereof 12 operations were pure point group operations)
 out of a pool of 24 trial point group operations.


The dynamic configuration has the point symmetry D_3h.


Analysis of constrained symmetry for selective dynamics:
=====================================================================
 Subroutine PRICEL returns following result:
 
  Warning from LATTYP: Got some problem with cell dimensions!
  Tried to take original basis but could not verify dimensions!
  LATTYP: Found a hexagonal cell.
 ALAT       =     2.5121833522
 C/A-ratio  =    13.9777474261
  
  Lattice vectors:
  
 A1 = (   2.5121833522,   0.0000000000,   0.0000000000)
 A2 = (  -1.2560916761,  -2.1756243432,   0.0000000000)
 A3 = (   0.0000000000,   0.0000000000, -35.1146643856)
 
  16 primitive cells build up your supercell.
 

 Routine SETGRP: Setting up the symmetry group for a 
 hexagonal supercell.


 Subroutine GETGRP returns: Found 12 space group operations
 (whereof 12 operations were pure point group operations)
 out of a pool of 24 trial point group operations.


The constrained configuration has the point symmetry D_3h.


Analysis of structural, dynamic, and magnetic symmetry:
=====================================================================
 Subroutine PRICEL returns following result:
 
  Warning from LATTYP: Got some problem with cell dimensions!
  Tried to take original basis but could not verify dimensions!
  LATTYP: Found a hexagonal cell.
 ALAT       =     2.5121833522
 C/A-ratio  =    13.9777474261
  
  Lattice vectors:
  
 A1 = (   2.5121833522,   0.0000000000,   0.0000000000)
 A2 = (  -1.2560916761,  -2.1756243432,   0.0000000000)
 A3 = (   0.0000000000,   0.0000000000, -35.1146643856)
 
  16 primitive cells build up your supercell.
 

 Routine SETGRP: Setting up the symmetry group for a 
 hexagonal supercell.


 Subroutine GETGRP returns: Found 12 space group operations
 (whereof 12 operations were pure point group operations)
 out of a pool of 24 trial point group operations.


The magnetic configuration has the point symmetry D_3h.


 Subroutine INISYM returns: Found 12 space group operations
 (whereof 12 operations are pure point group operations),
 and found    16 'primitive' translations

 
 
 KPOINTS: K-Point Grid                            

Automatic generation of k-mesh.
Space group operators:
 irot       det(A)        alpha          n_x          n_y          n_z        tau_x        tau_y        tau_z
    1     1.000000     0.000000     1.000000     0.000000     0.000000     0.000000     0.000000     0.000000
    2    -1.000000    60.000000     0.000000     0.000000    -1.000000     0.000000     0.000000     0.000000
    3     1.000000   120.000000     0.000000     0.000000    -1.000000     0.000000     0.000000     0.000000
    4    -1.000000   180.000000     0.000000     0.000000     1.000000     0.000000     0.000000     0.000000
    5     1.000000   120.000000     0.000000     0.000000     1.000000     0.000000     0.000000     0.000000
    6    -1.000000    60.000000     0.000000     0.000000     1.000000     0.000000     0.000000     0.000000
    7    -1.000000   180.000000     0.500002    -0.866024     0.000000     0.000000     0.000000     0.000000
    8     1.000000   180.000000     0.000000     1.000000     0.000000     0.000000     0.000000     0.000000
    9    -1.000000   180.000000    -0.500002    -0.866024     0.000000     0.000000     0.000000     0.000000
   10     1.000000   180.000000     0.866026     0.499998     0.000000     0.000000     0.000000     0.000000
   11    -1.000000   180.000000     1.000000     0.000000     0.000000     0.000000     0.000000     0.000000
   12     1.000000   180.000000     0.866026    -0.499998     0.000000     0.000000     0.000000     0.000000
 
 Subroutine IBZKPT returns following result:
 ===========================================
 
 Found      6 irreducible k-points:
 
 Following reciprocal coordinates:
            Coordinates               Weight
  0.125000  0.125000  0.000000     48.000000
  0.375000  0.125000  0.000000     96.000000
 -0.375000  0.125000  0.000000     96.000000
 -0.125000  0.125000  0.000000     48.000000
  0.375000  0.375000  0.000000     48.000000
 -0.375000  0.375000  0.000000     48.000000
 
 Following cartesian coordinates:
            Coordinates               Weight
  0.024879  0.000000  0.000000     48.000000
  0.049758 -0.014364  0.000000     96.000000
 -0.024879  0.028727  0.000000     96.000000
  0.000000  0.014364  0.000000     48.000000
  0.074636  0.000000  0.000000     48.000000
  0.000000  0.043091  0.000000     48.000000
 


--------------------------------------------------------------------------------------------------------




 Dimension of arrays:
   k-points           NKPTS =      6   k-points in BZ     NKDIM =      6   number of bands    NBANDS=     96
   number of dos      NEDOS =   1200   number of ions     NIONS =     32
   non local maximal  LDIM  =      4   non local SUM 2l+1 LMDIM =      8
   total plane-waves  NPLWV = ******
   max r-space proj   IRMAX =   6598   max aug-charges    IRDMAX=   8974
   dimension x,y,z NGX =    80 NGY =   80 NGZ =  270
   dimension x,y,z NGXF=   160 NGYF=  160 NGZF=  540
   support grid    NGXF=   160 NGYF=  160 NGZF=  540
   ions per type =              16  16
   NGX,Y,Z   is equivalent  to a cutoff of  13.24, 13.24, 12.78 a.u.
   NGXF,Y,Z  is equivalent  to a cutoff of  26.47, 26.47, 25.57 a.u.

 SYSTEM =  SiC                                     
 POSCAR =  B N                                     

 Startparameter for this run:
   NWRITE =      2    write-flag & timer
   PREC   = accura    normal or accurate (medium, high low for compatibility)
   ISTART =      0    job   : 0-new  1-cont  2-samecut
   ICHARG =      2    charge: 1-file 2-atom 10-const
   ISPIN  =      2    spin polarized calculation?
   LNONCOLLINEAR =      F non collinear calculations
   LSORBIT =      F    spin-orbit coupling
   INIWAV =      1    electr: 0-lowe 1-rand  2-diag
   LASPH  =      T    aspherical Exc in radial PAW
   METAGGA=      F    non-selfconsistent MetaGGA calc.

 Electronic Relaxation 1
   ENCUT  =  550.0 eV  40.42 Ry    6.36 a.u.  19.22 19.22 67.15*2*pi/ulx,y,z
   ENINI  =  550.0     initial cutoff
   ENAUG  =  627.1 eV  augmentation charge cutoff
   NELM   =    100;   NELMIN=  2; NELMDL= -5     # of ELM steps 
   EDIFF  = 0.1E-04   stopping-criterion for ELM
   LREAL  =      T    real-space projection
   NLSPLINE    = F    spline interpolate recip. space projectors
   LCOMPAT=      F    compatible to vasp.4.4
   GGA_COMPAT  = T    GGA compatible to vasp.4.4-vasp.4.6
   LMAXPAW     = -100 max onsite density
   LMAXMIX     =    2 max onsite mixed and CHGCAR
   VOSKOWN=      0    Vosko Wilk Nusair interpolation
   ROPT   =   -0.00025  -0.00025
 Ionic relaxation
   EDIFFG = -.2E-01   stopping-criterion for IOM
   NSW    =    500    number of steps for IOM
   NBLOCK =      1;   KBLOCK =    500    inner block; outer block 
   IBRION =      2    ionic relax: 0-MD 1-quasi-New 2-CG
   NFREE  =      1    steps in history (QN), initial steepest desc. (CG)
   ISIF   =      2    stress and relaxation
   IWAVPR =     11    prediction:  0-non 1-charg 2-wave 3-comb
   ISYM   =      2    0-nonsym 1-usesym 2-fastsym
   LCORR  =      T    Harris-Foulkes like correction to forces

   POTIM  = 0.5000    time-step for ionic-motion
   TEIN   =    0.0    initial temperature
   TEBEG  =    0.0;   TEEND  =   0.0 temperature during run
   SMASS  =  -3.00    Nose mass-parameter (am)
   estimated Nose-frequenzy (Omega)   =  0.10E-29 period in steps =****** mass=  -0.231E-26a.u.
   SCALEE = 1.0000    scale energy and forces
   NPACO  =    256;   APACO  = 16.0  distance and # of slots for P.C.
   PSTRESS=    0.0 pullay stress

  Mass of Ions in am
   POMASS =  10.81 14.00
  Ionic Valenz
   ZVAL   =   3.00  5.00
  Atomic Wigner-Seitz radii
   RWIGS  =  -1.00 -1.00
  virtual crystal weights 
   VCA    =   1.00  1.00
   NELECT =     127.0000    total number of electrons
   NUPDOWN=      -1.0000    fix difference up-down

 DOS related values:
   EMIN   =  10.00;   EMAX   =-10.00  energy-range for DOS
   EFERMI =   0.00
   ISMEAR =     0;   SIGMA  =   0.05  broadening in eV -4-tet -1-fermi 0-gaus

 Electronic relaxation 2 (details)
   IALGO  =     68    algorithm
   LDIAG  =      T    sub-space diagonalisation (order eigenvalues)
   LSUBROT=      F    optimize rotation matrix (better conditioning)
   TURBO    =      0    0=normal 1=particle mesh
   IRESTART =      0    0=no restart 2=restart with 2 vectors
   NREBOOT  =      0    no. of reboots
   NMIN     =      0    reboot dimension
   EREF     =   0.00    reference energy to select bands
   IMIX   =      4    mixing-type and parameters
     AMIX     =   0.40;   BMIX     =  1.00
     AMIX_MAG =   1.60;   BMIX_MAG =  1.00
     AMIN     =   0.10
     WC   =   100.;   INIMIX=   1;  MIXPRE=   1;  MAXMIX= -45

 Intra band minimization:
   WEIMIN = 0.0010     energy-eigenvalue tresh-hold
   EBREAK =  0.26E-07  absolut break condition
   DEPER  =   0.30     relativ break condition  

   TIME   =   0.40     timestep for ELM

  volume/ion in A,a.u.               =      95.96       647.58
  Fermi-wavevector in a.u.,A,eV,Ry     =   0.566146  1.069860  4.360951  0.320521
  Thomas-Fermi vector in A             =   1.604420
 
 Write flags
   LWAVE        =      T    write WAVECAR
   LDOWNSAMPLE  =      F    k-point downsampling of WAVECAR
   LCHARG       =      F    write CHGCAR
   LVTOT        =      F    write LOCPOT, total local potential
   LVHAR        =      T    write LOCPOT, Hartree potential only
   LELF         =      F    write electronic localiz. function (ELF)
   LORBIT       =     11    0 simple, 1 ext, 2 COOP (PROOUT), +10 PAW based schemes


 Dipole corrections
   LMONO  =      F    monopole corrections only (constant potential shift)
   LDIPOL =      F    correct potential (dipole corrections)
   IDIPOL =      0    1-x, 2-y, 3-z, 4-all directions 
   EPSILON=  1.0000000 bulk dielectric constant

 Exchange correlation treatment:
   GGA     =    --    GGA type
   LEXCH   =     8    internal setting for exchange type
   VOSKOWN=      0    Vosko Wilk Nusair interpolation
   LHFCALC =     F    Hartree Fock is set to
   LHFONE  =     F    Hartree Fock one center treatment
   AEXX    =    0.0000 exact exchange contribution

 Linear response parameters
   LEPSILON=     F    determine dielectric tensor
   LRPA    =     F    only Hartree local field effects (RPA)
   LNABLA  =     F    use nabla operator in PAW spheres
   LVEL    =     F    velocity operator in full k-point grid
   LINTERFAST=   F  fast interpolation
   KINTER  =     0    interpolate to denser k-point grid
   CSHIFT  =0.1000    complex shift for real part using Kramers Kronig
   OMEGAMAX=  -1.0    maximum frequency
   DEG_THRESHOLD= 0.2000000E-02 threshold for treating states as degnerate
   RTIME   =   -0.100 relaxation time in fs
  (WPLASMAI=    0.000 imaginary part of plasma frequency in eV, 0.658/RTIME)
   DFIELD  = 0.0000000 0.0000000 0.0000000 field for delta impulse in time
 
 Orbital magnetization related:
   ORBITALMAG=     F  switch on orbital magnetization
   LCHIMAG   =     F  perturbation theory with respect to B field
   DQ        =  0.001000  dq finite difference perturbation B field
   LLRAUG    =     F  two centre corrections for induced B field

 Solvation model:
   LSOL    =     T         switch on solvation model
   EB_K    = 78.400000     relative permittivity of the bulk solvent
   SIGMA_K =  0.600000     width of the dielectric cavity
   NC_K    =  0.002500     cutoff charge density
   TAU     =  0.000000     cavity surface tension
   LAMBDA_D_K    =  3.040000     Debye length in Angstroms
   LRHOB     =     F     write boundcharge  density
   LRHOION     =     F     write ioniccharge density



--------------------------------------------------------------------------------------------------------


 conjugate gradient relaxation of ions
   using selective dynamics as specified on POSCAR
 charge density and potential will be updated during run
 spin polarized calculation
 RMM-DIIS sequential band-by-band and
  variant of blocked Davidson during initial phase
 perform sub-space diagonalisation
    before iterative eigenvector-optimisation
 modified Broyden-mixing scheme, WC =      100.0
 initial mixing is a Kerker type mixing with AMIX =  0.4000 and BMIX =      1.0000
 Hartree-type preconditioning will be used
 using additional bands           32
 real space projection scheme for non local part
 use partial core corrections
 calculate Harris-corrections to forces 
   (improved forces if not selfconsistent)
 use gradient corrections 
 use of overlap-Matrix (Vanderbilt PP)
 Gauss-broadening in eV      SIGMA  =   0.05


--------------------------------------------------------------------------------------------------------


  energy-cutoff  :      550.00
  volume of cell :     3070.74
      direct lattice vectors                 reciprocal lattice vectors
     5.024366704 -8.702497373  0.000000000     0.099515029 -0.057454772  0.000000000
     5.024366704  8.702497373  0.000000000     0.099515029  0.057454772  0.000000000
     0.000000000  0.000000000 35.114664386     0.000000000  0.000000000  0.028478131

  length of vectors
    10.048767154 10.048767154 35.114664386     0.114909929  0.114909929  0.028478131


 
 k-points in units of 2pi/SCALE and weight: K-Point Grid                            
   0.02487876  0.00000000  0.00000000       0.125
   0.04975751 -0.01436369  0.00000000       0.250
  -0.02487876  0.02872739  0.00000000       0.250
   0.00000000  0.01436369  0.00000000       0.125
   0.07463627  0.00000000  0.00000000       0.125
   0.00000000  0.04309108  0.00000000       0.125
 
 k-points in reciprocal lattice and weights: K-Point Grid                            
   0.12500000  0.12500000  0.00000000       0.125
   0.37500000  0.12500000  0.00000000       0.250
  -0.37500000  0.12500000  0.00000000       0.250
  -0.12500000  0.12500000  0.00000000       0.125
   0.37500000  0.37500000  0.00000000       0.125
  -0.37500000  0.37500000  0.00000000       0.125
 
 position of ions in fractional coordinates (direct lattice) 
   0.16666715  0.08333385  0.50000000
   0.16666715  0.33333385  0.50000000
   0.16666715  0.58333385  0.50000000
   0.16666715  0.83333385  0.50000000
   0.41666715  0.08333385  0.50000000
   0.41666715  0.33333385  0.50000000
   0.41666715  0.58333385  0.50000000
   0.41666715  0.83333385  0.50000000
   0.66666715  0.08333385  0.50000000
   0.66666715  0.33333385  0.50000000
   0.66666715  0.58333385  0.50000000
   0.66666715  0.83333385  0.50000000
   0.91666715  0.08333385  0.50000000
   0.91666715  0.33333385  0.50000000
   0.91666715  0.58333385  0.50000000
   0.91666715  0.83333385  0.50000000
   0.08333385  0.16666715  0.50000000
   0.08333385  0.41666715  0.50000000
   0.08333385  0.66666715  0.50000000
   0.08333385  0.91666715  0.50000000
   0.33333385  0.16666715  0.50000000
   0.33333385  0.41666715  0.50000000
   0.33333385  0.66666715  0.50000000
   0.33333385  0.91666715  0.50000000
   0.58333385  0.16666715  0.50000000
   0.58333385  0.41666715  0.50000000
   0.58333385  0.66666715  0.50000000
   0.58333385  0.91666715  0.50000000
   0.83333385  0.16666715  0.50000000
   0.83333385  0.41666715  0.50000000
   0.83333385  0.66666715  0.50000000
   0.83333385  0.91666715  0.50000000
 
 position of ions in cartesian coordinates  (Angst):
   1.25609669 -0.72520776 17.55733219
   2.51218837  1.45041658 17.55733219
   3.76828004  3.62604092 17.55733219
   5.02437172  5.80166527 17.55733219
   2.51218837 -2.90083211 17.55733219
   3.76828004 -0.72520776 17.55733219
   5.02437172  1.45041658 17.55733219
   6.28046340  3.62604092 17.55733219
   3.76828004 -5.07645645 17.55733219
   5.02437172 -2.90083211 17.55733219
   6.28046340 -0.72520776 17.55733219
   7.53655507  1.45041658 17.55733219
   5.02437172 -7.25208079 17.55733219
   6.28046340 -5.07645645 17.55733219
   7.53655507 -2.90083211 17.55733219
   8.79264675 -0.72520776 17.55733219
   1.25609669  0.72520776 17.55733219
   2.51218837  2.90083211 17.55733219
   3.76828004  5.07645645 17.55733219
   5.02437172  7.25208079 17.55733219
   2.51218837 -1.45041658 17.55733219
   3.76828004  0.72520776 17.55733219
   5.02437172  2.90083211 17.55733219
   6.28046340  5.07645645 17.55733219
   3.76828004 -3.62604092 17.55733219
   5.02437172 -1.45041658 17.55733219
   6.28046340  0.72520776 17.55733219
   7.53655507  2.90083211 17.55733219
   5.02437172 -5.80166527 17.55733219
   6.28046340 -3.62604092 17.55733219
   7.53655507 -1.45041658 17.55733219
   8.79264675  0.72520776 17.55733219
 


--------------------------------------------------------------------------------------------------------


 k-point  1 :   0.1250 0.1250 0.0000  plane waves:   89921
 k-point  2 :   0.3750 0.1250 0.0000  plane waves:   89970
 k-point  3 :  -0.3750 0.1250 0.0000  plane waves:   89943
 k-point  4 :  -0.1250 0.1250 0.0000  plane waves:   89893
 k-point  5 :   0.3750 0.3750 0.0000  plane waves:   89957
 k-point  6 :  -0.3750 0.3750 0.0000  plane waves:   89980

 maximum and minimum number of plane-waves per node :      3773     3711

 maximum number of plane-waves:     89980
 maximum index in each direction: 
   IXMAX=   19   IYMAX=   19   IZMAX=   67
   IXMIN=  -19   IYMIN=  -19   IZMIN=  -67


 real space projection operators:
  total allocation   :      10086.00 KBytes
  max/ min on nodes  :        530.00        346.50


 parallel 3D FFT for wavefunctions:
    minimum data exchange during FFTs selected (reduces bandwidth)
 parallel 3D FFT for charge:
    minimum data exchange during FFTs selected (reduces bandwidth)


 total amount of memory used by VASP MPI-rank0    88820. kBytes
=======================================================================

   base      :      30000. kBytes
   nonlr-proj:       4182. kBytes
   fftplans  :       8136. kBytes
   grid      :      29091. kBytes
   one-center:         12. kBytes
   wavefun   :      17399. kBytes
 
     INWAV:  cpu time    0.0001: real time    0.0001
 Broyden mixing: mesh for mixing (old mesh)
   NGX = 39   NGY = 39   NGZ =135
  (NGX  =160   NGY  =160   NGZ  =540)
  gives a total of 205335 points

 initial charge density was supplied:
 charge density of overlapping atoms calculated
 number of electron     128.0000000 magnetization      32.0000000
 keeping initial charge density in first step


--------------------------------------------------------------------------------------------------------


 Maximum index for non-local projection operator          412
 Maximum index for augmentation-charges          371 (set IRDMAX)


--------------------------------------------------------------------------------------------------------


 First call to EWALD:  gamma=   0.122
 Maximum number of real-space cells 4x 4x 1
 Maximum number of reciprocal cells 2x 2x 6

    FEWALD:  cpu time    0.0082: real time    0.0041


--------------------------------------- Iteration      1(   1)  ---------------------------------------


    POTLOK:  cpu time    7.1057: real time    8.0587
    SETDIJ:  cpu time    0.0196: real time    0.0118
     EDDAV:  cpu time   12.9741: real time    6.5055
       DOS:  cpu time    0.0264: real time    0.0132
    --------------------------------------------
      LOOP:  cpu time   20.1260: real time   14.5893

 eigenvalue-minimisations  :  2768
 total energy-change (2. order) : 0.1244403E+04  (-0.4146283E+04)
 number of electron     128.0000000 magnetization      32.0000000
 augmentation part      128.0000000 magnetization      32.0000000

 Free energy of the ion-electron system (eV)
  ---------------------------------------------------
  alpha Z        PSCENC =        29.66604984
  Ewald energy   TEWEN  =     40912.28177946
  -Hartree energ DENC   =    -44797.23272639
  -exchange      EXHF   =         0.00000000
  -V(xc)+E(xc)   XCENC  =       510.37631511
  PAW double counting   =      3879.76930454    -3929.68670650
  entropy T*S    EENTRO =        -0.02006668
  eigenvalues    EBANDS =      -855.68743708
  atomic energy  EATOM  =      5371.30148350
  Solvation  Ediel_sol  =       123.63480352
  ---------------------------------------------------
  free energy    TOTEN  =      1244.40279931 eV

  energy without entropy =     1244.42286598  energy(sigma->0) =     1244.41283265


--------------------------------------------------------------------------------------------------------




--------------------------------------- Iteration      1(   2)  ---------------------------------------


     EDDAV:  cpu time   13.9678: real time    7.0012
       DOS:  cpu time    0.0021: real time    0.0011
    --------------------------------------------
      LOOP:  cpu time   13.9699: real time    7.0022

 eigenvalue-minimisations  :  3704
 total energy-change (2. order) :-0.1229032E+04  (-0.1103402E+04)
 number of electron     128.0000000 magnetization      32.0000000
 augmentation part      128.0000000 magnetization      32.0000000

 Free energy of the ion-electron system (eV)
  ---------------------------------------------------
  alpha Z        PSCENC =        29.66604984
  Ewald energy   TEWEN  =     40912.28177946
  -Hartree energ DENC   =    -44797.23272639
  -exchange      EXHF   =         0.00000000
  -V(xc)+E(xc)   XCENC  =       510.37631511
  PAW double counting   =      3879.76930454    -3929.68670650
  entropy T*S    EENTRO =        -0.00020142
  eigenvalues    EBANDS =     -2084.73934379
  atomic energy  EATOM  =      5371.30148350
  Solvation  Ediel_sol  =       123.63480352
  ---------------------------------------------------
  free energy    TOTEN  =        15.37075785 eV

  energy without entropy =       15.37095927  energy(sigma->0) =       15.37085856


--------------------------------------------------------------------------------------------------------




--------------------------------------- Iteration      1(   3)  ---------------------------------------


     EDDAV:  cpu time   12.0773: real time    6.0537
       DOS:  cpu time    0.0022: real time    0.0011
    --------------------------------------------
      LOOP:  cpu time   12.0794: real time    6.0547

 eigenvalue-minimisations  :  3024
 total energy-change (2. order) :-0.3487569E+03  (-0.3456457E+03)
 number of electron     128.0000000 magnetization      32.0000000
 augmentation part      128.0000000 magnetization      32.0000000

 Free energy of the ion-electron system (eV)
  ---------------------------------------------------
  alpha Z        PSCENC =        29.66604984
  Ewald energy   TEWEN  =     40912.28177946
  -Hartree energ DENC   =    -44797.23272639
  -exchange      EXHF   =         0.00000000
  -V(xc)+E(xc)   XCENC  =       510.37631511
  PAW double counting   =      3879.76930454    -3929.68670650
  entropy T*S    EENTRO =        -0.00806464
  eigenvalues    EBANDS =     -2433.48840925
  atomic energy  EATOM  =      5371.30148350
  Solvation  Ediel_sol  =       123.63480352
  ---------------------------------------------------
  free energy    TOTEN  =      -333.38617083 eV

  energy without entropy =     -333.37810618  energy(sigma->0) =     -333.38213850


--------------------------------------------------------------------------------------------------------




--------------------------------------- Iteration      1(   4)  ---------------------------------------


     EDDAV:  cpu time   12.2464: real time    6.1385
       DOS:  cpu time    0.0022: real time    0.0011
    --------------------------------------------
      LOOP:  cpu time   12.2486: real time    6.1396

 eigenvalue-minimisations  :  2872
 total energy-change (2. order) :-0.2046600E+02  (-0.2022319E+02)
 number of electron     128.0000000 magnetization      32.0000000
 augmentation part      128.0000000 magnetization      32.0000000

 Free energy of the ion-electron system (eV)
  ---------------------------------------------------
  alpha Z        PSCENC =        29.66604984
  Ewald energy   TEWEN  =     40912.28177946
  -Hartree energ DENC   =    -44797.23272639
  -exchange      EXHF   =         0.00000000
  -V(xc)+E(xc)   XCENC  =       510.37631511
  PAW double counting   =      3879.76930454    -3929.68670650
  entropy T*S    EENTRO =        -0.00509857
  eigenvalues    EBANDS =     -2453.95737935
  atomic energy  EATOM  =      5371.30148350
  Solvation  Ediel_sol  =       123.63480352
  ---------------------------------------------------
  free energy    TOTEN  =      -353.85217486 eV

  energy without entropy =     -353.84707629  energy(sigma->0) =     -353.84962557


--------------------------------------------------------------------------------------------------------




--------------------------------------- Iteration      1(   5)  ---------------------------------------


     EDDAV:  cpu time   12.0057: real time    6.0177
       DOS:  cpu time    0.0023: real time    0.0012
    CHARGE:  cpu time   10.1348: real time    8.2064
    MIXING:  cpu time    0.0652: real time    0.0654
    --------------------------------------------
      LOOP:  cpu time   22.2082: real time   14.2907

 eigenvalue-minimisations  :  2912
 total energy-change (2. order) :-0.4706513E+00  (-0.4679549E+00)
 number of electron     126.9999982 magnetization      30.4612167
 augmentation part        4.4815156 magnetization      29.7136128

 Broyden mixing:
  rms(total) = 0.39689E+01    rms(broyden)= 0.39684E+01
  rms(prec ) = 0.40286E+01
  weight for this iteration     100.00

 Free energy of the ion-electron system (eV)
  ---------------------------------------------------
  alpha Z        PSCENC =        29.66604984
  Ewald energy   TEWEN  =     40912.28177946
  -Hartree energ DENC   =    -44797.23272639
  -exchange      EXHF   =         0.00000000
  -V(xc)+E(xc)   XCENC  =       510.37631511
  PAW double counting   =      3879.76930454    -3929.68670650
  entropy T*S    EENTRO =        -0.00491246
  eigenvalues    EBANDS =     -2454.42821677
  atomic energy  EATOM  =      5371.30148350
  Solvation  Ediel_sol  =       123.63480352
  ---------------------------------------------------
  free energy    TOTEN  =      -354.32282617 eV

  energy without entropy =     -354.31791370  energy(sigma->0) =     -354.32036994


--------------------------------------------------------------------------------------------------------




--------------------------------------- Iteration      1(   6)  ---------------------------------------


    POTLOK:  cpu time    6.5745: real time    6.5899
    SETDIJ:  cpu time    0.6485: real time    0.4523
    EDDIAG:  cpu time    2.3092: real time    1.2017
  RMM-DIIS:  cpu time   12.7517: real time    6.6205
    ORTHCH:  cpu time    0.0732: real time    0.0375
       DOS:  cpu time    0.0067: real time    0.0034
    CHARGE:  cpu time   10.0629: real time    8.1698
    MIXING:  cpu time    0.0705: real time    0.0706
    --------------------------------------------
      LOOP:  cpu time   32.4973: real time   23.1458

 eigenvalue-minimisations  :  2304
 total energy-change (2. order) : 0.8251829E+02  (-0.9674078E+01)
 number of electron     126.9999985 magnetization      28.5341656
 augmentation part        4.0761021 magnetization      27.3018613

 Broyden mixing:
  rms(total) = 0.21060E+01    rms(broyden)= 0.21059E+01
  rms(prec ) = 0.21342E+01
  weight for this iteration     100.00

 eigenvalues of (default mixing * dielectric matrix)
  average eigenvalue GAMMA=   1.1080
  1.1080

 Free energy of the ion-electron system (eV)
  ---------------------------------------------------
  alpha Z        PSCENC =        29.66604984
  Ewald energy   TEWEN  =     40912.28177946
  -Hartree energ DENC   =    -44989.49701152
  -exchange      EXHF   =         0.00000000
  -V(xc)+E(xc)   XCENC  =       559.97257209
  PAW double counting   =      7070.50149285    -7123.17494786
  entropy T*S    EENTRO =        -0.00476953
  eigenvalues    EBANDS =     -2151.38663837
  atomic energy  EATOM  =      5371.30148350
  Solvation  Ediel_sol  =        48.53545836
  ---------------------------------------------------
  free energy    TOTEN  =      -271.80453118 eV

  energy without entropy =     -271.79976165  energy(sigma->0) =     -271.80214642


--------------------------------------------------------------------------------------------------------




--------------------------------------- Iteration      1(   7)  ---------------------------------------


    POTLOK:  cpu time    6.2213: real time    6.2365
    SETDIJ:  cpu time    0.6376: real time    0.4413
    EDDIAG:  cpu time    2.3087: real time    1.1978
  RMM-DIIS:  cpu time   12.8139: real time    6.6412
    ORTHCH:  cpu time    0.0727: real time    0.0371
       DOS:  cpu time    0.0061: real time    0.0031
    CHARGE:  cpu time   10.0776: real time    8.1789
    MIXING:  cpu time    0.0589: real time    0.0590
    --------------------------------------------
      LOOP:  cpu time   32.1968: real time   22.7949

 eigenvalue-minimisations  :  2304
 total energy-change (2. order) :-0.1419422E+02  (-0.3224336E+01)
 number of electron     126.9999987 magnetization      27.0270134
 augmentation part        3.6857459 magnetization      25.7576160

 Broyden mixing:
  rms(total) = 0.14085E+01    rms(broyden)= 0.14084E+01
  rms(prec ) = 0.14176E+01
  weight for this iteration     100.00

 eigenvalues of (default mixing * dielectric matrix)
  average eigenvalue GAMMA=   1.0702
  0.8039  1.3364

 Free energy of the ion-electron system (eV)
  ---------------------------------------------------
  alpha Z        PSCENC =        29.66604984
  Ewald energy   TEWEN  =     40912.28177946
  -Hartree energ DENC   =    -45107.77883404
  -exchange      EXHF   =         0.00000000
  -V(xc)+E(xc)   XCENC  =       559.78830203
  PAW double counting   =     10868.36226286   -10923.30997381
  entropy T*S    EENTRO =        -0.00636958
  eigenvalues    EBANDS =     -1943.35579735
  atomic energy  EATOM  =      5371.30148350
  Solvation  Ediel_sol  =       -52.94765075
  ---------------------------------------------------
  free energy    TOTEN  =      -285.99874784 eV

  energy without entropy =     -285.99237826  energy(sigma->0) =     -285.99556305


--------------------------------------------------------------------------------------------------------




--------------------------------------- Iteration      1(   8)  ---------------------------------------


    POTLOK:  cpu time    6.2082: real time    6.2232
    SETDIJ:  cpu time    0.6468: real time    0.4506
    EDDIAG:  cpu time    2.2937: real time    1.1902
  RMM-DIIS:  cpu time   12.7163: real time    6.6073
    ORTHCH:  cpu time    0.0733: real time    0.0374
       DOS:  cpu time    0.0057: real time    0.0029
    CHARGE:  cpu time   10.1595: real time    8.2193
    MIXING:  cpu time    0.0221: real time    0.0221
    --------------------------------------------
      LOOP:  cpu time   32.1255: real time   22.7530

 eigenvalue-minimisations  :  2304
 total energy-change (2. order) :-0.1130779E+01  (-0.3891515E+00)
 number of electron     126.9999987 magnetization      24.0287991
 augmentation part        3.6471876 magnetization      22.7463572

 Broyden mixing:
  rms(total) = 0.10406E+01    rms(broyden)= 0.10406E+01
  rms(prec ) = 0.10464E+01
  weight for this iteration     100.00

 eigenvalues of (default mixing * dielectric matrix)
  average eigenvalue GAMMA=   1.3230
  1.9100  1.3480  0.7110

 Free energy of the ion-electron system (eV)
  ---------------------------------------------------
  alpha Z        PSCENC =        29.66604984
  Ewald energy   TEWEN  =     40912.28177946
  -Hartree energ DENC   =    -45108.24676923
  -exchange      EXHF   =         0.00000000
  -V(xc)+E(xc)   XCENC  =       560.62416463
  PAW double counting   =     12888.67099452   -12944.33904961
  entropy T*S    EENTRO =        -0.00447052
  eigenvalues    EBANDS =     -1877.07880342
  atomic energy  EATOM  =      5371.30148350
  Solvation  Ediel_sol  =      -120.00490647
  ---------------------------------------------------
  free energy    TOTEN  =      -287.12952732 eV

  energy without entropy =     -287.12505679  energy(sigma->0) =     -287.12729205


--------------------------------------------------------------------------------------------------------




--------------------------------------- Iteration      1(   9)  ---------------------------------------


    POTLOK:  cpu time    6.4790: real time    6.4933
    SETDIJ:  cpu time    0.6565: real time    0.4603
    EDDIAG:  cpu time    2.2948: real time    1.1908
  RMM-DIIS:  cpu time   12.7261: real time    6.6095
    ORTHCH:  cpu time    0.0732: real time    0.0373
       DOS:  cpu time    0.0636: real time    0.0319
    CHARGE:  cpu time   10.0561: real time    8.1661
    MIXING:  cpu time    0.0633: real time    0.0634
    --------------------------------------------
      LOOP:  cpu time   32.4127: real time   23.0528

 eigenvalue-minimisations  :  2304
 total energy-change (2. order) :-0.1557148E+02  (-0.9163879E+00)
 number of electron     126.9999987 magnetization      22.6216580
 augmentation part        3.6868837 magnetization      21.5508316

 Broyden mixing:
  rms(total) = 0.68210E+00    rms(broyden)= 0.68207E+00
  rms(prec ) = 0.68494E+00
  weight for this iteration     100.00

 eigenvalues of (default mixing * dielectric matrix)
  average eigenvalue GAMMA=   1.3745
  2.6710  1.4094  0.7901  0.6273

 Free energy of the ion-electron system (eV)
  ---------------------------------------------------
  alpha Z        PSCENC =        29.66604984
  Ewald energy   TEWEN  =     40912.28177946
  -Hartree energ DENC   =    -45078.08550672
  -exchange      EXHF   =         0.00000000
  -V(xc)+E(xc)   XCENC  =       552.08208951
  PAW double counting   =     15680.79449259   -15737.28511460
  entropy T*S    EENTRO =        -0.00661818
  eigenvalues    EBANDS =     -1795.61369216
  atomic energy  EATOM  =      5371.30148350
  Solvation  Ediel_sol  =      -237.83597018
  ---------------------------------------------------
  free energy    TOTEN  =      -302.70100695 eV

  energy without entropy =     -302.69438877  energy(sigma->0) =     -302.69769786


--------------------------------------------------------------------------------------------------------




--------------------------------------- Iteration      1(  10)  ---------------------------------------


    POTLOK:  cpu time    6.2924: real time    6.3073
    SETDIJ:  cpu time    0.6403: real time    0.4441
    EDDIAG:  cpu time    2.2968: real time    1.1922
  RMM-DIIS:  cpu time   12.7535: real time    6.6299
    ORTHCH:  cpu time    0.0717: real time    0.0365
       DOS:  cpu time    0.0049: real time    0.0024
    CHARGE:  cpu time   10.1078: real time    8.1901
    MIXING:  cpu time    0.0404: real time    0.0405
    --------------------------------------------
      LOOP:  cpu time   32.2079: real time   22.8431

 eigenvalue-minimisations  :  2307
 total energy-change (2. order) :-0.5431213E+01  (-0.2401703E+00)
 number of electron     126.9999987 magnetization      19.9965329
 augmentation part        3.6625209 magnetization      19.1022871

 Broyden mixing:
  rms(total) = 0.58988E+00    rms(broyden)= 0.58986E+00
  rms(prec ) = 0.59240E+00
  weight for this iteration     100.00

 eigenvalues of (default mixing * dielectric matrix)
  average eigenvalue GAMMA=   1.2805
  2.6256  1.4517  0.8558  0.8558  0.6136

 Free energy of the ion-electron system (eV)
  ---------------------------------------------------
  alpha Z        PSCENC =        29.66604984
  Ewald energy   TEWEN  =     40912.28177946
  -Hartree energ DENC   =    -45065.87887777
  -exchange      EXHF   =         0.00000000
  -V(xc)+E(xc)   XCENC  =       549.10164225
  PAW double counting   =     16208.74521426   -16265.49638432
  entropy T*S    EENTRO =        -0.00723386
  eigenvalues    EBANDS =     -1769.75484464
  atomic energy  EATOM  =      5371.30148350
  Solvation  Ediel_sol  =      -278.09104826
  ---------------------------------------------------
  free energy    TOTEN  =      -308.13221954 eV

  energy without entropy =     -308.12498568  energy(sigma->0) =     -308.12860261


--------------------------------------------------------------------------------------------------------




--------------------------------------- Iteration      1(  11)  ---------------------------------------


    POTLOK:  cpu time    6.2790: real time    6.2943
    SETDIJ:  cpu time    0.6408: real time    0.4446
    EDDIAG:  cpu time    2.3037: real time    1.1957
  RMM-DIIS:  cpu time   13.0820: real time    7.8528
    ORTHCH:  cpu time    0.0754: real time    0.0378
       DOS:  cpu time    0.0053: real time    0.0027
    CHARGE:  cpu time   10.0639: real time    8.1713
    MIXING:  cpu time    0.0658: real time    0.0660
    --------------------------------------------
      LOOP:  cpu time   32.5159: real time   24.0652

 eigenvalue-minimisations  :  2304
 total energy-change (2. order) :-0.5468213E+01  (-0.3915146E+00)
 number of electron     126.9999988 magnetization      14.0853333
 augmentation part        3.5978155 magnetization      13.4656191

 Broyden mixing:
  rms(total) = 0.48003E+00    rms(broyden)= 0.48001E+00
  rms(prec ) = 0.48204E+00
  weight for this iteration     100.00

 eigenvalues of (default mixing * dielectric matrix)
  average eigenvalue GAMMA=   1.7486
  4.4215  2.5345  1.3596  0.7877  0.7877  0.6003

 Free energy of the ion-electron system (eV)
  ---------------------------------------------------
  alpha Z        PSCENC =        29.66604984
  Ewald energy   TEWEN  =     40912.28177946
  -Hartree energ DENC   =    -45025.75031375
  -exchange      EXHF   =         0.00000000
  -V(xc)+E(xc)   XCENC  =       545.65541392
  PAW double counting   =     15840.22575430   -15896.72360616
  entropy T*S    EENTRO =        -0.00939600
  eigenvalues    EBANDS =     -1768.47176909
  atomic energy  EATOM  =      5371.30148350
  Solvation  Ediel_sol  =      -321.77582840
  ---------------------------------------------------
  free energy    TOTEN  =      -313.60043239 eV

  energy without entropy =     -313.59103639  energy(sigma->0) =     -313.59573439


--------------------------------------------------------------------------------------------------------




--------------------------------------- Iteration      1(  12)  ---------------------------------------


    POTLOK:  cpu time    6.4122: real time    6.4283
    SETDIJ:  cpu time    0.6261: real time    0.4299
    EDDIAG:  cpu time    2.2935: real time    1.1903
  RMM-DIIS:  cpu time   12.7710: real time    6.6402
    ORTHCH:  cpu time    0.0741: real time    0.0374
       DOS:  cpu time    0.0073: real time    0.0037
    CHARGE:  cpu time   10.0854: real time    8.1898
    MIXING:  cpu time    0.0604: real time    0.0605
    --------------------------------------------
      LOOP:  cpu time   32.3299: real time   22.9801

 eigenvalue-minimisations  :  2304
 total energy-change (2. order) :-0.4935165E+01  (-0.4988034E+00)
 number of electron     126.9999988 magnetization      11.9715471
 augmentation part        3.5879265 magnetization      11.7663456

 Broyden mixing:
  rms(total) = 0.32031E+00    rms(broyden)= 0.32030E+00
  rms(prec ) = 0.32234E+00
  weight for this iteration     100.00

 eigenvalues of (default mixing * dielectric matrix)
  average eigenvalue GAMMA=   1.8429
  5.8912  2.3100  1.4434  0.9620  0.9620  0.7253  0.6062

 Free energy of the ion-electron system (eV)
  ---------------------------------------------------
  alpha Z        PSCENC =        29.66604984
  Ewald energy   TEWEN  =     40912.28177946
  -Hartree energ DENC   =    -44916.96018850
  -exchange      EXHF   =         0.00000000
  -V(xc)+E(xc)   XCENC  =       540.54445328
  PAW double counting   =     15422.77021238   -15478.76439057
  entropy T*S    EENTRO =        -0.00896646
  eigenvalues    EBANDS =     -1788.46760948
  atomic energy  EATOM  =      5371.30148350
  Solvation  Ediel_sol  =      -410.89842039
  ---------------------------------------------------
  free energy    TOTEN  =      -318.53559695 eV

  energy without entropy =     -318.52663049  energy(sigma->0) =     -318.53111372


--------------------------------------------------------------------------------------------------------




--------------------------------------- Iteration      1(  13)  ---------------------------------------


    POTLOK:  cpu time    6.2278: real time    6.2431
    SETDIJ:  cpu time    0.6236: real time    0.4273
    EDDIAG:  cpu time    2.3027: real time    1.1952
  RMM-DIIS:  cpu time   12.7965: real time    6.6046
    ORTHCH:  cpu time    0.0727: real time    0.0371
       DOS:  cpu time    0.0066: real time    0.0033
    CHARGE:  cpu time   10.0582: real time    8.1684
    MIXING:  cpu time    0.0666: real time    0.0667
    --------------------------------------------
      LOOP:  cpu time   32.1547: real time   22.7458

 eigenvalue-minimisations  :  2304
 total energy-change (2. order) : 0.2937652E+00  (-0.7082160E-01)
 number of electron     126.9999988 magnetization       9.5935713
 augmentation part        3.6170407 magnetization       9.5342735

 Broyden mixing:
  rms(total) = 0.24758E+00    rms(broyden)= 0.24758E+00
  rms(prec ) = 0.24815E+00
  weight for this iteration     100.00

 eigenvalues of (default mixing * dielectric matrix)
  average eigenvalue GAMMA=   2.0027
  7.8247  2.3773  1.4413  1.4413  0.8285  0.8285  0.6188  0.6614

 Free energy of the ion-electron system (eV)
  ---------------------------------------------------
  alpha Z        PSCENC =        29.66604984
  Ewald energy   TEWEN  =     40912.28177946
  -Hartree energ DENC   =    -44884.27673651
  -exchange      EXHF   =         0.00000000
  -V(xc)+E(xc)   XCENC  =       540.58209424
  PAW double counting   =     15643.62637907   -15699.75904487
  entropy T*S    EENTRO =        -0.00994981
  eigenvalues    EBANDS =     -1799.19587534
  atomic energy  EATOM  =      5371.30148350
  Solvation  Ediel_sol  =      -432.45801135
  ---------------------------------------------------
  free energy    TOTEN  =      -318.24183178 eV

  energy without entropy =     -318.23188197  energy(sigma->0) =     -318.23685688


--------------------------------------------------------------------------------------------------------




--------------------------------------- Iteration      1(  14)  ---------------------------------------


    POTLOK:  cpu time    6.2542: real time    6.2839
    SETDIJ:  cpu time    0.6485: real time    0.4523
    EDDIAG:  cpu time    2.2972: real time    1.1925
  RMM-DIIS:  cpu time   12.8801: real time    6.6151
    ORTHCH:  cpu time    0.0758: real time    0.0386
       DOS:  cpu time    0.0049: real time    0.0025
    CHARGE:  cpu time   10.0747: real time    8.1771
    MIXING:  cpu time    0.0743: real time    0.0744
    --------------------------------------------
      LOOP:  cpu time   32.3097: real time   22.8364

 eigenvalue-minimisations  :  2304
 total energy-change (2. order) : 0.1379326E+01  (-0.3493963E-01)
 number of electron     126.9999988 magnetization       6.8647249
 augmentation part        3.6381011 magnetization       6.9676552

 Broyden mixing:
  rms(total) = 0.20872E+00    rms(broyden)= 0.20872E+00
  rms(prec ) = 0.20950E+00
  weight for this iteration     100.00

 eigenvalues of (default mixing * dielectric matrix)
  average eigenvalue GAMMA=   2.1429
  9.3178  2.5724  2.0380  1.3065  1.0109  1.0109  0.7695  0.6299  0.6299

 Free energy of the ion-electron system (eV)
  ---------------------------------------------------
  alpha Z        PSCENC =        29.66604984
  Ewald energy   TEWEN  =     40912.28177946
  -Hartree energ DENC   =    -44849.75038875
  -exchange      EXHF   =         0.00000000
  -V(xc)+E(xc)   XCENC  =       541.54892098
  PAW double counting   =     15488.77881274   -15544.99163562
  entropy T*S    EENTRO =        -0.00912462
  eigenvalues    EBANDS =     -1819.38123820
  atomic energy  EATOM  =      5371.30148350
  Solvation  Ediel_sol  =      -446.30716487
  ---------------------------------------------------
  free energy    TOTEN  =      -316.86250556 eV

  energy without entropy =     -316.85338093  energy(sigma->0) =     -316.85794324


--------------------------------------------------------------------------------------------------------




--------------------------------------- Iteration      1(  15)  ---------------------------------------


    POTLOK:  cpu time    6.2669: real time    6.2821
    SETDIJ:  cpu time    0.6545: real time    0.4583
    EDDIAG:  cpu time    2.3004: real time    1.1951
  RMM-DIIS:  cpu time   12.7131: real time    6.6086
    ORTHCH:  cpu time    0.0726: real time    0.0371
       DOS:  cpu time    0.0054: real time    0.0027
    CHARGE:  cpu time   10.0632: real time    8.1697
    MIXING:  cpu time    0.0802: real time    0.0804
    --------------------------------------------
      LOOP:  cpu time   32.1562: real time   22.8340

 eigenvalue-minimisations  :  2304
 total energy-change (2. order) : 0.2319869E+01  (-0.2162656E-01)
 number of electron     126.9999988 magnetization       5.0740543
 augmentation part        3.6198232 magnetization       5.2684447

 Broyden mixing:
  rms(total) = 0.15055E+00    rms(broyden)= 0.15055E+00
  rms(prec ) = 0.15082E+00
  weight for this iteration     100.00

 eigenvalues of (default mixing * dielectric matrix)
  average eigenvalue GAMMA=   2.2425
 10.4961  3.2034  2.3892  1.2872  1.2872  0.9017  0.9017  0.7085  0.6248  0.6248

 Free energy of the ion-electron system (eV)
  ---------------------------------------------------
  alpha Z        PSCENC =        29.66604984
  Ewald energy   TEWEN  =     40912.28177946
  -Hartree energ DENC   =    -44826.98888152
  -exchange      EXHF   =         0.00000000
  -V(xc)+E(xc)   XCENC  =       543.79469089
  PAW double counting   =     15337.20023625   -15393.51195829
  entropy T*S    EENTRO =        -0.00810220
  eigenvalues    EBANDS =     -1832.66240649
  atomic energy  EATOM  =      5371.30148350
  Solvation  Ediel_sol  =      -455.61552818
  ---------------------------------------------------
  free energy    TOTEN  =      -314.54263676 eV

  energy without entropy =     -314.53453456  energy(sigma->0) =     -314.53858566


--------------------------------------------------------------------------------------------------------




--------------------------------------- Iteration      1(  16)  ---------------------------------------


    POTLOK:  cpu time    6.1349: real time    6.1617
    SETDIJ:  cpu time    0.6007: real time    0.4044
    EDDIAG:  cpu time    2.3013: real time    1.1951
  RMM-DIIS:  cpu time   12.8296: real time    6.6241
    ORTHCH:  cpu time    0.0723: real time    0.0368
       DOS:  cpu time    0.0083: real time    0.0042
    CHARGE:  cpu time   10.0612: real time    8.1722
    MIXING:  cpu time    0.0746: real time    0.0748
    --------------------------------------------
      LOOP:  cpu time   32.0830: real time   22.6732

 eigenvalue-minimisations  :  2304
 total energy-change (2. order) : 0.1970685E+01  (-0.9402802E-02)
 number of electron     126.9999988 magnetization       2.9527470
 augmentation part        3.6047082 magnetization       3.1180735

 Broyden mixing:
  rms(total) = 0.12580E+00    rms(broyden)= 0.12580E+00
  rms(prec ) = 0.12644E+00
  weight for this iteration     100.00

 eigenvalues of (default mixing * dielectric matrix)
  average eigenvalue GAMMA=   2.5177
 12.3196  4.8744  2.3789  2.0924  1.0444  1.0444  1.0643  0.9200  0.7179  0.6191
  0.6191

 Free energy of the ion-electron system (eV)
  ---------------------------------------------------
  alpha Z        PSCENC =        29.66604984
  Ewald energy   TEWEN  =     40912.28177946
  -Hartree energ DENC   =    -44823.76957068
  -exchange      EXHF   =         0.00000000
  -V(xc)+E(xc)   XCENC  =       545.82938520
  PAW double counting   =     15403.29250768   -15459.66895387
  entropy T*S    EENTRO =        -0.00844656
  eigenvalues    EBANDS =     -1833.76999218
  atomic energy  EATOM  =      5371.30148350
  Solvation  Ediel_sol  =      -457.72619393
  ---------------------------------------------------
  free energy    TOTEN  =      -312.57195152 eV

  energy without entropy =     -312.56350496  energy(sigma->0) =     -312.56772824


--------------------------------------------------------------------------------------------------------




--------------------------------------- Iteration      1(  17)  ---------------------------------------


    POTLOK:  cpu time    6.0350: real time    6.0539
    SETDIJ:  cpu time    0.5672: real time    0.3708
    EDDIAG:  cpu time    2.2990: real time    1.1931
  RMM-DIIS:  cpu time   12.7809: real time    6.6018
    ORTHCH:  cpu time    0.0771: real time    0.0403
       DOS:  cpu time    0.0045: real time    0.0023
    CHARGE:  cpu time   10.0801: real time    8.1815
    MIXING:  cpu time    0.0668: real time    0.0669
    --------------------------------------------
      LOOP:  cpu time   31.9105: real time   22.5106

 eigenvalue-minimisations  :  2304
 total energy-change (2. order) : 0.2438368E+01  (-0.4476993E-02)
 number of electron     126.9999988 magnetization       1.9636470
 augmentation part        3.6151173 magnetization       2.0111288

 Broyden mixing:
  rms(total) = 0.74860E-01    rms(broyden)= 0.74849E-01
  rms(prec ) = 0.75283E-01
  weight for this iteration     100.00

 eigenvalues of (default mixing * dielectric matrix)
  average eigenvalue GAMMA=   2.6545
 13.7561  6.1115  2.4123  2.4123  1.2353  1.2353  0.9412  0.9412  0.8521  0.7150
  0.6208  0.6208

 Free energy of the ion-electron system (eV)
  ---------------------------------------------------
  alpha Z        PSCENC =        29.66604984
  Ewald energy   TEWEN  =     40912.28177946
  -Hartree energ DENC   =    -44822.03633535
  -exchange      EXHF   =         0.00000000
  -V(xc)+E(xc)   XCENC  =       548.06119929
  PAW double counting   =     15538.10570167   -15594.45354657
  entropy T*S    EENTRO =        -0.00979683
  eigenvalues    EBANDS =     -1833.68048766
  atomic energy  EATOM  =      5371.30148350
  Solvation  Ediel_sol  =      -459.36963077
  ---------------------------------------------------
  free energy    TOTEN  =      -310.13358342 eV

  energy without entropy =     -310.12378659  energy(sigma->0) =     -310.12868501


--------------------------------------------------------------------------------------------------------




--------------------------------------- Iteration      1(  18)  ---------------------------------------


    POTLOK:  cpu time    6.1380: real time    6.1530
    SETDIJ:  cpu time    0.6214: real time    0.4252
    EDDIAG:  cpu time    2.2932: real time    1.1900
  RMM-DIIS:  cpu time   12.6904: real time    6.5907
    ORTHCH:  cpu time    0.0770: real time    0.0388
       DOS:  cpu time    0.0100: real time    0.0050
    CHARGE:  cpu time   10.1206: real time    8.2009
    MIXING:  cpu time    0.0527: real time    0.0528
    --------------------------------------------
      LOOP:  cpu time   32.0034: real time   22.6564

 eigenvalue-minimisations  :  2311
 total energy-change (2. order) : 0.1147900E+01  (-0.3835943E-02)
 number of electron     126.9999988 magnetization       1.1837582
 augmentation part        3.6269738 magnetization       1.1559508

 Broyden mixing:
  rms(total) = 0.67317E-01    rms(broyden)= 0.67308E-01
  rms(prec ) = 0.67813E-01
  weight for this iteration     100.00

 eigenvalues of (default mixing * dielectric matrix)
  average eigenvalue GAMMA=   2.7009
 14.6277  6.8581  2.5681  2.5681  1.6377  1.0626  1.0626  1.0738  0.9661  0.7154
  0.7154  0.6162  0.6406

 Free energy of the ion-electron system (eV)
  ---------------------------------------------------
  alpha Z        PSCENC =        29.66604984
  Ewald energy   TEWEN  =     40912.28177946
  -Hartree energ DENC   =    -44827.06461726
  -exchange      EXHF   =         0.00000000
  -V(xc)+E(xc)   XCENC  =       549.25212183
  PAW double counting   =     15579.23225944   -15635.53876981
  entropy T*S    EENTRO =        -0.00993637
  eigenvalues    EBANDS =     -1829.00765024
  atomic energy  EATOM  =      5371.30148350
  Solvation  Ediel_sol  =      -459.09840334
  ---------------------------------------------------
  free energy    TOTEN  =      -308.98568295 eV

  energy without entropy =     -308.97574659  energy(sigma->0) =     -308.98071477


--------------------------------------------------------------------------------------------------------




--------------------------------------- Iteration      1(  19)  ---------------------------------------


    POTLOK:  cpu time    6.1168: real time    6.1318
    SETDIJ:  cpu time    0.6352: real time    0.4390
    EDDIAG:  cpu time    2.2937: real time    1.1904
  RMM-DIIS:  cpu time   17.6603: real time    9.1601
    ORTHCH:  cpu time    0.0732: real time    0.0370
       DOS:  cpu time    0.0065: real time    0.0033
    CHARGE:  cpu time   10.0621: real time    8.1693
    MIXING:  cpu time    0.0846: real time    0.0847
    --------------------------------------------
      LOOP:  cpu time   36.9323: real time   25.2156

 eigenvalue-minimisations  :  3488
 total energy-change (2. order) : 0.6072717E+00  (-0.4143326E-02)
 number of electron     126.9999988 magnetization       0.4824516
 augmentation part        3.6213355 magnetization       0.4439846

 Broyden mixing:
  rms(total) = 0.38723E-01    rms(broyden)= 0.38719E-01
  rms(prec ) = 0.38882E-01
  weight for this iteration     100.00

 eigenvalues of (default mixing * dielectric matrix)
  average eigenvalue GAMMA=   2.7851
 15.6356  7.5633  3.2896  2.6099  2.1090  1.1739  1.1739  0.9723  0.9723  0.8595
  0.6894  0.6894  0.6180  0.6352

 Free energy of the ion-electron system (eV)
  ---------------------------------------------------
  alpha Z        PSCENC =        29.66604984
  Ewald energy   TEWEN  =     40912.28177946
  -Hartree energ DENC   =    -44836.41343839
  -exchange      EXHF   =         0.00000000
  -V(xc)+E(xc)   XCENC  =       550.05170111
  PAW double counting   =     15516.34817140   -15572.63096643
  entropy T*S    EENTRO =        -0.00988872
  eigenvalues    EBANDS =     -1823.25403618
  atomic energy  EATOM  =      5371.30148350
  Solvation  Ediel_sol  =      -455.71926685
  ---------------------------------------------------
  free energy    TOTEN  =      -308.37841126 eV

  energy without entropy =     -308.36852254  energy(sigma->0) =     -308.37346690


--------------------------------------------------------------------------------------------------------




--------------------------------------- Iteration      1(  20)  ---------------------------------------


    POTLOK:  cpu time    5.8783: real time    5.8954
    SETDIJ:  cpu time    0.6385: real time    0.4422
    EDDIAG:  cpu time    2.2955: real time    1.1911
  RMM-DIIS:  cpu time   16.8018: real time    8.7784
    ORTHCH:  cpu time    0.0714: real time    0.0367
       DOS:  cpu time    0.0060: real time    0.0030
    CHARGE:  cpu time   10.0911: real time    8.1950
    MIXING:  cpu time    0.0757: real time    0.0759
    --------------------------------------------
      LOOP:  cpu time   35.8583: real time   24.6177

 eigenvalue-minimisations  :  3291
 total energy-change (2. order) : 0.6109361E+00  (-0.6620612E-02)
 number of electron     126.9999988 magnetization       0.1510008
 augmentation part        3.6140416 magnetization       0.1264485

 Broyden mixing:
  rms(total) = 0.30319E-01    rms(broyden)= 0.30317E-01
  rms(prec ) = 0.30686E-01
  weight for this iteration     100.00

 eigenvalues of (default mixing * dielectric matrix)
  average eigenvalue GAMMA=   2.9866
 17.5224  8.8585  4.6984  2.4156  2.4156  1.3295  1.0954  1.0954  1.0049  1.0049
  0.7561  0.6860  0.6860  0.6150  0.6150

 Free energy of the ion-electron system (eV)
  ---------------------------------------------------
  alpha Z        PSCENC =        29.66604984
  Ewald energy   TEWEN  =     40912.28177946
  -Hartree energ DENC   =    -44844.61287699
  -exchange      EXHF   =         0.00000000
  -V(xc)+E(xc)   XCENC  =       550.71559487
  PAW double counting   =     15464.30906000   -15520.59279976
  entropy T*S    EENTRO =        -0.00990972
  eigenvalues    EBANDS =     -1819.81787258
  atomic energy  EATOM  =      5371.30148350
  Solvation  Ediel_sol  =      -451.00798380
  ---------------------------------------------------
  free energy    TOTEN  =      -307.76747517 eV

  energy without entropy =     -307.75756545  energy(sigma->0) =     -307.76252031


--------------------------------------------------------------------------------------------------------




--------------------------------------- Iteration      1(  21)  ---------------------------------------


    POTLOK:  cpu time    5.6407: real time    5.6566
    SETDIJ:  cpu time    0.5881: real time    0.3917
    EDDIAG:  cpu time    2.2933: real time    1.1900
  RMM-DIIS:  cpu time   15.8730: real time    8.1208
    ORTHCH:  cpu time    0.0714: real time    0.0368
       DOS:  cpu time    0.0115: real time    0.0057
    CHARGE:  cpu time   10.1119: real time    8.2119
    MIXING:  cpu time    0.0819: real time    0.0821
    --------------------------------------------
      LOOP:  cpu time   34.6716: real time   23.6957

 eigenvalue-minimisations  :  3057
 total energy-change (2. order) : 0.3627985E+00  (-0.5898610E-02)
 number of electron     126.9999988 magnetization       0.0848608
 augmentation part        3.6157801 magnetization       0.0619419

 Broyden mixing:
  rms(total) = 0.16152E-01    rms(broyden)= 0.16151E-01
  rms(prec ) = 0.16414E-01
  weight for this iteration     100.00

 eigenvalues of (default mixing * dielectric matrix)
  average eigenvalue GAMMA=   3.0129
 18.5132  9.5529  5.0305  2.4459  2.4459  1.6602  1.1508  1.1508  1.0801  0.8919
  0.8919  0.7789  0.7323  0.6406  0.6202  0.6202

 Free energy of the ion-electron system (eV)
  ---------------------------------------------------
  alpha Z        PSCENC =        29.66604984
  Ewald energy   TEWEN  =     40912.28177946
  -Hartree energ DENC   =    -44847.90185379
  -exchange      EXHF   =         0.00000000
  -V(xc)+E(xc)   XCENC  =       551.02757441
  PAW double counting   =     15477.16121089   -15533.45853873
  entropy T*S    EENTRO =        -0.00991546
  eigenvalues    EBANDS =     -1820.06700335
  atomic energy  EATOM  =      5371.30148350
  Solvation  Ediel_sol  =      -447.40546342
  ---------------------------------------------------
  free energy    TOTEN  =      -307.40467665 eV

  energy without entropy =     -307.39476119  energy(sigma->0) =     -307.39971892


--------------------------------------------------------------------------------------------------------




--------------------------------------- Iteration      1(  22)  ---------------------------------------


    POTLOK:  cpu time    5.8369: real time    5.8540
    SETDIJ:  cpu time    0.6332: real time    0.4369
    EDDIAG:  cpu time    2.3427: real time    1.2148
  RMM-DIIS:  cpu time   14.1815: real time    7.3595
    ORTHCH:  cpu time    0.0736: real time    0.0372
       DOS:  cpu time    0.0156: real time    0.0078
    CHARGE:  cpu time   10.1386: real time    8.2140
    MIXING:  cpu time    0.0790: real time    0.0792
    --------------------------------------------
      LOOP:  cpu time   33.3009: real time   23.2034

 eigenvalue-minimisations  :  2660
 total energy-change (2. order) : 0.1113309E+00  (-0.4047743E-02)
 number of electron     126.9999988 magnetization       0.0484632
 augmentation part        3.6183978 magnetization       0.0189013

 Broyden mixing:
  rms(total) = 0.61180E-02    rms(broyden)= 0.61163E-02
  rms(prec ) = 0.63139E-02
  weight for this iteration     100.00

 eigenvalues of (default mixing * dielectric matrix)
  average eigenvalue GAMMA=   3.0627
 19.5606 10.1621  5.4631  2.5672  2.5672  2.1745  1.2702  1.1440  1.1440  0.9352
  0.9352  0.8305  0.7246  0.7123  0.6153  0.6298  0.6298

 Free energy of the ion-electron system (eV)
  ---------------------------------------------------
  alpha Z        PSCENC =        29.66604984
  Ewald energy   TEWEN  =     40912.28177946
  -Hartree energ DENC   =    -44848.77235261
  -exchange      EXHF   =         0.00000000
  -V(xc)+E(xc)   XCENC  =       551.12589652
  PAW double counting   =     15500.32369440   -15556.62975585
  entropy T*S    EENTRO =        -0.00990295
  eigenvalues    EBANDS =     -1821.94965170
  atomic energy  EATOM  =      5371.30148350
  Solvation  Ediel_sol  =      -444.63058641
  ---------------------------------------------------
  free energy    TOTEN  =      -307.29334580 eV

  energy without entropy =     -307.28344284  energy(sigma->0) =     -307.28839432


--------------------------------------------------------------------------------------------------------




--------------------------------------- Iteration      1(  23)  ---------------------------------------


    POTLOK:  cpu time    5.7089: real time    5.7235
    SETDIJ:  cpu time    0.6664: real time    0.4702
    EDDIAG:  cpu time    2.2930: real time    1.1900
  RMM-DIIS:  cpu time   12.9044: real time    6.6238
    ORTHCH:  cpu time    0.0727: real time    0.0371
       DOS:  cpu time    0.0071: real time    0.0036
    CHARGE:  cpu time   10.0923: real time    8.1873
    MIXING:  cpu time    0.0816: real time    0.0818
    --------------------------------------------
      LOOP:  cpu time   31.8264: real time   22.3173

 eigenvalue-minimisations  :  2318
 total energy-change (2. order) : 0.2308321E-01  (-0.1443431E-02)
 number of electron     126.9999988 magnetization       0.0375250
 augmentation part        3.6184412 magnetization       0.0079464

 Broyden mixing:
  rms(total) = 0.26380E-02    rms(broyden)= 0.26368E-02
  rms(prec ) = 0.27880E-02
  weight for this iteration     100.00

 eigenvalues of (default mixing * dielectric matrix)
  average eigenvalue GAMMA=   3.0173
 19.8797 10.3660  5.6203  2.8659  2.4355  2.4355  1.4028  1.1548  1.1548  1.0270
  0.8996  0.8996  0.8870  0.7295  0.6880  0.6267  0.6267  0.6126

 Free energy of the ion-electron system (eV)
  ---------------------------------------------------
  alpha Z        PSCENC =        29.66604984
  Ewald energy   TEWEN  =     40912.28177946
  -Hartree energ DENC   =    -44849.00881196
  -exchange      EXHF   =         0.00000000
  -V(xc)+E(xc)   XCENC  =       551.15000572
  PAW double counting   =     15499.11178577   -15555.41624549
  entropy T*S    EENTRO =        -0.00990210
  eigenvalues    EBANDS =     -1823.35709274
  atomic energy  EATOM  =      5371.30148350
  Solvation  Ediel_sol  =      -442.98931459
  ---------------------------------------------------
  free energy    TOTEN  =      -307.27026258 eV

  energy without entropy =     -307.26036048  energy(sigma->0) =     -307.26531153


--------------------------------------------------------------------------------------------------------




--------------------------------------- Iteration      1(  24)  ---------------------------------------


    POTLOK:  cpu time    5.5041: real time    5.5174
    SETDIJ:  cpu time    0.6213: real time    0.4251
    EDDIAG:  cpu time    2.3072: real time    1.1970
  RMM-DIIS:  cpu time   14.2686: real time    7.3412
    ORTHCH:  cpu time    0.0729: real time    0.0371
       DOS:  cpu time    0.0050: real time    0.0025
    CHARGE:  cpu time   10.0754: real time    8.1782
    MIXING:  cpu time    0.0711: real time    0.0713
    --------------------------------------------
      LOOP:  cpu time   32.9256: real time   22.7698

 eigenvalue-minimisations  :  2310
 total energy-change (2. order) :-0.3660036E-02  (-0.2224902E-03)
 number of electron     126.9999988 magnetization       0.0297152
 augmentation part        3.6181338 magnetization       0.0039514

 Broyden mixing:
  rms(total) = 0.11617E-02    rms(broyden)= 0.11612E-02
  rms(prec ) = 0.12818E-02
  weight for this iteration     100.00

 eigenvalues of (default mixing * dielectric matrix)
  average eigenvalue GAMMA=   2.9370
 19.9623 10.3871  5.6876  3.1085  2.4220  2.4220  1.5960  1.1450  1.1450  1.1731
  0.9324  0.9324  0.8583  0.8025  0.6877  0.6877  0.6218  0.6218  0.6102

 Free energy of the ion-electron system (eV)
  ---------------------------------------------------
  alpha Z        PSCENC =        29.66604984
  Ewald energy   TEWEN  =     40912.28177946
  -Hartree energ DENC   =    -44848.79115446
  -exchange      EXHF   =         0.00000000
  -V(xc)+E(xc)   XCENC  =       551.13915083
  PAW double counting   =     15500.48240727   -15556.78617634
  entropy T*S    EENTRO =        -0.00991247
  eigenvalues    EBANDS =     -1823.97991526
  atomic energy  EATOM  =      5371.30148350
  Solvation  Ediel_sol  =      -442.57763498
  ---------------------------------------------------
[...]
  6.868  10.484  -0.000  -0.000   0.000  -0.000  -0.000   0.000
 10.484  15.999  -0.000  -0.000   0.000  -0.000  -0.000   0.000
 -0.000  -0.000  -2.435  -0.000  -0.000  -4.195  -0.000  -0.000
 -0.000  -0.000  -0.000  -2.429   0.000  -0.000  -4.178   0.000
  0.000   0.000  -0.000   0.000  -2.435  -0.000   0.000  -4.195
 -0.000  -0.000  -4.195  -0.000  -0.000  -7.022  -0.000  -0.000
 -0.000  -0.000  -0.000  -4.178   0.000  -0.000  -6.983   0.000
  0.000   0.000  -0.000   0.000  -4.195  -0.000   0.000  -7.022
 total augmentation occupancy for first ion, spin component:           1
  4.471  -1.358  -0.000   0.000  -0.000  -0.000   0.000  -0.000
 -1.358   0.440   0.000   0.000   0.000  -0.000  -0.000   0.000
 -0.000   0.000   5.131  -0.000  -0.000  -1.592  -0.000   0.000
  0.000   0.000  -0.000   1.644   0.000   0.000  -0.435   0.000
 -0.000   0.000  -0.000   0.000   5.131  -0.000   0.000  -1.592
 -0.000  -0.000  -1.592   0.000  -0.000   0.508  -0.000   0.000
  0.000  -0.000  -0.000  -0.435   0.000  -0.000   0.116   0.000
 -0.000   0.000   0.000   0.000  -1.592   0.000   0.000   0.508
 total augmentation occupancy for first ion, spin component:           2
  0.000  -0.000  -0.000  -0.000   0.000  -0.000   0.000   0.000
 -0.000   0.000  -0.000  -0.000   0.000  -0.000   0.000  -0.000
 -0.000  -0.000   0.000   0.000   0.000  -0.000   0.000   0.000
 -0.000  -0.000   0.000  -0.000  -0.000  -0.000   0.000   0.000
  0.000   0.000   0.000  -0.000   0.000   0.000   0.000  -0.000
 -0.000  -0.000  -0.000  -0.000   0.000   0.000  -0.000   0.000
  0.000   0.000   0.000   0.000   0.000  -0.000   0.000  -0.000
  0.000  -0.000   0.000   0.000  -0.000   0.000  -0.000   0.000


------------------------ aborting loop because EDIFF is reached ----------------------------------------


 


 total charge     
 
# of ion       s       p       d       tot
------------------------------------------
    1        0.743   1.390   0.000   2.133
    2        0.743   1.390   0.000   2.133
    3        0.743   1.390   0.000   2.133
    4        0.743   1.390   0.000   2.133
    5        0.743   1.390   0.000   2.133
    6        0.743   1.390   0.000   2.133
    7        0.743   1.390   0.000   2.133
    8        0.743   1.390   0.000   2.133
    9        0.743   1.390   0.000   2.133
   10        0.743   1.390   0.000   2.133
   11        0.743   1.390   0.000   2.133
   12        0.743   1.390   0.000   2.133
   13        0.743   1.390   0.000   2.133
   14        0.743   1.390   0.000   2.133
   15        0.743   1.390   0.000   2.133
   16        0.743   1.390   0.000   2.133
   17        1.241   2.811   0.000   4.052
   18        1.241   2.811   0.000   4.052
   19        1.241   2.811   0.000   4.052
   20        1.241   2.811   0.000   4.052
   21        1.241   2.811   0.000   4.052
   22        1.241   2.811   0.000   4.052
   23        1.241   2.811   0.000   4.052
   24        1.241   2.811   0.000   4.052
   25        1.241   2.811   0.000   4.052
   26        1.241   2.811   0.000   4.052
   27        1.241   2.811   0.000   4.052
   28        1.241   2.811   0.000   4.052
   29        1.241   2.811   0.000   4.052
   30        1.241   2.811   0.000   4.052
   31        1.241   2.811   0.000   4.052
   32        1.241   2.811   0.000   4.052
--------------------------------------------------
tot         31.741  67.222   0.000  98.963
 


 magnetization (x)
 
# of ion       s       p       d       tot
------------------------------------------
    1       -0.000  -0.000   0.000  -0.000
    2       -0.000  -0.000   0.000  -0.000
    3       -0.000  -0.000   0.000  -0.000
    4       -0.000  -0.000   0.000  -0.000
    5       -0.000  -0.000   0.000  -0.000
    6       -0.000  -0.000   0.000  -0.000
    7       -0.000  -0.000   0.000  -0.000
    8       -0.000  -0.000   0.000  -0.000
    9       -0.000  -0.000   0.000  -0.000
   10       -0.000  -0.000   0.000  -0.000
   11       -0.000  -0.000   0.000  -0.000
   12       -0.000  -0.000   0.000  -0.000
   13       -0.000  -0.000   0.000  -0.000
   14       -0.000  -0.000   0.000  -0.000
   15       -0.000  -0.000   0.000  -0.000
   16       -0.000  -0.000   0.000  -0.000
   17        0.000   0.001   0.000   0.001
   18        0.000   0.001   0.000   0.001
   19        0.000   0.001   0.000   0.001
   20        0.000   0.001   0.000   0.001
   21        0.000   0.001   0.000   0.001
   22        0.000   0.001   0.000   0.001
   23        0.000   0.001   0.000   0.001
   24        0.000   0.001   0.000   0.001
   25        0.000   0.001   0.000   0.001
   26        0.000   0.001   0.000   0.001
   27        0.000   0.001   0.000   0.001
   28        0.000   0.001   0.000   0.001
   29        0.000   0.001   0.000   0.001
   30        0.000   0.001   0.000   0.001
   31        0.000   0.001   0.000   0.001
   32        0.000   0.001   0.000   0.001
--------------------------------------------------
tot          0.000   0.009   0.000   0.009
 
    CHARGE:  cpu time    1.5730: real time    1.0613
    FORLOC:  cpu time    0.1256: real time    0.0630
    FORNL :  cpu time    0.6175: real time    0.4861
    STRESS:  cpu time   32.2464: real time   23.6363
    FORCOR:  cpu time    0.4364: real time    0.4374
    FORHAR:  cpu time    0.0855: real time    0.0857
    MIXING:  cpu time    0.1418: real time    0.1421
    OFIELD:  cpu time    0.0001: real time    0.0001

  FORCE on cell =-STRESS in cart. coord.  units (eV):
  Direction    XX          YY          ZZ          XY          YZ          ZX
  --------------------------------------------------------------------------------------
  Alpha Z    29.66605    29.66605    29.66605
  Ewald   45257.64045 45257.63517-49602.99917     0.00000     0.00000    -0.00000
  Hartree 44382.07703 44382.07753-43916.32922     0.00022     0.00000    -0.00000
  E(xc)    -510.30588  -510.28410  -516.47356     0.06772    -0.00000    -0.00000
  Local  -90992.20890-90992.21336 91922.47819     0.00363    -0.00000     0.00000
  n-local  -238.91768  -238.89976  -233.75484    -0.02604     0.00000     0.00000
  augment    16.97084    16.97077    19.30455     0.00003    -0.00000    -0.00000
  Kinetic  2043.43279  2043.89545  2296.24008     1.76720    -0.00000    -0.00000
  Fock        0.00000     0.00000     0.00000     0.00000     0.00000     0.00000
  -------------------------------------------------------------------------------------
  Total     -11.39872   -11.39882    -1.86793     0.00000     0.00000     0.00000
  in kB      -5.94734    -5.94739    -0.97460     0.00000     0.00000     0.00000
  external pressure =       -4.29 kB  Pullay stress =        0.00 kB


 VOLUME and BASIS-vectors are now :
 -----------------------------------------------------------------------------
  energy-cutoff  :      550.00
  volume of cell :     3070.74
      direct lattice vectors                 reciprocal lattice vectors
     5.024366704 -8.702497373  0.000000000     0.099515029 -0.057454772  0.000000000
     5.024366704  8.702497373  0.000000000     0.099515029  0.057454772  0.000000000
     0.000000000  0.000000000 35.114664386     0.000000000  0.000000000  0.028478131

  length of vectors
    10.048767154 10.048767154 35.114664386     0.114909929  0.114909929  0.028478131


 FORCES acting on ions
    electron-ion (+dipol)            ewald-force                    non-local-force                 convergence-correction
 -----------------------------------------------------------------------------------------------
   0.141E-03 -.500E-03 -.478E-09   -.320E-13 0.777E-03 -.164E-18   -.474E-18 0.290E-18 -.414E-24   -.729E-09 0.615E-09 0.525E-12
   0.141E-03 -.500E-03 -.376E-09   -.320E-13 0.777E-03 -.482E-18   0.163E-18 0.525E-18 -.103E-24   -.729E-09 0.615E-09 0.524E-12
   0.141E-03 -.500E-03 -.487E-09   -.224E-13 0.777E-03 -.174E-18   -.468E-18 0.185E-18 0.233E-24   -.729E-09 0.615E-09 0.525E-12
   0.141E-03 -.500E-03 -.485E-09   0.000E+00 0.777E-03 0.854E-19   0.684E-18 0.161E-17 -.207E-24   -.729E-09 0.615E-09 0.524E-12
   0.141E-03 -.500E-03 -.341E-09   -.202E-13 0.777E-03 -.269E-18   -.327E-18 0.180E-17 0.207E-24   -.729E-09 0.615E-09 0.525E-12
   0.141E-03 -.500E-03 0.629E-10   -.217E-13 0.777E-03 -.589E-18   0.234E-17 0.925E-18 -.336E-24   -.729E-09 0.615E-09 0.525E-12
   0.141E-03 -.500E-03 -.345E-09   0.000E+00 0.777E-03 -.250E-18   0.149E-17 -.401E-18 0.310E-24   -.729E-09 0.615E-09 0.525E-12
   0.141E-03 -.500E-03 -.427E-09   -.533E-14 0.777E-03 0.606E-19   -.798E-18 0.673E-18 -.414E-24   -.729E-09 0.615E-09 0.525E-12
   0.141E-03 -.500E-03 -.532E-09   -.134E-13 0.777E-03 0.168E-18   0.466E-18 0.373E-18 -.343E-24   -.729E-09 0.615E-09 0.525E-12
   0.141E-03 -.500E-03 -.323E-09   -.135E-13 0.777E-03 -.198E-18   -.896E-18 0.198E-17 -.414E-24   -.729E-09 0.615E-09 0.525E-12
   0.141E-03 -.500E-03 -.332E-09   -.711E-14 0.777E-03 0.206E-18   0.101E-17 0.124E-17 0.969E-25   -.729E-09 0.615E-09 0.525E-12
   0.141E-03 -.500E-03 -.560E-09   0.000E+00 0.777E-03 0.518E-18   0.127E-17 -.390E-19 -.569E-24   -.729E-09 0.615E-09 0.525E-12
   0.141E-03 -.500E-03 0.544E-09   0.142E-13 0.777E-03 0.291E-18   0.129E-17 0.429E-18 0.414E-24   -.729E-09 0.615E-09 0.525E-12
   0.141E-03 -.500E-03 0.442E-09   0.195E-13 0.777E-03 -.145E-18   -.542E-19 -.341E-18 0.569E-24   -.729E-09 0.615E-09 0.524E-12
   0.141E-03 -.500E-03 0.712E-09   0.444E-14 0.777E-03 0.274E-18   0.181E-18 0.106E-17 -.114E-23   -.729E-09 0.615E-09 0.524E-12
   0.141E-03 -.500E-03 0.883E-09   0.209E-15 0.777E-03 0.584E-18   -.132E-18 0.525E-18 -.258E-25   -.729E-09 0.615E-09 0.524E-12
   -.305E-02 0.481E-03 -.897E-11   0.284E-13 -.777E-03 -.226E-18   -.322E-19 0.881E-19 0.414E-23   0.589E-08 0.304E-08 0.885E-12
   -.305E-02 0.481E-03 -.884E-11   0.142E-13 -.777E-03 -.524E-18   0.522E-18 -.193E-18 0.331E-23   0.589E-08 0.304E-08 0.886E-12
   -.305E-02 0.481E-03 -.768E-11   0.284E-13 -.777E-03 0.168E-18   0.246E-18 0.779E-19 0.744E-23   0.589E-08 0.304E-08 0.885E-12
   -.305E-02 0.481E-03 -.816E-11   0.142E-13 -.777E-03 0.530E-18   -.400E-18 0.149E-18 -.827E-24   0.589E-08 0.304E-08 0.885E-12
   -.305E-02 0.481E-03 -.375E-10   0.533E-14 -.777E-03 -.777E-18   -.378E-18 -.305E-19 -.993E-23   0.589E-08 0.304E-08 0.885E-12
   -.305E-02 0.481E-03 -.373E-10   0.542E-14 -.777E-03 -.106E-17   -.130E-18 0.407E-19 0.501E-23   0.589E-08 0.304E-08 0.886E-12
   -.305E-02 0.481E-03 -.367E-10   0.355E-13 -.777E-03 -.338E-18   0.310E-18 -.881E-19 -.579E-23   0.589E-08 0.304E-08 0.886E-12
   -.305E-02 0.481E-03 -.368E-10   0.110E-13 -.777E-03 -.154E-18   0.107E-18 -.136E-19 -.827E-23   0.589E-08 0.304E-08 0.885E-12
   -.305E-02 0.481E-03 -.180E-10   -.234E-13 -.777E-03 -.155E-18   -.112E-18 -.407E-19 0.128E-22   0.589E-08 0.304E-08 0.887E-12
   -.305E-02 0.481E-03 -.180E-10   0.533E-14 -.777E-03 -.399E-18   -.264E-18 -.203E-19 -.232E-22   0.589E-08 0.304E-08 0.886E-12
   -.305E-02 0.481E-03 -.177E-10   0.355E-13 -.777E-03 0.299E-18   -.695E-19 -.576E-19 -.414E-23   0.589E-08 0.304E-08 0.887E-12
   -.305E-02 0.481E-03 -.177E-10   0.107E-13 -.777E-03 0.498E-18   0.291E-18 -.122E-18 -.331E-23   0.589E-08 0.304E-08 0.888E-12
   -.305E-02 0.481E-03 0.306E-10   -.142E-13 -.777E-03 0.216E-18   0.315E-18 -.125E-18 -.207E-23   0.589E-08 0.304E-08 0.885E-12
   -.305E-02 0.481E-03 0.310E-10   -.614E-14 -.777E-03 0.953E-19   0.119E-18 0.678E-19 0.165E-23   0.589E-08 0.304E-08 0.885E-12
   -.305E-02 0.481E-03 0.313E-10   0.355E-14 -.777E-03 0.862E-18   -.322E-19 0.125E-18 -.108E-22   0.589E-08 0.304E-08 0.884E-12
   -.305E-02 0.481E-03 0.311E-10   -.173E-13 -.777E-03 0.105E-17   -.107E-18 -.169E-19 0.744E-23   0.589E-08 0.304E-08 0.885E-12
 -----------------------------------------------------------------------------------------------
   -.471E-01 -.484E-03 0.684E-08   0.731E-14 0.168E-13 0.578E-33   0.612E-17 0.107E-16 -.286E-22   0.826E-07 0.585E-07 0.226E-10
 
 
 POSITION                                       TOTAL-FORCE (eV/Angst)
 -----------------------------------------------------------------------------------
      1.25610     -0.72521     17.55733         0.000000     -0.000000     -0.000000
      2.51219      1.45042     17.55733         0.000000     -0.000000     -0.000000
      3.76828      3.62604     17.55733         0.000000     -0.000000      0.000000
      5.02437      5.80167     17.55733         0.000000     -0.000000      0.000000
      2.51219     -2.90083     17.55733         0.000000     -0.000000      0.000000
      3.76828     -0.72521     17.55733         0.000000     -0.000000     -0.000000
      5.02437      1.45042     17.55733         0.000000     -0.000000     -0.000000
      6.28046      3.62604     17.55733         0.000000     -0.000000     -0.000000
      3.76828     -5.07646     17.55733         0.000000     -0.000000     -0.000000
      5.02437     -2.90083     17.55733         0.000000     -0.000000      0.000000
      6.28046     -0.72521     17.55733         0.000000     -0.000000     -0.000000
      7.53656      1.45042     17.55733         0.000000     -0.000000     -0.000000
      5.02437     -7.25208     17.55733         0.000000     -0.000000     -0.000000
      6.28046     -5.07646     17.55733         0.000000     -0.000000     -0.000000
      7.53656     -2.90083     17.55733         0.000000     -0.000000      0.000000
      8.79265     -0.72521     17.55733         0.000000     -0.000000      0.000000
      1.25610      0.72521     17.55733        -0.000000     -0.000000      0.000000
      2.51219      2.90083     17.55733        -0.000000     -0.000000     -0.000000
      3.76828      5.07646     17.55733         0.000000      0.000000     -0.000000
      5.02437      7.25208     17.55733         0.000000      0.000000      0.000000
      2.51219     -1.45042     17.55733        -0.000000      0.000000     -0.000000
      3.76828      0.72521     17.55733         0.000000     -0.000000      0.000000
      5.02437      2.90083     17.55733        -0.000000     -0.000000     -0.000000
      6.28046      5.07646     17.55733         0.000000      0.000000      0.000000
      3.76828     -3.62604     17.55733         0.000000     -0.000000      0.000000
      5.02437     -1.45042     17.55733        -0.000000      0.000000     -0.000000
      6.28046      0.72521     17.55733        -0.000000      0.000000      0.000000
      7.53656      2.90083     17.55733        -0.000000      0.000000     -0.000000
      5.02437     -5.80167     17.55733         0.000000      0.000000     -0.000000
      6.28046     -3.62604     17.55733         0.000000     -0.000000     -0.000000
      7.53656     -1.45042     17.55733         0.000000      0.000000      0.000000
      8.79265      0.72521     17.55733        -0.000000     -0.000000      0.000000
 -----------------------------------------------------------------------------------
    total drift:                               -0.047055     -0.000484      0.000000


--------------------------------------------------------------------------------------------------------



  FREE ENERGIE OF THE ION-ELECTRON SYSTEM (eV)
  ---------------------------------------------------
  free  energy   TOTEN  =      -307.27511724 eV

  energy  without entropy=     -307.26517431  energy(sigma->0) =     -307.27014577
 


--------------------------------------------------------------------------------------------------------


    POTLOK:  cpu time    4.5433: real time    4.3557


--------------------------------------------------------------------------------------------------------




--------------------------------------------------------------------------------------------------------


  
 reached required accuracy - stopping structural energy minimisation
 writing wavefunctions
     LOOP+:  cpu time  962.8418: real time  673.6996
    4ORBIT:  cpu time    0.0000: real time    0.0000
 


 total charge     
 
# of ion       s       p       d       tot
------------------------------------------
    1        0.743   1.390   0.000   2.133
    2        0.743   1.390   0.000   2.133
    3        0.743   1.390   0.000   2.133
    4        0.743   1.390   0.000   2.133
    5        0.743   1.390   0.000   2.133
    6        0.743   1.390   0.000   2.133
    7        0.743   1.390   0.000   2.133
    8        0.743   1.390   0.000   2.133
    9        0.743   1.390   0.000   2.133
   10        0.743   1.390   0.000   2.133
   11        0.743   1.390   0.000   2.133
   12        0.743   1.390   0.000   2.133
   13        0.743   1.390   0.000   2.133
   14        0.743   1.390   0.000   2.133
   15        0.743   1.390   0.000   2.133
   16        0.743   1.390   0.000   2.133
   17        1.241   2.811   0.000   4.052
   18        1.241   2.811   0.000   4.052
   19        1.241   2.811   0.000   4.052
   20        1.241   2.811   0.000   4.052
   21        1.241   2.811   0.000   4.052
   22        1.241   2.811   0.000   4.052
   23        1.241   2.811   0.000   4.052
   24        1.241   2.811   0.000   4.052
   25        1.241   2.811   0.000   4.052
   26        1.241   2.811   0.000   4.052
   27        1.241   2.811   0.000   4.052
   28        1.241   2.811   0.000   4.052
   29        1.241   2.811   0.000   4.052
   30        1.241   2.811   0.000   4.052
   31        1.241   2.811   0.000   4.052
   32        1.241   2.811   0.000   4.052
--------------------------------------------------
tot         31.741  67.222   0.000  98.963
 


 magnetization (x)
 
# of ion       s       p       d       tot
------------------------------------------
    1       -0.000  -0.000   0.000  -0.000
    2       -0.000  -0.000   0.000  -0.000
    3       -0.000  -0.000   0.000  -0.000
    4       -0.000  -0.000   0.000  -0.000
    5       -0.000  -0.000   0.000  -0.000
    6       -0.000  -0.000   0.000  -0.000
    7       -0.000  -0.000   0.000  -0.000
    8       -0.000  -0.000   0.000  -0.000
    9       -0.000  -0.000   0.000  -0.000
   10       -0.000  -0.000   0.000  -0.000
   11       -0.000  -0.000   0.000  -0.000
   12       -0.000  -0.000   0.000  -0.000
   13       -0.000  -0.000   0.000  -0.000
   14       -0.000  -0.000   0.000  -0.000
   15       -0.000  -0.000   0.000  -0.000
   16       -0.000  -0.000   0.000  -0.000
   17        0.000   0.001   0.000   0.001
   18        0.000   0.001   0.000   0.001
   19        0.000   0.001   0.000   0.001
   20        0.000   0.001   0.000   0.001
   21        0.000   0.001   0.000   0.001
   22        0.000   0.001   0.000   0.001
   23        0.000   0.001   0.000   0.001
   24        0.000   0.001   0.000   0.001
   25        0.000   0.001   0.000   0.001
   26        0.000   0.001   0.000   0.001
   27        0.000   0.001   0.000   0.001
   28        0.000   0.001   0.000   0.001
   29        0.000   0.001   0.000   0.001
   30        0.000   0.001   0.000   0.001
   31        0.000   0.001   0.000   0.001
   32        0.000   0.001   0.000   0.001
--------------------------------------------------
tot          0.000   0.009   0.000   0.009
 

 total amount of memory used by VASP MPI-rank0    88820. kBytes
=======================================================================

   base      :      30000. kBytes
   nonlr-proj:       4182. kBytes
   fftplans  :       8136. kBytes
   grid      :      29091. kBytes
   one-center:         12. kBytes
   wavefun   :      17399. kBytes
 
  
  
 General timing and accounting informations for this job:
 ========================================================
  
                  Total CPU time used (sec):     1132.224
                            User time (sec):     1049.405
                          System time (sec):       82.820
                         Elapsed time (sec):      771.636
  
                   Maximum memory used (kb):      635496.
                   Average memory used (kb):           0.
  
                          Minor page faults:       462937
                          Major page faults:            0
                 Voluntary context switches:         9742
