 vasp.5.4.4.18Apr17-6-g9f103f2a35 (build Jun 11 2020 13:42:08) complex          
  
 executed on             LinuxIFC date 2020.12.02  19:21:39
 running on   48 total cores
 distrk:  each k-point on   48 cores,    1 groups
 distr:  one band on NCORES_PER_BAND=   1 cores,   48 groups


--------------------------------------------------------------------------------------------------------


 INCAR:
 POTCAR:    PAW_PBE B 06Sep2000                   
 POTCAR:    PAW_PBE N 08Apr2002                   
 POTCAR:    PAW_PBE C 08Apr2002                   
 POTCAR:    PAW_PBE F 08Apr2002                   
 POTCAR:    PAW_PBE O 08Apr2002                   

 ----------------------------------------------------------------------------- 
|                                                                             |
|           W    W    AA    RRRRR   N    N  II  N    N   GGGG   !!!           |
|           W    W   A  A   R    R  NN   N  II  NN   N  G    G  !!!           |
|           W    W  A    A  R    R  N N  N  II  N N  N  G       !!!           |
|           W WW W  AAAAAA  RRRRR   N  N N  II  N  N N  G  GGG   !            |
|           WW  WW  A    A  R   R   N   NN  II  N   NN  G    G                |
|           W    W  A    A  R    R  N    N  II  N    N   GGGG   !!!           |
|                                                                             |
|      For optimal performance we recommend to set                            |
|        NCORE= 4 - approx SQRT( number of cores)                             |
|      NCORE specifies how many cores store one orbital (NPAR=cpu/NCORE).     |
|      This setting can  greatly improve the performance of VASP for DFT.     |
|      The default,   NCORE=1            might be grossly inefficient         |
|      on modern multi-core architectures or massively parallel machines.     |
|      Do your own testing !!!!                                               |
|      Unfortunately you need to use the default for GW and RPA calculations. |
|      (for HF NCORE is supported but not extensively tested yet)             |
|                                                                             |
 ----------------------------------------------------------------------------- 

 POTCAR:    PAW_PBE B 06Sep2000                   
   VRHFIN =B: s2p1                                                              
   LEXCH  = PE                                                                  
   EATOM  =    71.1703 eV,    5.2309 Ry                                         
                                                                                
   TITEL  = PAW_PBE B 06Sep2000                                                 
   LULTRA =        F    use ultrasoft PP ?                                      
   IUNSCR =        1    unscreen: 0-lin 1-nonlin 2-no                           
   RPACOR =    1.200    partial core radius                                     
   POMASS =   10.811; ZVAL   =    3.000    mass and valenz                      
   RCORE  =    1.700    outmost cutoff radius                                   
   RWIGS  =    1.710; RWIGS  =    0.905    wigner-seitz radius (au A)           
   ENMAX  =  318.614; ENMIN  =  238.960 eV                                      
   ICORE  =        2    local potential                                         
   LCOR   =        T    correct aug charges                                     
   LPAW   =        T    paw PP                                                  
   EAUG   =  535.514                                                            
   DEXC   =    0.000                                                            
   RMAX   =    1.732    core radius for proj-oper                               
   RAUG   =    1.300    factor for augmentation sphere                          
   RDEP   =    1.757    radius for radial grids                                 
   RDEPT  =    1.436    core radius for aug-charge                              
                                                                                
   Atomic configuration                                                         
    4 entries                                                                   
     n  l   j            E        occ.                                          
     1  0  0.50      -180.5896   2.0000                                         
     2  0  0.50        -9.4431   2.0000                                         
     2  1  0.50        -3.6068   1.0000                                         
     3  2  1.50        -4.0817   0.0000                                         
   Description                                                                  
     l       E           TYP  RCUT    TYP  RCUT                                 
     0     -9.4430752     23  1.500                                             
     0      0.8675899     23  1.500                                             
     1     -3.6067955     23  1.700                                             
     1      6.1086146     23  1.700                                             
     2     -4.0817478      7  1.700                                             
  local pseudopotential read in
  partial core-charges read in
  partial kinetic energy density read in
  atomic valenz-charges read in
  non local Contribution for L=           0  read in
    real space projection operators read in
  non local Contribution for L=           0  read in
    real space projection operators read in
  non local Contribution for L=           1  read in
    real space projection operators read in
  non local Contribution for L=           1  read in
    real space projection operators read in
    PAW grid and wavefunctions read in
 
   number of l-projection  operators is LMAX  =           4
   number of lm-projection operators is LMMAX =           8
 
 POTCAR:    PAW_PBE N 08Apr2002                   
   VRHFIN =N: s2p3                                                              
   LEXCH  = PE                                                                  
   EATOM  =   264.5486 eV,   19.4438 Ry                                         
                                                                                
   TITEL  = PAW_PBE N 08Apr2002                                                 
   LULTRA =        F    use ultrasoft PP ?                                      
   IUNSCR =        1    unscreen: 0-lin 1-nonlin 2-no                           
   RPACOR =    1.200    partial core radius                                     
   POMASS =   14.001; ZVAL   =    5.000    mass and valenz                      
   RCORE  =    1.500    outmost cutoff radius                                   
   RWIGS  =    1.400; RWIGS  =    0.741    wigner-seitz radius (au A)           
   ENMAX  =  400.000; ENMIN  =  300.000 eV                                      
   ICORE  =        2    local potential                                         
   LCOR   =        T    correct aug charges                                     
   LPAW   =        T    paw PP                                                  
   EAUG   =  627.112                                                            
   DEXC   =    0.000                                                            
   RMAX   =    1.529    core radius for proj-oper                               
   RAUG   =    1.300    factor for augmentation sphere                          
   RDEP   =    1.514    radius for radial grids                                 
   RDEPT  =    1.338    core radius for aug-charge                              
                                                                                
   Atomic configuration                                                         
    4 entries                                                                   
     n  l   j            E        occ.                                          
     1  0  0.50      -384.7179   2.0000                                         
     2  0  0.50       -18.5828   2.0000                                         
     2  1  0.50        -7.0898   3.0000                                         
     3  2  1.50        -6.8029   0.0000                                         
   Description                                                                  
     l       E           TYP  RCUT    TYP  RCUT                                 
     0    -18.5828119     23  1.200                                             
     0    -13.5018863     23  1.200                                             
     1     -7.0897853     23  1.500                                             
     1      9.5240782     23  1.500                                             
     2     -6.8029130      7  1.500                                             
  local pseudopotential read in
  partial core-charges read in
  partial kinetic energy density read in
  atomic valenz-charges read in
  non local Contribution for L=           0  read in
    real space projection operators read in
  non local Contribution for L=           0  read in
    real space projection operators read in
  non local Contribution for L=           1  read in
    real space projection operators read in
  non local Contribution for L=           1  read in
    real space projection operators read in
    PAW grid and wavefunctions read in
 
   number of l-projection  operators is LMAX  =           4
   number of lm-projection operators is LMMAX =           8
 
 POTCAR:    PAW_PBE C 08Apr2002                   
   VRHFIN =C: s2p2                                                              
   LEXCH  = PE                                                                  
   EATOM  =   147.1560 eV,   10.8157 Ry                                         
                                                                                
   TITEL  = PAW_PBE C 08Apr2002                                                 
   LULTRA =        F    use ultrasoft PP ?                                      
   IUNSCR =        1    unscreen: 0-lin 1-nonlin 2-no                           
   RPACOR =    1.200    partial core radius                                     
   POMASS =   12.011; ZVAL   =    4.000    mass and valenz                      
   RCORE  =    1.500    outmost cutoff radius                                   
   RWIGS  =    1.630; RWIGS  =    0.863    wigner-seitz radius (au A)           
   ENMAX  =  400.000; ENMIN  =  300.000 eV                                      
   ICORE  =        2    local potential                                         
   LCOR   =        T    correct aug charges                                     
   LPAW   =        T    paw PP                                                  
   EAUG   =  644.873                                                            
   DEXC   =    0.000                                                            
   RMAX   =    1.529    core radius for proj-oper                               
   RAUG   =    1.300    factor for augmentation sphere                          
   RDEP   =    1.501    radius for radial grids                                 
   RDEPT  =    1.300    core radius for aug-charge                              
                                                                                
   Atomic configuration                                                         
    4 entries                                                                   
     n  l   j            E        occ.                                          
     1  0  0.50      -273.3789   2.0000                                         
     2  0  0.50       -13.7508   2.0000                                         
     2  1  0.50        -5.2854   2.0000                                         
     3  2  1.50        -5.4423   0.0000                                         
   Description                                                                  
     l       E           TYP  RCUT    TYP  RCUT                                 
     0    -13.7508458     23  1.200                                             
     0     -8.2022199     23  1.200                                             
     1     -5.2854383     23  1.500                                             
     1     34.0145650     23  1.500                                             
     2     -5.4423304      7  1.500                                             
  local pseudopotential read in
  partial core-charges read in
  partial kinetic energy density read in
  atomic valenz-charges read in
  non local Contribution for L=           0  read in
    real space projection operators read in
  non local Contribution for L=           0  read in
    real space projection operators read in
  non local Contribution for L=           1  read in
    real space projection operators read in
  non local Contribution for L=           1  read in
    real space projection operators read in
    PAW grid and wavefunctions read in
 
   number of l-projection  operators is LMAX  =           4
   number of lm-projection operators is LMMAX =           8
 
 POTCAR:    PAW_PBE F 08Apr2002                   
   VRHFIN =F: s2p5                                                              
   LEXCH  = PE                                                                  
   EATOM  =   659.6475 eV,   48.4827 Ry                                         
                                                                                
   TITEL  = PAW_PBE F 08Apr2002                                                 
   LULTRA =        F    use ultrasoft PP ?                                      
   IUNSCR =        1    unscreen: 0-lin 1-nonlin 2-no                           
   RPACOR =    1.200    partial core radius                                     
   POMASS =   18.998; ZVAL   =    7.000    mass and valenz                      
   RCORE  =    1.520    outmost cutoff radius                                   
   RWIGS  =    1.500; RWIGS  =    0.794    wigner-seitz radius (au A)           
   ENMAX  =  400.000; ENMIN  =  300.000 eV                                      
   ICORE  =        2    local potential                                         
   LCOR   =        T    correct aug charges                                     
   LPAW   =        T    paw PP                                                  
   EAUG   =  613.614                                                            
   RMAX   =    1.555    core radius for proj-oper                               
   RAUG   =    1.300    factor for augmentation sphere                          
   RDEP   =    1.539    radius for radial grids                                 
   RDEPT  =    1.299    core radius for aug-charge                              
                                                                                
   Atomic configuration                                                         
    4 entries                                                                   
     n  l   j            E        occ.                                          
     1  0  0.50      -663.3661   2.0000                                         
     2  0  0.50       -29.8995   2.0000                                         
     2  1  0.50       -11.1114   5.0000                                         
     3  2  1.50       -10.8847   0.0000                                         
   Description                                                                  
     l       E           TYP  RCUT    TYP  RCUT                                 
     0    -29.8995018     23  1.200                                             
     0     -9.5240782     23  1.200                                             
     1    -11.1113914     23  1.520                                             
     1      1.3605826     23  1.520                                             
     2    -10.8846608      7  1.500                                             
  local pseudopotential read in
  partial core-charges read in
  partial kinetic energy density read in
  atomic valenz-charges read in
  non local Contribution for L=           0  read in
    real space projection operators read in
  non local Contribution for L=           0  read in
    real space projection operators read in
  non local Contribution for L=           1  read in
    real space projection operators read in
  non local Contribution for L=           1  read in
    real space projection operators read in
    PAW grid and wavefunctions read in
 
   number of l-projection  operators is LMAX  =           4
   number of lm-projection operators is LMMAX =           8
 
 POTCAR:    PAW_PBE O 08Apr2002                   
   VRHFIN =O: s2p4                                                              
   LEXCH  = PE                                                                  
   EATOM  =   432.3788 eV,   31.7789 Ry                                         
                                                                                
   TITEL  = PAW_PBE O 08Apr2002                                                 
   LULTRA =        F    use ultrasoft PP ?                                      
   IUNSCR =        1    unscreen: 0-lin 1-nonlin 2-no                           
   RPACOR =    1.200    partial core radius                                     
   POMASS =   16.000; ZVAL   =    6.000    mass and valenz                      
   RCORE  =    1.520    outmost cutoff radius                                   
   RWIGS  =    1.550; RWIGS  =    0.820    wigner-seitz radius (au A)           
   ENMAX  =  400.000; ENMIN  =  300.000 eV                                      
   ICORE  =        2    local potential                                         
   LCOR   =        T    correct aug charges                                     
   LPAW   =        T    paw PP                                                  
   EAUG   =  605.392                                                            
   DEXC   =    0.000                                                            
   RMAX   =    1.553    core radius for proj-oper                               
   RAUG   =    1.300    factor for augmentation sphere                          
   RDEP   =    1.550    radius for radial grids                                 
   RDEPT  =    1.329    core radius for aug-charge                              
                                                                                
   Atomic configuration                                                         
    4 entries                                                                   
     n  l   j            E        occ.                                          
     1  0  0.50      -514.6923   2.0000                                         
     2  0  0.50       -23.9615   2.0000                                         
     2  1  0.50        -9.0305   4.0000                                         
     3  2  1.50        -9.5241   0.0000                                         
   Description                                                                  
     l       E           TYP  RCUT    TYP  RCUT                                 
     0    -23.9615318     23  1.200                                             
     0     -9.5240782     23  1.200                                             
     1     -9.0304911     23  1.520                                             
     1      8.1634956     23  1.520                                             
     2     -9.5240782      7  1.500                                             
  local pseudopotential read in
  partial core-charges read in
  partial kinetic energy density read in
  kinetic energy density of atom read in
  atomic valenz-charges read in
  non local Contribution for L=           0  read in
    real space projection operators read in
  non local Contribution for L=           0  read in
    real space projection operators read in
  non local Contribution for L=           1  read in
    real space projection operators read in
  non local Contribution for L=           1  read in
    real space projection operators read in
    PAW grid and wavefunctions read in
 
   number of l-projection  operators is LMAX  =           4
   number of lm-projection operators is LMMAX =           8
 
 Optimization of the real space projectors (new method)

 maximal supplied QI-value         = 22.11
 optimisation between [QCUT,QGAM] = [ 11.94, 23.88] = [ 39.92,159.67] Ry 
 Optimized for a Real-space Cutoff    1.11 Angstroem

   l    n(q)    QCUT    max X(q) W(low)/X(q) W(high)/X(q)  e(spline) 
   0      8    11.939    53.033    0.41E-03    0.69E-03    0.53E-07
   0      8    11.939    34.740    0.40E-03    0.68E-03    0.52E-07
   1      7    11.939    30.949    0.26E-03    0.22E-03    0.14E-06
   1      7    11.939    19.518    0.24E-03    0.20E-03    0.13E-06
 Optimization of the real space projectors (new method)

 maximal supplied QI-value         = 25.13
 optimisation between [QCUT,QGAM] = [ 11.81, 23.88] = [ 39.08,159.64] Ry 
 Optimized for a Real-space Cutoff    1.25 Angstroem

   l    n(q)    QCUT    max X(q) W(low)/X(q) W(high)/X(q)  e(spline) 
   0      9    11.813    79.467    0.37E-04    0.68E-04    0.41E-06
   0      9    11.813    66.151    0.38E-04    0.67E-04    0.41E-06
   1      8    11.813    20.169    0.33E-03    0.30E-03    0.71E-06
   1      8    11.813    14.454    0.33E-03    0.31E-03    0.72E-06
 Optimization of the real space projectors (new method)

 maximal supplied QI-value         = 25.13
 optimisation between [QCUT,QGAM] = [ 11.81, 23.88] = [ 39.08,159.64] Ry 
 Optimized for a Real-space Cutoff    1.05 Angstroem

   l    n(q)    QCUT    max X(q) W(low)/X(q) W(high)/X(q)  e(spline) 
   0      7    11.813   115.676    0.42E-03    0.31E-03    0.23E-06
   0      7    11.813    87.132    0.42E-03    0.31E-03    0.23E-06
   1      7    11.813     4.429    0.34E-03    0.52E-04    0.16E-06
   1      7    11.813     2.733    0.27E-03    0.31E-04    0.13E-06
 Optimization of the real space projectors (new method)

 maximal supplied QI-value         = 24.76
 optimisation between [QCUT,QGAM] = [ 11.88, 24.01] = [ 39.54,161.47] Ry 
 Optimized for a Real-space Cutoff    1.05 Angstroem

   l    n(q)    QCUT    max X(q) W(low)/X(q) W(high)/X(q)  e(spline) 
   0      7    11.883    14.049    0.20E-03    0.16E-03    0.14E-06
   0      7    11.883     8.945    0.29E-03    0.20E-03    0.19E-06
   1      7    11.883     7.086    0.38E-03    0.88E-04    0.22E-06
   1      7    11.883     6.747    0.34E-03    0.55E-04    0.20E-06
 Optimization of the real space projectors (new method)

 maximal supplied QI-value         = 24.76
 optimisation between [QCUT,QGAM] = [ 11.88, 24.01] = [ 39.54,161.47] Ry 
 Optimized for a Real-space Cutoff    1.05 Angstroem

   l    n(q)    QCUT    max X(q) W(low)/X(q) W(high)/X(q)  e(spline) 
   0      7    11.883    20.381    0.32E-03    0.21E-03    0.20E-06
   0      7    11.883    15.268    0.35E-03    0.22E-03    0.22E-06
   1      7    11.883     5.964    0.44E-03    0.69E-04    0.24E-06
   1      7    11.883     5.382    0.38E-03    0.34E-04    0.20E-06
  PAW_PBE B 06Sep2000                   :
 energy of atom  1       EATOM=  -71.1703
 kinetic energy error for atom=    0.0009 (will be added to EATOM!!)
  PAW_PBE N 08Apr2002                   :
 energy of atom  2       EATOM= -264.5486
 kinetic energy error for atom=    0.0116 (will be added to EATOM!!)
  PAW_PBE C 08Apr2002                   :
 energy of atom  3       EATOM= -147.1560
 kinetic energy error for atom=    0.0066 (will be added to EATOM!!)
  PAW_PBE F 08Apr2002                   :
 energy of atom  4       EATOM= -659.6475
 kinetic energy error for atom=    0.0296 (will be added to EATOM!!)
  PAW_PBE O 08Apr2002                   :
 energy of atom  5       EATOM= -432.3788
 kinetic energy error for atom=    0.0194 (will be added to EATOM!!)
 
 
 POSCAR: B N C F O                               
  positions in direct lattice
  velocities in cartesian coordinates
  No initial velocities read in

 METAGGA = SCAN     LMAXTAU =  6    LMIXTAU =  F

 exchange correlation table for  LEXCH =        8
   RHO(1)=    0.500       N(1)  =     2000
   RHO(2)=  100.500       N(2)  =     4000

 VTST: version 3.1, (03/28/14)

 CHAIN: initializing optimizer
 
 OPT: Using VASP Dynamics algorithm
 CHAIN: Read ICHAIN            0
 
 POSCAR: B N C F O                               
  positions in direct lattice
  velocities in cartesian coordinates
  No initial velocities read in
 


--------------------------------------------------------------------------------------------------------


 ion  position               nearest neighbor table
   1  0.167  0.083  0.500-  20 1.45  17 1.45  21 1.45
   2  0.167  0.333  0.500-  17 1.45  18 1.45  22 1.45
   3  0.167  0.583  0.500-  18 1.45  19 1.45  23 1.45
   4  0.167  0.833  0.500-  19 1.45  20 1.45  24 1.45
   5  0.417  0.083  0.500-  24 1.45  25 1.45  21 1.45
   6  0.417  0.333  0.500-  21 1.45  26 1.45  22 1.45
   7  0.417  0.583  0.500-  23 1.45  22 1.45  27 1.45
   8  0.417  0.833  0.500-  24 1.45  28 1.45  23 1.45
   9  0.667  0.083  0.500-  29 1.45  25 1.45  28 1.45
  10  0.667  0.333  0.500-  25 1.45  30 1.45  26 1.45
  11  0.667  0.583  0.500-  27 1.45  31 1.45  26 1.45
  12  0.667  0.833  0.500-  32 1.45  28 1.45  27 1.45
  13  0.917  0.083  0.500-  29 1.45  17 1.45  32 1.45
  14  0.917  0.333  0.500-  29 1.45  30 1.45  18 1.45
  15  0.917  0.583  0.500-  30 1.45  19 1.45  31 1.45
  16  0.917  0.833  0.500-  20 1.45  31 1.45  32 1.45
  17  0.083  0.167  0.500-   2 1.45  13 1.45   1 1.45
  18  0.083  0.417  0.500-   3 1.45   2 1.45  14 1.45
  19  0.083  0.667  0.500-   3 1.45  15 1.45   4 1.45
  20  0.083  0.917  0.500-  16 1.45   1 1.45   4 1.45
  21  0.333  0.167  0.500-   6 1.45   1 1.45   5 1.45
  22  0.333  0.417  0.500-   7 1.45   6 1.45   2 1.45
  23  0.333  0.667  0.500-   7 1.45   8 1.45   3 1.45
  24  0.333  0.917  0.500-   8 1.45   5 1.45   4 1.45
  25  0.583  0.167  0.500-  10 1.45   5 1.45   9 1.45
  26  0.583  0.417  0.500-   6 1.45  11 1.45  10 1.45
  27  0.583  0.667  0.500-  11 1.45   7 1.45  12 1.45
  28  0.583  0.917  0.500-  12 1.45   8 1.45   9 1.45
  29  0.833  0.167  0.500-  14 1.45   9 1.45  13 1.45
  30  0.833  0.417  0.500-  15 1.45  10 1.45  14 1.45
  31  0.833  0.667  0.500-  11 1.45  16 1.45  15 1.45
  32  0.833  0.917  0.500-  12 1.45  13 1.45  16 1.45
  33  0.560  0.472  0.673-  36 1.33  38 1.34  37 1.34  34 1.55
  34  0.532  0.470  0.629-  40 1.33  39 1.33  33 1.55  35 1.75
  35  0.514  0.630  0.618-  42 1.21  41 1.21  34 1.75
  36  0.693  0.595  0.682-  33 1.33
  37  0.566  0.345  0.682-  33 1.34
  38  0.445  0.472  0.692-  33 1.34
  39  0.650  0.478  0.610-  34 1.33
  40  0.404  0.342  0.620-  34 1.33
  41  0.643  0.738  0.613-  35 1.21
  42  0.379  0.590  0.617-  35 1.21
 

IMPORTANT INFORMATION: All symmetrisations will be switched off!
NOSYMM: (Re-)initialisation of all symmetry stuff for point group C_1.

 
 
 KPOINTS: K-Point Grid                            

Automatic generation of k-mesh.
Space group operators:
 irot       det(A)        alpha          n_x          n_y          n_z        tau_x        tau_y        tau_z
    1     1.000000     0.000000     1.000000     0.000000     0.000000     0.000000     0.000000     0.000000
 
 Subroutine IBZKPT returns following result:
 ===========================================
 
 Found     10 irreducible k-points:
 
 Following reciprocal coordinates:
            Coordinates               Weight
  0.000000  0.000000  0.000000      1.000000
  0.250000  0.000000  0.000000      2.000000
  0.500000  0.000000  0.000000      1.000000
  0.000000  0.250000  0.000000      2.000000
  0.250000  0.250000  0.000000      2.000000
  0.500000  0.250000  0.000000      2.000000
 -0.250000  0.250000  0.000000      2.000000
  0.000000  0.500000  0.000000      1.000000
  0.250000  0.500000  0.000000      2.000000
  0.500000  0.500000  0.000000      1.000000
 
 Following cartesian coordinates:
            Coordinates               Weight
  0.000000  0.000000  0.000000      1.000000
  0.024879 -0.014364  0.000000      2.000000
  0.049758 -0.028727  0.000000      1.000000
  0.024879  0.014364  0.000000      2.000000
  0.049758  0.000000  0.000000      2.000000
  0.074636 -0.014364  0.000000      2.000000
  0.000000  0.028727  0.000000      2.000000
  0.049758  0.028727  0.000000      1.000000
  0.074636  0.014364  0.000000      2.000000
  0.099515  0.000000  0.000000      1.000000
 
 
 Subroutine IBZKPT_HF returns following result:
 ==============================================
 
 Found     16 k-points in 1st BZ
 the following     16 k-points will be used (e.g. in the exchange kernel)
 Following reciprocal coordinates:   # in IRBZ
  0.000000  0.000000  0.000000    0.06250000   1 t-inv F
  0.250000  0.000000  0.000000    0.06250000   2 t-inv F
  0.500000  0.000000  0.000000    0.06250000   3 t-inv F
  0.000000  0.250000  0.000000    0.06250000   4 t-inv F
  0.250000  0.250000  0.000000    0.06250000   5 t-inv F
  0.500000  0.250000  0.000000    0.06250000   6 t-inv F
 -0.250000  0.250000  0.000000    0.06250000   7 t-inv F
  0.000000  0.500000  0.000000    0.06250000   8 t-inv F
  0.250000  0.500000  0.000000    0.06250000   9 t-inv F
  0.500000  0.500000  0.000000    0.06250000  10 t-inv F
 -0.250000 -0.000000  0.000000    0.06250000   2 t-inv T
 -0.000000 -0.250000  0.000000    0.06250000   4 t-inv T
 -0.250000 -0.250000  0.000000    0.06250000   5 t-inv T
 -0.500000 -0.250000  0.000000    0.06250000   6 t-inv T
  0.250000 -0.250000  0.000000    0.06250000   7 t-inv T
 -0.250000 -0.500000  0.000000    0.06250000   9 t-inv T


--------------------------------------------------------------------------------------------------------




 Dimension of arrays:
   k-points           NKPTS =     10   k-points in BZ     NKDIM =     10   number of bands    NBANDS=    144
   number of dos      NEDOS =   1200   number of ions     NIONS =     42
   non local maximal  LDIM  =      4   non local SUM 2l+1 LMDIM =      8
   total plane-waves  NPLWV = 756000
   max r-space proj   IRMAX =   2059   max aug-charges    IRDMAX=   4038
   dimension x,y,z NGX =    60 NGY =   60 NGZ =  210
   dimension x,y,z NGXF=   120 NGYF=  120 NGZF=  420
   support grid    NGXF=   120 NGYF=  120 NGZF=  420
   ions per type =              16  16   3   5   2
   NGX,Y,Z   is equivalent  to a cutoff of   9.93,  9.93,  9.94 a.u.
   NGXF,Y,Z  is equivalent  to a cutoff of  19.85, 19.85, 19.88 a.u.

 SYSTEM =  hBN                                     
 POSCAR =  B N C F O                               

 Startparameter for this run:
   NWRITE =      2    write-flag & timer
   PREC   = normal    normal or accurate (medium, high low for compatibility)
   ISTART =      0    job   : 0-new  1-cont  2-samecut
   ICHARG =      2    charge: 1-file 2-atom 10-const
   ISPIN  =      2    spin polarized calculation?
   LNONCOLLINEAR =      F non collinear calculations
   LSORBIT =      F    spin-orbit coupling
   INIWAV =      1    electr: 0-lowe 1-rand  2-diag
   LASPH  =      T    aspherical Exc in radial PAW
   METAGGA=      F    non-selfconsistent MetaGGA calc.

 Electronic Relaxation 1
   ENCUT  =  550.0 eV  40.42 Ry    6.36 a.u.  19.22 19.22 67.15*2*pi/ulx,y,z
   ENINI  =  550.0     initial cutoff
   ENAUG  =  644.9 eV  augmentation charge cutoff
   NELM   =    100;   NELMIN=  2; NELMDL= -5     # of ELM steps 
   EDIFF  = 0.1E-04   stopping-criterion for ELM
   LREAL  =      T    real-space projection
   NLSPLINE    = F    spline interpolate recip. space projectors
   LCOMPAT=      F    compatible to vasp.4.4
   GGA_COMPAT  = T    GGA compatible to vasp.4.4-vasp.4.6
   LMAXPAW     = -100 max onsite density
   LMAXMIX     =    2 max onsite mixed and CHGCAR
   VOSKOWN=      0    Vosko Wilk Nusair interpolation
   ROPT   =   -0.00050  -0.00050  -0.00050  -0.00050
   ROPT   =   -0.00050
 Ionic relaxation
   EDIFFG = -.5E-01   stopping-criterion for IOM
   NSW    =    541    number of steps for IOM
   NBLOCK =      1;   KBLOCK =    541    inner block; outer block 
   IBRION =      5    ionic relax: 0-MD 1-quasi-New 2-CG
   NFREE  =      2    steps in history (QN), initial steepest desc. (CG)
   ISIF   =      2    stress and relaxation
   IWAVPR =     11    prediction:  0-non 1-charg 2-wave 3-comb
   ISYM   =      0    0-nonsym 1-usesym 2-fastsym
   LCORR  =      T    Harris-Foulkes like correction to forces

   POTIM  = 0.0200    time-step for ionic-motion
   TEIN   =    0.0    initial temperature
   TEBEG  =    0.0;   TEEND  =   0.0 temperature during run
   SMASS  =  -3.00    Nose mass-parameter (am)
   estimated Nose-frequenzy (Omega)   =  0.10E-29 period in steps =****** mass=  -0.231E-26a.u.
   SCALEE = 1.0000    scale energy and forces
   NPACO  =    256;   APACO  = 16.0  distance and # of slots for P.C.
   PSTRESS=    0.0 pullay stress

  Mass of Ions in am
   POMASS =  10.81 14.00 12.01 19.00 16.00
  Ionic Valenz
   ZVAL   =   3.00  5.00  4.00  7.00  6.00
  Atomic Wigner-Seitz radii
   RWIGS  =  -1.00 -1.00 -1.00 -1.00 -1.00
  virtual crystal weights 
   VCA    =   1.00  1.00  1.00  1.00  1.00
   NELECT =     186.4000    total number of electrons
   NUPDOWN=      -1.0000    fix difference up-down

 DOS related values:
   EMIN   = -10.00;   EMAX   =  5.00  energy-range for DOS
   EFERMI =   0.00
   ISMEAR =     0;   SIGMA  =   0.05  broadening in eV -4-tet -1-fermi 0-gaus

 Electronic relaxation 2 (details)
   IALGO  =     68    algorithm
   LDIAG  =      T    sub-space diagonalisation (order eigenvalues)
   LSUBROT=      F    optimize rotation matrix (better conditioning)
   TURBO    =      0    0=normal 1=particle mesh
   IRESTART =      0    0=no restart 2=restart with 2 vectors
   NREBOOT  =      0    no. of reboots
   NMIN     =      0    reboot dimension
   EREF     =   0.00    reference energy to select bands
   IMIX   =      4    mixing-type and parameters
     AMIX     =   0.40;   BMIX     =  1.00
     AMIX_MAG =   1.60;   BMIX_MAG =  1.00
     AMIN     =   0.10
     WC   =   100.;   INIMIX=   1;  MIXPRE=   1;  MAXMIX= -45

 Intra band minimization:
   WEIMIN = 0.0010     energy-eigenvalue tresh-hold
   EBREAK =  0.17E-07  absolut break condition
   DEPER  =   0.30     relativ break condition  

   TIME   =   0.40     timestep for ELM

  volume/ion in A,a.u.               =      73.11       493.39
  Fermi-wavevector in a.u.,A,eV,Ry     =   0.643392  1.215834  5.632173  0.413953
  Thomas-Fermi vector in A             =   1.710376
 
 Write flags
   LWAVE        =      F    write WAVECAR
   LDOWNSAMPLE  =      F    k-point downsampling of WAVECAR
   LCHARG       =      F    write CHGCAR
   LVTOT        =      F    write LOCPOT, total local potential
   LVHAR        =      F    write LOCPOT, Hartree potential only
   LELF         =      F    write electronic localiz. function (ELF)
   LORBIT       =     11    0 simple, 1 ext, 2 COOP (PROOUT), +10 PAW based schemes


 Dipole corrections
   LMONO  =      F    monopole corrections only (constant potential shift)
   LDIPOL =      F    correct potential (dipole corrections)
   IDIPOL =      0    1-x, 2-y, 3-z, 4-all directions 
   EPSILON=  1.0000000 bulk dielectric constant

 Exchange correlation treatment:
   GGA     =    --    GGA type
   LEXCH   =     8    internal setting for exchange type
   VOSKOWN=      0    Vosko Wilk Nusair interpolation
   LHFCALC =     F    Hartree Fock is set to
   LHFONE  =     F    Hartree Fock one center treatment
   AEXX    =    0.0000 exact exchange contribution

 Linear response parameters
   LEPSILON=     F    determine dielectric tensor
   LRPA    =     F    only Hartree local field effects (RPA)
   LNABLA  =     F    use nabla operator in PAW spheres
   LVEL    =     F    velocity operator in full k-point grid
   LINTERFAST=   F  fast interpolation
   KINTER  =     0    interpolate to denser k-point grid
   CSHIFT  =0.1000    complex shift for real part using Kramers Kronig
   OMEGAMAX=  -1.0    maximum frequency
   DEG_THRESHOLD= 0.2000000E-02 threshold for treating states as degnerate
   RTIME   =   -0.100 relaxation time in fs
  (WPLASMAI=    0.000 imaginary part of plasma frequency in eV, 0.658/RTIME)
   DFIELD  = 0.0000000 0.0000000 0.0000000 field for delta impulse in time
 
 Orbital magnetization related:
   ORBITALMAG=     F  switch on orbital magnetization
   LCHIMAG   =     F  perturbation theory with respect to B field
   DQ        =  0.001000  dq finite difference perturbation B field
   LLRAUG    =     F  two centre corrections for induced B field

 Solvation model:
   LSOL    =     T         switch on solvation model
   EB_K    = 78.400000     relative permittivity of the bulk solvent
   SIGMA_K =  0.600000     width of the dielectric cavity
   NC_K    =  0.002500     cutoff charge density
   TAU     =  0.000000     cavity surface tension
   LAMBDA_D_K    =  3.040000     Debye length in Angstroms
   LRHOB     =     F     write boundcharge  density
   LRHOION     =     F     write ioniccharge density



--------------------------------------------------------------------------------------------------------


 finite differences
   using selective dynamics as specified on POSCAR
 charge density and potential will be updated during run
 spin polarized calculation
 RMM-DIIS sequential band-by-band and
  variant of blocked Davidson during initial phase
 perform sub-space diagonalisation
    before iterative eigenvector-optimisation
 modified Broyden-mixing scheme, WC =      100.0
 initial mixing is a Kerker type mixing with AMIX =  0.4000 and BMIX =      1.0000
 Hartree-type preconditioning will be used
 using additional bands           50
 real space projection scheme for non local part
 use partial core corrections
 calculate Harris-corrections to forces 
   (improved forces if not selfconsistent)
 use gradient corrections 
 use of overlap-Matrix (Vanderbilt PP)
 Gauss-broadening in eV      SIGMA  =   0.05


--------------------------------------------------------------------------------------------------------


  energy-cutoff  :      550.00
  volume of cell :     3070.74
      direct lattice vectors                 reciprocal lattice vectors
     5.024366704 -8.702497373  0.000000000     0.099515029 -0.057454772  0.000000000
     5.024366704  8.702497373  0.000000000     0.099515029  0.057454772  0.000000000
     0.000000000  0.000000000 35.114664386     0.000000000  0.000000000  0.028478131

  length of vectors
    10.048767154 10.048767154 35.114664386     0.114909929  0.114909929  0.028478131


 
 k-points in units of 2pi/SCALE and weight: K-Point Grid                            
   0.00000000  0.00000000  0.00000000       0.062
   0.02487876 -0.01436369  0.00000000       0.125
   0.04975751 -0.02872739  0.00000000       0.062
   0.02487876  0.01436369  0.00000000       0.125
   0.04975751  0.00000000  0.00000000       0.125
   0.07463627 -0.01436369  0.00000000       0.125
   0.00000000  0.02872739  0.00000000       0.125
   0.04975751  0.02872739  0.00000000       0.062
   0.07463627  0.01436369  0.00000000       0.125
   0.09951503  0.00000000  0.00000000       0.062
 
 k-points in reciprocal lattice and weights: K-Point Grid                            
   0.00000000  0.00000000  0.00000000       0.062
   0.25000000  0.00000000  0.00000000       0.125
   0.50000000  0.00000000  0.00000000       0.062
   0.00000000  0.25000000  0.00000000       0.125
   0.25000000  0.25000000  0.00000000       0.125
   0.50000000  0.25000000  0.00000000       0.125
  -0.25000000  0.25000000  0.00000000       0.125
   0.00000000  0.50000000  0.00000000       0.062
   0.25000000  0.50000000  0.00000000       0.125
   0.50000000  0.50000000  0.00000000       0.062
 
 position of ions in fractional coordinates (direct lattice) 
   0.16669168  0.08337280  0.50001579
   0.16666695  0.33335154  0.50004981
   0.16665270  0.58335237  0.50004711
   0.16669722  0.83338208  0.50001449
   0.41670277  0.08337626  0.50002711
   0.41667068  0.33333676  0.50004069
   0.41666356  0.58336120  0.50004599
   0.41668690  0.83337879  0.50004636
   0.66669212  0.08336981  0.50004653
   0.66669737  0.33334789  0.50005871
   0.66669986  0.58339483  0.50006142
   0.66670390  0.83339080  0.50007319
   0.91669087  0.08337426  0.50003876
   0.91668646  0.33336153  0.50004930
   0.91669695  0.58336033  0.50004921
   0.91670170  0.83337062  0.50004425
   0.08335887  0.16670882  0.50002686
   0.08336519  0.41670935  0.50005064
   0.08336208  0.66671342  0.50002794
   0.08335623  0.91671258  0.50000902
   0.33336566  0.16671501  0.50002359
   0.33336495  0.41671266  0.50008555
   0.33336876  0.66670586  0.50006284
   0.33336928  0.91671818  0.50001608
   0.58336734  0.16671007  0.50004729
   0.58335089  0.41670755  0.50011340
   0.58334163  0.66667751  0.50016128
   0.58335411  0.91669067  0.50006772
   0.83335632  0.16670352  0.50003921
   0.83335364  0.41670653  0.50006301
   0.83335624  0.66670487  0.50006524
   0.83334706  0.91669617  0.50005365
   0.56002578  0.47178262  0.67271222
   0.53214160  0.46985044  0.62933996
   0.51426126  0.62971339  0.61752529
   0.69289198  0.59534479  0.68232655
   0.56567505  0.34529166  0.68207421
   0.44537741  0.47197749  0.69191008
   0.64997086  0.47780712  0.61009362
   0.40367285  0.34211665  0.61988325
   0.64326411  0.73811170  0.61339068
   0.37862648  0.58962017  0.61691834
 
 position of ions in cartesian coordinates  (Angst):
   1.25641563 -0.72508238 17.55788680
   2.51227626  1.45057214 17.55908128
   3.76830050  3.62632783 17.55898646
   5.02476514  5.80182326 17.55784107
   2.51258043 -2.90077304 17.55828424
   3.76831238 -0.72521324 17.55876109
   5.02449107  1.45068576 17.55894727
   6.28078843  3.62626000 17.55895993
   3.76858624 -5.07636087 17.55896607
   5.02459415 -2.90097298 17.55939372
   6.28093414 -0.72496186 17.55948896
   7.53702586  1.45059237 17.55990223
   5.02469393 -7.25193563 17.55869316
   6.28069950 -5.07638369 17.55906334
   7.53683785 -2.90086110 17.55906034
   8.79300508 -0.72518851 17.55888599
   1.25643181  0.72535273 17.55827553
   2.51255789  2.90092662 17.55911024
   3.76865435  5.07661347 17.55831321
   5.02471243  7.25228144 17.55764887
   2.51258865 -1.45027682 17.55816061
   3.76866499  0.72533326 17.56033618
   5.02474160  2.90086519 17.55953888
   6.28089782  5.07659227 17.55789677
   3.76866395 -3.62595878 17.55899280
   5.02466030 -1.45021325 17.56131405
   6.28055455  0.72523022 17.56299545
   7.53677505  2.90086060 17.55971012
   5.02466738 -5.80154419 17.55870890
   6.28076071 -3.62587037 17.55954487
   7.53685713 -1.45028313 17.55962295
   8.79285893  0.72534545 17.55921617
   5.18418377 -0.76793585 23.62206400
   5.03437542 -0.54208868 22.09906138
   5.74774815  1.00472191 21.68419341
   6.47257393 -0.84890417 23.95966792
   4.57703080 -1.91788589 23.95080683
   4.60912746  0.23148713 24.29619039
   5.66637013 -1.49825458 21.42323259
   3.74711993 -0.53569270 21.76699223
   6.94053861  0.82541095 21.53900803
   4.86482624  1.83617204 21.66288052
 


--------------------------------------------------------------------------------------------------------


 k-point  1 :   0.0000 0.0000 0.0000  plane waves:   89985
 k-point  2 :   0.2500 0.0000 0.0000  plane waves:   89899
 k-point  3 :   0.5000 0.0000 0.0000  plane waves:   89998
 k-point  4 :   0.0000 0.2500 0.0000  plane waves:   89899
 k-point  5 :   0.2500 0.2500 0.0000  plane waves:   89895
 k-point  6 :   0.5000 0.2500 0.0000  plane waves:   89895
 k-point  7 :  -0.2500 0.2500 0.0000  plane waves:   89899
 k-point  8 :   0.0000 0.5000 0.0000  plane waves:   89998
 k-point  9 :   0.2500 0.5000 0.0000  plane waves:   89895
 k-point 10 :   0.5000 0.5000 0.0000  plane waves:   89998

 maximum and minimum number of plane-waves per node :     89998    89895

 maximum number of plane-waves:     89998
 maximum index in each direction: 
   IXMAX=   19   IYMAX=   19   IZMAX=   67
   IXMIN=  -19   IYMIN=  -19   IZMIN=  -67


 serial   3D FFT for wavefunctions
 parallel 3D FFT for charge:
    minimum data exchange during FFTs selected (reduces bandwidth)


 total amount of memory used by VASP MPI-rank0   258187. kBytes
=======================================================================

   base      :      30000. kBytes
   nonlr-proj:       6012. kBytes
   fftplans  :       7998. kBytes
   grid      :     127197. kBytes
   one-center:        258. kBytes
   wavefun   :      86722. kBytes
 
     INWAV:  cpu time    0.0001: real time    0.0002
 Broyden mixing: mesh for mixing (old mesh)
   NGX = 39   NGY = 39   NGZ =135
  (NGX  =120   NGY  =120   NGZ  =420)
  gives a total of 205335 points

 initial charge density was supplied:
 charge density of overlapping atoms calculated
 number of electron     187.0000000 magnetization      42.0000000
 keeping initial charge density in first step


--------------------------------------------------------------------------------------------------------


 Maximum index for non-local projection operator         1965
 Maximum index for augmentation-charges          250 (set IRDMAX)


--------------------------------------------------------------------------------------------------------


 First call to EWALD:  gamma=   0.122
 Maximum number of real-space cells 4x 4x 1
 Maximum number of reciprocal cells 2x 2x 6

    FEWALD:  cpu time    0.0538: real time    0.0519


--------------------------------------- Iteration      1(   1)  ---------------------------------------


    POTLOK:  cpu time    4.7145: real time    5.3310
    SETDIJ:  cpu time    1.0926: real time    2.7585
     EDDAV:  cpu time   78.2379: real time   40.9655
       DOS:  cpu time    0.2402: real time    0.2224
    --------------------------------------------
      LOOP:  cpu time   84.2851: real time   49.2774

 eigenvalue-minimisations  :  6720
 total energy-change (2. order) : 0.1589509E+04  (-0.7087134E+04)
 number of electron     187.0000000 magnetization      42.0000000
 augmentation part      187.0000000 magnetization      42.0000000

 Free energy of the ion-electron system (eV)
  ---------------------------------------------------
  alpha Z        PSCENC =        57.55240194
  Ewald energy   TEWEN  =     62243.06876675
  -Hartree energ DENC   =    -70086.94743458
  -exchange      EXHF   =         0.00000000
  -V(xc)+E(xc)   XCENC  =       839.82059661
  PAW double counting   =      7540.10524803    -7629.33007240
  entropy T*S    EENTRO =        -0.02941623
  eigenvalues    EBANDS =     -1589.31501638
  atomic energy  EATOM  =      9975.55785330
  Solvation  Ediel_sol  =       239.02571280
  ---------------------------------------------------
  free energy    TOTEN  =      1589.50863985 eV

  energy without entropy =     1589.53805608  energy(sigma->0) =     1589.52334796


--------------------------------------------------------------------------------------------------------




--------------------------------------- Iteration      1(   2)  ---------------------------------------


     EDDAV:  cpu time  100.2789: real time   52.0288
       DOS:  cpu time    0.0019: real time    0.0010
    --------------------------------------------
      LOOP:  cpu time  100.2809: real time   52.0298

 eigenvalue-minimisations  :  9600
 total energy-change (2. order) :-0.1745775E+04  (-0.1689768E+04)
 number of electron     187.0000000 magnetization      42.0000000
 augmentation part      187.0000000 magnetization      42.0000000

 Free energy of the ion-electron system (eV)
  ---------------------------------------------------
  alpha Z        PSCENC =        57.55240194
  Ewald energy   TEWEN  =     62243.06876675
  -Hartree energ DENC   =    -70086.94743458
  -exchange      EXHF   =         0.00000000
  -V(xc)+E(xc)   XCENC  =       839.82059661
  PAW double counting   =      7540.10524803    -7629.33007240
  entropy T*S    EENTRO =        -0.00375902
  eigenvalues    EBANDS =     -3335.11598319
  atomic energy  EATOM  =      9975.55785330
  Solvation  Ediel_sol  =       239.02571280
  ---------------------------------------------------
  free energy    TOTEN  =      -156.26666976 eV

  energy without entropy =     -156.26291074  energy(sigma->0) =     -156.26479025


--------------------------------------------------------------------------------------------------------




--------------------------------------- Iteration      1(   3)  ---------------------------------------


     EDDAV:  cpu time   83.5216: real time   42.9604
       DOS:  cpu time    0.0021: real time    0.0010
    --------------------------------------------
      LOOP:  cpu time   83.5237: real time   42.9614

 eigenvalue-minimisations  :  7440
 total energy-change (2. order) :-0.2854138E+03  (-0.2830880E+03)
 number of electron     187.0000000 magnetization      42.0000000
 augmentation part      187.0000000 magnetization      42.0000000

 Free energy of the ion-electron system (eV)
  ---------------------------------------------------
  alpha Z        PSCENC =        57.55240194
  Ewald energy   TEWEN  =     62243.06876675
  -Hartree energ DENC   =    -70086.94743458
  -exchange      EXHF   =         0.00000000
  -V(xc)+E(xc)   XCENC  =       839.82059661
  PAW double counting   =      7540.10524803    -7629.33007240
  entropy T*S    EENTRO =        -0.01323452
  eigenvalues    EBANDS =     -3620.52034279
  atomic energy  EATOM  =      9975.55785330
  Solvation  Ediel_sol  =       239.02571280
  ---------------------------------------------------
  free energy    TOTEN  =      -441.68050486 eV

  energy without entropy =     -441.66727034  energy(sigma->0) =     -441.67388760


--------------------------------------------------------------------------------------------------------




--------------------------------------- Iteration      1(   4)  ---------------------------------------


     EDDAV:  cpu time   83.9549: real time   43.1413
       DOS:  cpu time    0.0023: real time    0.0011
    --------------------------------------------
      LOOP:  cpu time   83.9571: real time   43.1424

 eigenvalue-minimisations  :  7488
 total energy-change (2. order) :-0.7517577E+01  (-0.7497009E+01)
 number of electron     187.0000000 magnetization      42.0000000
 augmentation part      187.0000000 magnetization      42.0000000

 Free energy of the ion-electron system (eV)
  ---------------------------------------------------
  alpha Z        PSCENC =        57.55240194
  Ewald energy   TEWEN  =     62243.06876675
  -Hartree energ DENC   =    -70086.94743458
  -exchange      EXHF   =         0.00000000
  -V(xc)+E(xc)   XCENC  =       839.82059661
  PAW double counting   =      7540.10524803    -7629.33007240
  entropy T*S    EENTRO =        -0.01365674
  eigenvalues    EBANDS =     -3628.03749721
  atomic energy  EATOM  =      9975.55785330
  Solvation  Ediel_sol  =       239.02571280
  ---------------------------------------------------
  free energy    TOTEN  =      -449.19808149 eV

  energy without entropy =     -449.18442475  energy(sigma->0) =     -449.19125312


--------------------------------------------------------------------------------------------------------




--------------------------------------- Iteration      1(   5)  ---------------------------------------


     EDDAV:  cpu time   88.8728: real time   45.6260
       DOS:  cpu time    0.0022: real time    0.0011
    CHARGE:  cpu time    6.5846: real time    6.1142
    MIXING:  cpu time    0.2021: real time    0.1709
    --------------------------------------------
      LOOP:  cpu time   95.6617: real time   51.9122

 eigenvalue-minimisations  :  8160
 total energy-change (2. order) :-0.1693755E+00  (-0.1693149E+00)
 number of electron     186.3999928 magnetization      39.9350521
 augmentation part       12.6485690 magnetization      39.8864793

 Broyden mixing:
  rms(total) = 0.47310E+01    rms(broyden)= 0.47303E+01
  rms(prec ) = 0.47957E+01
  weight for this iteration     100.00

 Free energy of the ion-electron system (eV)
  ---------------------------------------------------
  alpha Z        PSCENC =        57.55240194
  Ewald energy   TEWEN  =     62243.06876675
  -Hartree energ DENC   =    -70086.94743458
  -exchange      EXHF   =         0.00000000
  -V(xc)+E(xc)   XCENC  =       839.82059661
  PAW double counting   =      7540.10524803    -7629.33007240
  entropy T*S    EENTRO =        -0.01365918
  eigenvalues    EBANDS =     -3628.20687027
  atomic energy  EATOM  =      9975.55785330
  Solvation  Ediel_sol  =       239.02571280
  ---------------------------------------------------
  free energy    TOTEN  =      -449.36745700 eV

  energy without entropy =     -449.35379782  energy(sigma->0) =     -449.36062741


--------------------------------------------------------------------------------------------------------




--------------------------------------- Iteration      1(   6)  ---------------------------------------


    POTLOK:  cpu time    4.3889: real time    4.3998
    SETDIJ:  cpu time    0.5909: real time    0.3945
    EDDIAG:  cpu time   16.4203: real time    8.2603
  RMM-DIIS:  cpu time   81.1024: real time   44.5078
    ORTHCH:  cpu time    0.9032: real time    0.4527
       DOS:  cpu time    0.0021: real time    0.0010
    CHARGE:  cpu time    6.5040: real time    5.8389
    MIXING:  cpu time    0.0440: real time    0.0370
    --------------------------------------------
      LOOP:  cpu time  109.9559: real time   63.8920

 eigenvalue-minimisations  :  5760
 total energy-change (2. order) : 0.1284876E+03  (-0.1454239E+02)
 number of electron     186.3999940 magnetization      37.7594018
 augmentation part       12.1318948 magnetization      35.7611692

 Broyden mixing:
  rms(total) = 0.23293E+01    rms(broyden)= 0.23291E+01
  rms(prec ) = 0.23565E+01
  weight for this iteration     100.00

 eigenvalues of (default mixing * dielectric matrix)
  average eigenvalue GAMMA=   0.9826
  0.9826

 Free energy of the ion-electron system (eV)
  ---------------------------------------------------
  alpha Z        PSCENC =        57.55240194
  Ewald energy   TEWEN  =     62243.06876675
  -Hartree energ DENC   =    -70350.63264218
  -exchange      EXHF   =         0.00000000
  -V(xc)+E(xc)   XCENC  =       918.96336739
  PAW double counting   =     11374.00721239   -11466.55689105
  entropy T*S    EENTRO =        -0.00908139
  eigenvalues    EBANDS =     -3250.42077259
  atomic energy  EATOM  =      9975.55785330
  Solvation  Ediel_sol  =       177.58991789
  ---------------------------------------------------
  free energy    TOTEN  =      -320.87986753 eV

  energy without entropy =     -320.87078615  energy(sigma->0) =     -320.87532684


--------------------------------------------------------------------------------------------------------




--------------------------------------- Iteration      1(   7)  ---------------------------------------


    POTLOK:  cpu time    4.3712: real time    4.4896
    SETDIJ:  cpu time    0.5893: real time    0.3928
    EDDIAG:  cpu time   16.3485: real time    8.1956
  RMM-DIIS:  cpu time   80.9557: real time   42.8644
    ORTHCH:  cpu time    0.9013: real time    0.4519
       DOS:  cpu time    0.0018: real time    0.0009
    CHARGE:  cpu time    6.5169: real time    5.8496
    MIXING:  cpu time    0.0102: real time    0.0051
    --------------------------------------------
      LOOP:  cpu time  109.6951: real time   62.2499

 eigenvalue-minimisations  :  5760
 total energy-change (2. order) :-0.2323291E+02  (-0.3489138E+01)
 number of electron     186.3999946 magnetization      35.5552054
 augmentation part       11.6131170 magnetization      33.5332411

 Broyden mixing:
  rms(total) = 0.16147E+01    rms(broyden)= 0.16146E+01
  rms(prec ) = 0.16240E+01
  weight for this iteration     100.00

 eigenvalues of (default mixing * dielectric matrix)
  average eigenvalue GAMMA=   1.0564
  0.8225  1.2903

 Free energy of the ion-electron system (eV)
  ---------------------------------------------------
  alpha Z        PSCENC =        57.55240194
  Ewald energy   TEWEN  =     62243.06876675
  -Hartree energ DENC   =    -70505.01730900
  -exchange      EXHF   =         0.00000000
  -V(xc)+E(xc)   XCENC  =       913.77037367
  PAW double counting   =     15139.41524350   -15234.48873709
  entropy T*S    EENTRO =        -0.00519640
  eigenvalues    EBANDS =     -3034.59061153
  atomic energy  EATOM  =      9975.55785330
  Solvation  Ediel_sol  =       100.62443686
  ---------------------------------------------------
  free energy    TOTEN  =      -344.11277799 eV

  energy without entropy =     -344.10758159  energy(sigma->0) =     -344.11017979


--------------------------------------------------------------------------------------------------------




--------------------------------------- Iteration      1(   8)  ---------------------------------------


    POTLOK:  cpu time    4.3790: real time    4.2190
    SETDIJ:  cpu time    0.5885: real time    0.3920
    EDDIAG:  cpu time   16.3455: real time    8.1954
  RMM-DIIS:  cpu time   81.2124: real time   42.9754
    ORTHCH:  cpu time    0.9056: real time    0.4539
       DOS:  cpu time    0.0020: real time    0.0010
    CHARGE:  cpu time    6.5231: real time    5.8562
    MIXING:  cpu time    0.0116: real time    0.0058
    --------------------------------------------
      LOOP:  cpu time  109.9677: real time   62.0988

 eigenvalue-minimisations  :  5760
 total energy-change (2. order) :-0.3710454E+01  (-0.6038162E+00)
 number of electron     186.3999947 magnetization      32.1710589
 augmentation part       11.5518128 magnetization      30.2044608

 Broyden mixing:
  rms(total) = 0.11955E+01    rms(broyden)= 0.11955E+01
  rms(prec ) = 0.12003E+01
  weight for this iteration     100.00

 eigenvalues of (default mixing * dielectric matrix)
  average eigenvalue GAMMA=   1.1937
  1.6887  1.1580  0.7344

 Free energy of the ion-electron system (eV)
  ---------------------------------------------------
  alpha Z        PSCENC =        57.55240194
  Ewald energy   TEWEN  =     62243.06876675
  -Hartree energ DENC   =    -70547.16800990
  -exchange      EXHF   =         0.00000000
  -V(xc)+E(xc)   XCENC  =       914.65213903
  PAW double counting   =     17983.77904707   -18079.71105951
  entropy T*S    EENTRO =        -0.01476121
  eigenvalues    EBANDS =     -2930.04741592
  atomic energy  EATOM  =      9975.55785330
  Solvation  Ediel_sol  =        34.50780670
  ---------------------------------------------------
  free energy    TOTEN  =      -347.82323174 eV

  energy without entropy =     -347.80847053  energy(sigma->0) =     -347.81585113


--------------------------------------------------------------------------------------------------------




--------------------------------------- Iteration      1(   9)  ---------------------------------------


    POTLOK:  cpu time    4.5173: real time    4.3612
    SETDIJ:  cpu time    0.5882: real time    0.3918
    EDDIAG:  cpu time   16.3304: real time    8.1860
  RMM-DIIS:  cpu time   80.9512: real time   42.8563
    ORTHCH:  cpu time    0.9022: real time    0.4522
       DOS:  cpu time    0.0019: real time    0.0009
    CHARGE:  cpu time    6.5198: real time    5.8543
    MIXING:  cpu time    0.0122: real time    0.0061
    --------------------------------------------
      LOOP:  cpu time  109.8232: real time   62.1089

 eigenvalue-minimisations  :  5760
 total energy-change (2. order) :-0.1683486E+02  (-0.9075972E+00)
 number of electron     186.3999946 magnetization      30.4832381
 augmentation part       11.6258562 magnetization      29.1365953

 Broyden mixing:
  rms(total) = 0.93913E+00    rms(broyden)= 0.93887E+00
  rms(prec ) = 0.95366E+00
  weight for this iteration     100.00

 eigenvalues of (default mixing * dielectric matrix)
  average eigenvalue GAMMA=   1.2265
  2.0453  1.3729  0.8852  0.6028

 Free energy of the ion-electron system (eV)
  ---------------------------------------------------
  alpha Z        PSCENC =        57.55240194
  Ewald energy   TEWEN  =     62243.06876675
  -Hartree energ DENC   =    -70559.16678658
  -exchange      EXHF   =         0.00000000
  -V(xc)+E(xc)   XCENC  =       906.95512033
  PAW double counting   =     20832.37231399   -20928.95097659
  entropy T*S    EENTRO =        -0.01985610
  eigenvalues    EBANDS =     -2838.21308599
  atomic energy  EATOM  =      9975.55785330
  Solvation  Ediel_sol  =       -53.81384506
  ---------------------------------------------------
  free energy    TOTEN  =      -364.65809401 eV

  energy without entropy =     -364.63823791  energy(sigma->0) =     -364.64816596


--------------------------------------------------------------------------------------------------------




--------------------------------------- Iteration      1(  10)  ---------------------------------------


    POTLOK:  cpu time    4.4113: real time    4.2500
    SETDIJ:  cpu time    0.5892: real time    0.3927
    EDDIAG:  cpu time   16.3019: real time    8.1868
  RMM-DIIS:  cpu time   80.9019: real time   42.7992
    ORTHCH:  cpu time    0.9017: real time    0.4520
       DOS:  cpu time    0.0023: real time    0.0011
    CHARGE:  cpu time    6.5128: real time    5.8459
    MIXING:  cpu time    0.0174: real time    0.0087
    --------------------------------------------
      LOOP:  cpu time  109.6384: real time   61.9364

 eigenvalue-minimisations  :  5760
 total energy-change (2. order) :-0.5263661E+01  (-0.3063029E+00)
 number of electron     186.3999944 magnetization      29.0345318
 augmentation part       11.5400526 magnetization      27.2285444

 Broyden mixing:
  rms(total) = 0.85486E+00    rms(broyden)= 0.85465E+00
  rms(prec ) = 0.85883E+00
  weight for this iteration     100.00

 eigenvalues of (default mixing * dielectric matrix)
  average eigenvalue GAMMA=   1.1551
  2.5823  1.3573  0.7561  0.6384  0.4411

 Free energy of the ion-electron system (eV)
  ---------------------------------------------------
  alpha Z        PSCENC =        57.55240194
  Ewald energy   TEWEN  =     62243.06876675
  -Hartree energ DENC   =    -70553.68182515
  -exchange      EXHF   =         0.00000000
  -V(xc)+E(xc)   XCENC  =       904.48168786
  PAW double counting   =     21370.06542328   -21466.82173006
  entropy T*S    EENTRO =        -0.00541475
  eigenvalues    EBANDS =     -2813.11538058
  atomic energy  EATOM  =      9975.55785330
  Solvation  Ediel_sol  =       -87.02353736
  ---------------------------------------------------
  free energy    TOTEN  =      -369.92175475 eV

  energy without entropy =     -369.91634000  energy(sigma->0) =     -369.91904738


--------------------------------------------------------------------------------------------------------




--------------------------------------- Iteration      1(  11)  ---------------------------------------


    POTLOK:  cpu time    4.3243: real time    4.1825
    SETDIJ:  cpu time    0.5909: real time    0.3944
    EDDIAG:  cpu time   16.3371: real time    8.2030
  RMM-DIIS:  cpu time   80.9723: real time   42.8498
    ORTHCH:  cpu time    0.9020: real time    0.4521
       DOS:  cpu time    0.0019: real time    0.0009
    CHARGE:  cpu time    6.4990: real time    5.8313
    MIXING:  cpu time    0.1851: real time    0.3587
    --------------------------------------------
      LOOP:  cpu time  109.8124: real time   62.2726

 eigenvalue-minimisations  :  5760
 total energy-change (2. order) :-0.5709988E+01  (-0.1644672E+00)
 number of electron     186.3999944 magnetization      25.3732330
 augmentation part       11.5264008 magnetization      23.6423767

 Broyden mixing:
  rms(total) = 0.72027E+00    rms(broyden)= 0.72025E+00
  rms(prec ) = 0.72381E+00
  weight for this iteration     100.00

 eigenvalues of (default mixing * dielectric matrix)
  average eigenvalue GAMMA=   1.1846
  2.6277  1.5354  0.7867  0.7867  0.7385  0.6328

 Free energy of the ion-electron system (eV)
  ---------------------------------------------------
  alpha Z        PSCENC =        57.55240194
  Ewald energy   TEWEN  =     62243.06876675
  -Hartree energ DENC   =    -70544.36169036
  -exchange      EXHF   =         0.00000000
  -V(xc)+E(xc)   XCENC  =       900.71781848
  PAW double counting   =     21722.06452526   -21818.82303048
  entropy T*S    EENTRO =        -0.00538982
  eigenvalues    EBANDS =     -2801.80342373
  atomic energy  EATOM  =      9975.55785330
  Solvation  Ediel_sol  =      -109.59957452
  ---------------------------------------------------
  free energy    TOTEN  =      -375.63174317 eV

  energy without entropy =     -375.62635335  energy(sigma->0) =     -375.62904826


--------------------------------------------------------------------------------------------------------




--------------------------------------- Iteration      1(  12)  ---------------------------------------


    POTLOK:  cpu time    4.2526: real time    4.2662
    SETDIJ:  cpu time    0.5883: real time    0.3919
    EDDIAG:  cpu time   16.3629: real time    8.2516
  RMM-DIIS:  cpu time   66.2578: real time   54.9650
    ORTHCH:  cpu time    0.9038: real time    0.4531
       DOS:  cpu time    0.0022: real time    0.0011
    CHARGE:  cpu time    6.5128: real time    5.8459
    MIXING:  cpu time    0.1880: real time   19.4474
    --------------------------------------------
      LOOP:  cpu time   95.0686: real time   93.6222

 eigenvalue-minimisations  :  5760
 total energy-change (2. order) :-0.9215474E+01  (-0.5868248E+00)
 number of electron     186.3999945 magnetization      19.3453796
 augmentation part       11.5588546 magnetization      18.9634042

 Broyden mixing:
  rms(total) = 0.80165E+00    rms(broyden)= 0.80125E+00
  rms(prec ) = 0.82133E+00
  weight for this iteration     100.00

 eigenvalues of (default mixing * dielectric matrix)
  average eigenvalue GAMMA=   1.3083
  3.2242  1.9975  1.3312  0.8109  0.6189  0.5876  0.5876

 Free energy of the ion-electron system (eV)
  ---------------------------------------------------
  alpha Z        PSCENC =        57.55240194
  Ewald energy   TEWEN  =     62243.06876675
  -Hartree energ DENC   =    -70503.09559310
  -exchange      EXHF   =         0.00000000
  -V(xc)+E(xc)   XCENC  =       893.74459317
  PAW double counting   =     21469.96350999   -21566.41652948
  entropy T*S    EENTRO =        -0.00775159
  eigenvalues    EBANDS =     -2814.08490099
  atomic energy  EATOM  =      9975.55785330
  Solvation  Ediel_sol  =      -141.12956675
  ---------------------------------------------------
  free energy    TOTEN  =      -384.84721676 eV

  energy without entropy =     -384.83946517  energy(sigma->0) =     -384.84334097


--------------------------------------------------------------------------------------------------------




--------------------------------------- Iteration      1(  13)  ---------------------------------------


    POTLOK:  cpu time    4.2616: real time    4.2740
    SETDIJ:  cpu time    0.5896: real time    0.3932
    EDDIAG:  cpu time   16.3267: real time    8.1884
  RMM-DIIS:  cpu time   81.0005: real time   42.8773
    ORTHCH:  cpu time    0.9027: real time    0.4524
       DOS:  cpu time    0.0022: real time    0.0011
    CHARGE:  cpu time    6.5009: real time    5.8357
    MIXING:  cpu time    0.0150: real time    0.0075
    --------------------------------------------
      LOOP:  cpu time  109.5993: real time   62.0296

 eigenvalue-minimisations  :  5760
 total energy-change (2. order) :-0.6307509E+01  (-0.4412389E+00)
 number of electron     186.3999944 magnetization      15.3196743
 augmentation part       11.5141718 magnetization      15.0690277

 Broyden mixing:
  rms(total) = 0.55468E+00    rms(broyden)= 0.55467E+00
  rms(prec ) = 0.56997E+00
  weight for this iteration     100.00

 eigenvalues of (default mixing * dielectric matrix)
  average eigenvalue GAMMA=   1.6040
  5.6799  2.3815  1.3079  0.6430  0.6430  0.7840  0.7821  0.6107

 Free energy of the ion-electron system (eV)
  ---------------------------------------------------
  alpha Z        PSCENC =        57.55240194
  Ewald energy   TEWEN  =     62243.06876675
  -Hartree energ DENC   =    -70437.47236906
  -exchange      EXHF   =         0.00000000
  -V(xc)+E(xc)   XCENC  =       888.01261792
  PAW double counting   =     21165.97107225   -21262.12836303
  entropy T*S    EENTRO =        -0.01168539
  eigenvalues    EBANDS =     -2829.59960492
  atomic energy  EATOM  =      9975.55785330
  Solvation  Ediel_sol  =      -192.10541595
  ---------------------------------------------------
  free energy    TOTEN  =      -391.15472620 eV

  energy without entropy =     -391.14304081  energy(sigma->0) =     -391.14888350


--------------------------------------------------------------------------------------------------------




--------------------------------------- Iteration      1(  14)  ---------------------------------------


    POTLOK:  cpu time    4.3319: real time    4.1715
    SETDIJ:  cpu time    0.5902: real time    0.3938
    EDDIAG:  cpu time   16.3825: real time    8.2201
  RMM-DIIS:  cpu time   80.8032: real time   42.7905
    ORTHCH:  cpu time    0.9021: real time    0.4522
       DOS:  cpu time    0.0019: real time    0.0009
    CHARGE:  cpu time    6.5031: real time    5.8371
    MIXING:  cpu time    0.0160: real time    0.0080
    --------------------------------------------
      LOOP:  cpu time  109.5310: real time   61.8742

 eigenvalue-minimisations  :  5760
 total energy-change (2. order) :-0.2020827E+01  (-0.1937523E+00)
 number of electron     186.3999943 magnetization      12.7439200
 augmentation part       11.4845482 magnetization      11.9399613

 Broyden mixing:
  rms(total) = 0.37698E+00    rms(broyden)= 0.37642E+00
  rms(prec ) = 0.38317E+00
  weight for this iteration     100.00

 eigenvalues of (default mixing * dielectric matrix)
  average eigenvalue GAMMA=   1.8026
  7.8678  2.4169  1.2829  1.2829  0.6372  0.6372  0.8074  0.6853  0.6059

 Free energy of the ion-electron system (eV)
  ---------------------------------------------------
  alpha Z        PSCENC =        57.55240194
  Ewald energy   TEWEN  =     62243.06876675
  -Hartree energ DENC   =    -70392.25370320
  -exchange      EXHF   =         0.00000000
  -V(xc)+E(xc)   XCENC  =       885.40125707
  PAW double counting   =     20964.94825842   -21060.95958059
  entropy T*S    EENTRO =        -0.00752431
  eigenvalues    EBANDS =     -2849.67770195
  atomic energy  EATOM  =      9975.55785330
  Solvation  Ediel_sol  =      -216.80558023
  ---------------------------------------------------
  free energy    TOTEN  =      -393.17555279 eV

  energy without entropy =     -393.16802849  energy(sigma->0) =     -393.17179064


--------------------------------------------------------------------------------------------------------




--------------------------------------- Iteration      1(  15)  ---------------------------------------


    POTLOK:  cpu time    4.3594: real time    4.2203
    SETDIJ:  cpu time    0.5886: real time    0.3922
    EDDIAG:  cpu time   16.3979: real time    8.2212
  RMM-DIIS:  cpu time   80.8848: real time   42.8247
    ORTHCH:  cpu time    0.9035: real time    0.4528
       DOS:  cpu time    0.0023: real time    0.0011
    CHARGE:  cpu time    6.4990: real time    5.8311
    MIXING:  cpu time    0.1888: real time    0.7775
    --------------------------------------------
      LOOP:  cpu time  109.8241: real time   62.7209

 eigenvalue-minimisations  :  5760
 total energy-change (2. order) : 0.8851467E+00  (-0.7711691E-01)
 number of electron     186.3999943 magnetization      10.2337527
 augmentation part       11.5067252 magnetization       9.4998459

 Broyden mixing:
  rms(total) = 0.29562E+00    rms(broyden)= 0.29558E+00
  rms(prec ) = 0.30253E+00
  weight for this iteration     100.00

 eigenvalues of (default mixing * dielectric matrix)
  average eigenvalue GAMMA=   1.8887
  9.1099  2.4079  1.7851  1.0796  1.0796  0.6521  0.6521  0.8425  0.6681  0.6100

 Free energy of the ion-electron system (eV)
  ---------------------------------------------------
  alpha Z        PSCENC =        57.55240194
  Ewald energy   TEWEN  =     62243.06876675
  -Hartree energ DENC   =    -70371.89420766
  -exchange      EXHF   =         0.00000000
  -V(xc)+E(xc)   XCENC  =       885.82725723
  PAW double counting   =     20923.44964528   -21019.54140196
  entropy T*S    EENTRO =        -0.00770601
  eigenvalues    EBANDS =     -2864.61843657
  atomic energy  EATOM  =      9975.55785330
  Solvation  Ediel_sol  =      -221.68457843
  ---------------------------------------------------
  free energy    TOTEN  =      -392.29040612 eV

  energy without entropy =     -392.28270011  energy(sigma->0) =     -392.28655312


--------------------------------------------------------------------------------------------------------




--------------------------------------- Iteration      1(  16)  ---------------------------------------


    POTLOK:  cpu time    4.1630: real time    4.1764
    SETDIJ:  cpu time    0.5882: real time    0.3921
    EDDIAG:  cpu time   16.3303: real time    8.1858
  RMM-DIIS:  cpu time   80.9067: real time   42.8091
    ORTHCH:  cpu time    0.9026: real time    0.4524
       DOS:  cpu time    0.0020: real time    0.0010
    CHARGE:  cpu time    6.5188: real time    5.8512
    MIXING:  cpu time    0.0177: real time    0.0089
    --------------------------------------------
      LOOP:  cpu time  109.4295: real time   61.8769

 eigenvalue-minimisations  :  5760
 total energy-change (2. order) : 0.1386128E+01  (-0.4389473E-01)
 number of electron     186.3999943 magnetization       7.7137881
 augmentation part       11.4886314 magnetization       7.0529435

 Broyden mixing:
  rms(total) = 0.21012E+00    rms(broyden)= 0.21010E+00
  rms(prec ) = 0.21479E+00
  weight for this iteration     100.00

 eigenvalues of (default mixing * dielectric matrix)
  average eigenvalue GAMMA=   2.0032
 10.3243  2.7016  2.4376  1.2208  1.2208  0.6482  0.6482  0.8309  0.7435  0.6167
  0.6430

 Free energy of the ion-electron system (eV)
  ---------------------------------------------------
  alpha Z        PSCENC =        57.55240194
  Ewald energy   TEWEN  =     62243.06876675
  -Hartree energ DENC   =    -70362.11437112
  -exchange      EXHF   =         0.00000000
  -V(xc)+E(xc)   XCENC  =       887.04321499
  PAW double counting   =     20870.22264606   -20966.50916858
  entropy T*S    EENTRO =        -0.00987059
  eigenvalues    EBANDS =     -2874.97928586
  atomic energy  EATOM  =      9975.55785330
  Solvation  Ediel_sol  =      -220.73646519
  ---------------------------------------------------
  free energy    TOTEN  =      -390.90427829 eV

  energy without entropy =     -390.89440771  energy(sigma->0) =     -390.89934300


--------------------------------------------------------------------------------------------------------




--------------------------------------- Iteration      1(  17)  ---------------------------------------


    POTLOK:  cpu time    4.4663: real time    4.3075
    SETDIJ:  cpu time    0.5902: real time    0.3937
    EDDIAG:  cpu time   16.3384: real time    8.1899
  RMM-DIIS:  cpu time   80.9287: real time   43.0005
    ORTHCH:  cpu time    0.9030: real time    0.4526
       DOS:  cpu time    0.0023: real time    0.0011
    CHARGE:  cpu time    6.5104: real time    5.8443
    MIXING:  cpu time    0.0208: real time    0.0104
    --------------------------------------------
      LOOP:  cpu time  109.7599: real time   62.2001

 eigenvalue-minimisations  :  5760
 total energy-change (2. order) : 0.2015499E+01  (-0.3639582E-01)
 number of electron     186.3999944 magnetization       6.7657855
 augmentation part       11.5301384 magnetization       6.6891641

 Broyden mixing:
  rms(total) = 0.50529E+00    rms(broyden)= 0.50488E+00
  rms(prec ) = 0.52599E+00
  weight for this iteration     100.00

 eigenvalues of (default mixing * dielectric matrix)
  average eigenvalue GAMMA=   1.9744
 10.9702  3.1314  2.2765  1.4949  0.6624  0.6624  0.9899  0.9157  0.7282  0.7282
  0.6109  0.5225

 Free energy of the ion-electron system (eV)
  ---------------------------------------------------
  alpha Z        PSCENC =        57.55240194
  Ewald energy   TEWEN  =     62243.06876675
  -Hartree energ DENC   =    -70357.79334247
  -exchange      EXHF   =         0.00000000
  -V(xc)+E(xc)   XCENC  =       888.89684356
  PAW double counting   =     20857.25606500   -20953.66386272
  entropy T*S    EENTRO =        -0.00739895
  eigenvalues    EBANDS =     -2885.68469824
  atomic energy  EATOM  =      9975.55785330
  Solvation  Ediel_sol  =      -214.07140794
  ---------------------------------------------------
  free energy    TOTEN  =      -388.88877977 eV

  energy without entropy =     -388.88138081  energy(sigma->0) =     -388.88508029


--------------------------------------------------------------------------------------------------------




--------------------------------------- Iteration      1(  18)  ---------------------------------------


    POTLOK:  cpu time    4.2663: real time    4.1274
    SETDIJ:  cpu time    0.5909: real time    0.3944
    EDDIAG:  cpu time   16.3175: real time    8.1800
  RMM-DIIS:  cpu time   80.9203: real time   42.8212
    ORTHCH:  cpu time    0.9052: real time    0.4537
       DOS:  cpu time    0.0022: real time    0.0011
    CHARGE:  cpu time    6.5194: real time    5.8523
    MIXING:  cpu time    0.0215: real time    0.0108
    --------------------------------------------
      LOOP:  cpu time  109.5433: real time   61.8408

 eigenvalue-minimisations  :  5760
 total energy-change (2. order) : 0.1309846E+01  (-0.2348317E-01)
 number of electron     186.3999944 magnetization       5.1417949
 augmentation part       11.4963656 magnetization       4.5998537

 Broyden mixing:
  rms(total) = 0.16054E+00    rms(broyden)= 0.16026E+00
  rms(prec ) = 0.16233E+00
  weight for this iteration     100.00

 eigenvalues of (default mixing * dielectric matrix)
  average eigenvalue GAMMA=   2.0595
 11.7792  3.9941  2.2790  1.7599  1.1388  1.1388  0.6586  0.6586  0.7844  0.7844
  0.6900  0.6047  0.5025

 Free energy of the ion-electron system (eV)
  ---------------------------------------------------
  alpha Z        PSCENC =        57.55240194
  Ewald energy   TEWEN  =     62243.06876675
  -Hartree energ DENC   =    -70355.78385411
  -exchange      EXHF   =         0.00000000
  -V(xc)+E(xc)   XCENC  =       889.95808553
  PAW double counting   =     20848.01585751   -20944.41057012
  entropy T*S    EENTRO =        -0.02078367
  eigenvalues    EBANDS =     -2887.66483492
  atomic energy  EATOM  =      9975.55785330
  Solvation  Ediel_sol  =      -213.85185633
  ---------------------------------------------------
  free energy    TOTEN  =      -387.57893413 eV

  energy without entropy =     -387.55815046  energy(sigma->0) =     -387.56854229


--------------------------------------------------------------------------------------------------------




--------------------------------------- Iteration      1(  19)  ---------------------------------------


    POTLOK:  cpu time    4.1669: real time    4.0418
    SETDIJ:  cpu time    0.5888: real time    0.3923
    EDDIAG:  cpu time   16.3473: real time    8.1944
  RMM-DIIS:  cpu time   80.8560: real time   42.8043
    ORTHCH:  cpu time    0.9045: real time    0.4534
       DOS:  cpu time    0.0020: real time    0.0010
    CHARGE:  cpu time    6.5513: real time    5.8575
    MIXING:  cpu time    0.0203: real time    0.0102
    --------------------------------------------
      LOOP:  cpu time  109.4371: real time   61.7548

 eigenvalue-minimisations  :  5760
[...]
      5.024712  7.252281 17.557649            0           0           0  
      2.512589 -1.450277 17.558161            0           0           0  
      3.768665  0.725333 17.560336            0           0           0  
      5.024742  2.900865 17.559539            0           0           0  
      6.280898  5.076592 17.557897            0           0           0  
      3.768664 -3.625959 17.558993            0           0           0  
      5.024660 -1.450213 17.561314            0           0           0  
      6.280555  0.725230 17.562995            0           0           0  
      7.536775  2.900861 17.559710            0           0           0  
      5.024667 -5.801544 17.558709            0           0           0  
      6.280761 -3.625870 17.559545            0           0           0  
      7.536857 -1.450283 17.559623            0           0           0  
      8.792859  0.725345 17.559216            0           0           0  
      5.184184 -0.767936 23.622064            0           0           0  
      5.034375 -0.542089 22.099061     0.095552    0.183006   -0.041022  
      5.747748  1.004722 21.684193     0.192847    0.222793   -0.045806  
      6.472574 -0.848904 23.959668            0           0           0  
      4.577031 -1.917886 23.950807            0           0           0  
      4.609127  0.231487 24.296190            0           0           0  
      5.666370 -1.498255 21.423233            0           0           0  
      3.747120 -0.535693 21.766992            0           0           0  
      6.940539  0.825411 21.539008     0.307892    0.685801   -0.121080  
      4.864826  1.836172 21.662881     0.317319    0.424051   -0.080496  
 
   9 f  =    3.095707 THz    19.450903 2PiTHz  103.261679 cm-1    12.802821 meV
             X         Y         Z           dx          dy          dz
      1.256416 -0.725082 17.557887            0           0           0  
      2.512276  1.450572 17.559081            0           0           0  
      3.768301  3.626328 17.558986            0           0           0  
      5.024765  5.801823 17.557841            0           0           0  
      2.512580 -2.900773 17.558284            0           0           0  
      3.768312 -0.725213 17.558761            0           0           0  
      5.024491  1.450686 17.558947            0           0           0  
      6.280788  3.626260 17.558960            0           0           0  
      3.768586 -5.076361 17.558966            0           0           0  
      5.024594 -2.900973 17.559394            0           0           0  
      6.280934 -0.724962 17.559489            0           0           0  
      7.537026  1.450592 17.559902            0           0           0  
      5.024694 -7.251936 17.558693            0           0           0  
      6.280700 -5.076384 17.559063            0           0           0  
      7.536838 -2.900861 17.559060            0           0           0  
      8.793005 -0.725189 17.558886            0           0           0  
      1.256432  0.725353 17.558276            0           0           0  
      2.512558  2.900927 17.559110            0           0           0  
      3.768654  5.076613 17.558313            0           0           0  
      5.024712  7.252281 17.557649            0           0           0  
      2.512589 -1.450277 17.558161            0           0           0  
      3.768665  0.725333 17.560336            0           0           0  
      5.024742  2.900865 17.559539            0           0           0  
      6.280898  5.076592 17.557897            0           0           0  
      3.768664 -3.625959 17.558993            0           0           0  
      5.024660 -1.450213 17.561314            0           0           0  
      6.280555  0.725230 17.562995            0           0           0  
      7.536775  2.900861 17.559710            0           0           0  
      5.024667 -5.801544 17.558709            0           0           0  
      6.280761 -3.625870 17.559545            0           0           0  
      7.536857 -1.450283 17.559623            0           0           0  
      8.792859  0.725345 17.559216            0           0           0  
      5.184184 -0.767936 23.622064            0           0           0  
      5.034375 -0.542089 22.099061     0.014170   -0.012966    0.002480  
      5.747748  1.004722 21.684193     0.361257   -0.163712    0.045238  
      6.472574 -0.848904 23.959668            0           0           0  
      4.577031 -1.917886 23.950807            0           0           0  
      4.609127  0.231487 24.296190            0           0           0  
      5.666370 -1.498255 21.423233            0           0           0  
      3.747120 -0.535693 21.766992            0           0           0  
      6.940539  0.825411 21.539008     0.356303   -0.519309    0.021966  
      4.864826  1.836172 21.662881     0.645335    0.062436    0.150988  
 
  10 f  =    2.822069 THz    17.731583 2PiTHz   94.134091 cm-1    11.671144 meV
             X         Y         Z           dx          dy          dz
      1.256416 -0.725082 17.557887            0           0           0  
      2.512276  1.450572 17.559081            0           0           0  
      3.768301  3.626328 17.558986            0           0           0  
      5.024765  5.801823 17.557841            0           0           0  
      2.512580 -2.900773 17.558284            0           0           0  
      3.768312 -0.725213 17.558761            0           0           0  
      5.024491  1.450686 17.558947            0           0           0  
      6.280788  3.626260 17.558960            0           0           0  
      3.768586 -5.076361 17.558966            0           0           0  
      5.024594 -2.900973 17.559394            0           0           0  
      6.280934 -0.724962 17.559489            0           0           0  
      7.537026  1.450592 17.559902            0           0           0  
      5.024694 -7.251936 17.558693            0           0           0  
      6.280700 -5.076384 17.559063            0           0           0  
      7.536838 -2.900861 17.559060            0           0           0  
      8.793005 -0.725189 17.558886            0           0           0  
      1.256432  0.725353 17.558276            0           0           0  
      2.512558  2.900927 17.559110            0           0           0  
      3.768654  5.076613 17.558313            0           0           0  
      5.024712  7.252281 17.557649            0           0           0  
      2.512589 -1.450277 17.558161            0           0           0  
      3.768665  0.725333 17.560336            0           0           0  
      5.024742  2.900865 17.559539            0           0           0  
      6.280898  5.076592 17.557897            0           0           0  
      3.768664 -3.625959 17.558993            0           0           0  
      5.024660 -1.450213 17.561314            0           0           0  
      6.280555  0.725230 17.562995            0           0           0  
      7.536775  2.900861 17.559710            0           0           0  
      5.024667 -5.801544 17.558709            0           0           0  
      6.280761 -3.625870 17.559545            0           0           0  
      7.536857 -1.450283 17.559623            0           0           0  
      8.792859  0.725345 17.559216            0           0           0  
      5.184184 -0.767936 23.622064            0           0           0  
      5.034375 -0.542089 22.099061    -0.007274   -0.009371    0.019854  
      5.747748  1.004722 21.684193    -0.014429    0.075972    0.399233  
      6.472574 -0.848904 23.959668            0           0           0  
      4.577031 -1.917886 23.950807            0           0           0  
      4.609127  0.231487 24.296190            0           0           0  
      5.666370 -1.498255 21.423233            0           0           0  
      3.747120 -0.535693 21.766992            0           0           0  
      6.940539  0.825411 21.539008     0.030924    0.164274    0.734542  
      4.864826  1.836172 21.662881    -0.036336    0.063207    0.511165  
 
  11 f  =    1.015557 THz     6.380934 2PiTHz   33.875338 cm-1     4.200008 meV
             X         Y         Z           dx          dy          dz
      1.256416 -0.725082 17.557887            0           0           0  
      2.512276  1.450572 17.559081            0           0           0  
      3.768301  3.626328 17.558986            0           0           0  
      5.024765  5.801823 17.557841            0           0           0  
      2.512580 -2.900773 17.558284            0           0           0  
      3.768312 -0.725213 17.558761            0           0           0  
      5.024491  1.450686 17.558947            0           0           0  
      6.280788  3.626260 17.558960            0           0           0  
      3.768586 -5.076361 17.558966            0           0           0  
      5.024594 -2.900973 17.559394            0           0           0  
      6.280934 -0.724962 17.559489            0           0           0  
      7.537026  1.450592 17.559902            0           0           0  
      5.024694 -7.251936 17.558693            0           0           0  
      6.280700 -5.076384 17.559063            0           0           0  
      7.536838 -2.900861 17.559060            0           0           0  
      8.793005 -0.725189 17.558886            0           0           0  
      1.256432  0.725353 17.558276            0           0           0  
      2.512558  2.900927 17.559110            0           0           0  
      3.768654  5.076613 17.558313            0           0           0  
      5.024712  7.252281 17.557649            0           0           0  
      2.512589 -1.450277 17.558161            0           0           0  
      3.768665  0.725333 17.560336            0           0           0  
      5.024742  2.900865 17.559539            0           0           0  
      6.280898  5.076592 17.557897            0           0           0  
      3.768664 -3.625959 17.558993            0           0           0  
      5.024660 -1.450213 17.561314            0           0           0  
      6.280555  0.725230 17.562995            0           0           0  
      7.536775  2.900861 17.559710            0           0           0  
      5.024667 -5.801544 17.558709            0           0           0  
      6.280761 -3.625870 17.559545            0           0           0  
      7.536857 -1.450283 17.559623            0           0           0  
      8.792859  0.725345 17.559216            0           0           0  
      5.184184 -0.767936 23.622064            0           0           0  
      5.034375 -0.542089 22.099061    -0.002349   -0.001563   -0.000176  
      5.747748  1.004722 21.684193     0.062481   -0.032150   -0.061413  
      6.472574 -0.848904 23.959668            0           0           0  
      4.577031 -1.917886 23.950807            0           0           0  
      4.609127  0.231487 24.296190            0           0           0  
      5.666370 -1.498255 21.423233            0           0           0  
      3.747120 -0.535693 21.766992            0           0           0  
      6.940539  0.825411 21.539008     0.156023   -0.018763    0.588741  
      4.864826  1.836172 21.662881     0.032431   -0.104099   -0.779797  
 
  12 f/i=   15.119394 THz    94.997957 2PiTHz  504.328698 cm-1    62.528812 meV
             X         Y         Z           dx          dy          dz
      1.256416 -0.725082 17.557887            0           0           0  
      2.512276  1.450572 17.559081            0           0           0  
      3.768301  3.626328 17.558986            0           0           0  
      5.024765  5.801823 17.557841            0           0           0  
      2.512580 -2.900773 17.558284            0           0           0  
      3.768312 -0.725213 17.558761            0           0           0  
      5.024491  1.450686 17.558947            0           0           0  
      6.280788  3.626260 17.558960            0           0           0  
      3.768586 -5.076361 17.558966            0           0           0  
      5.024594 -2.900973 17.559394            0           0           0  
      6.280934 -0.724962 17.559489            0           0           0  
      7.537026  1.450592 17.559902            0           0           0  
      5.024694 -7.251936 17.558693            0           0           0  
      6.280700 -5.076384 17.559063            0           0           0  
      7.536838 -2.900861 17.559060            0           0           0  
      8.793005 -0.725189 17.558886            0           0           0  
      1.256432  0.725353 17.558276            0           0           0  
      2.512558  2.900927 17.559110            0           0           0  
      3.768654  5.076613 17.558313            0           0           0  
      5.024712  7.252281 17.557649            0           0           0  
      2.512589 -1.450277 17.558161            0           0           0  
      3.768665  0.725333 17.560336            0           0           0  
      5.024742  2.900865 17.559539            0           0           0  
      6.280898  5.076592 17.557897            0           0           0  
      3.768664 -3.625959 17.558993            0           0           0  
      5.024660 -1.450213 17.561314            0           0           0  
      6.280555  0.725230 17.562995            0           0           0  
      7.536775  2.900861 17.559710            0           0           0  
      5.024667 -5.801544 17.558709            0           0           0  
      6.280761 -3.625870 17.559545            0           0           0  
      7.536857 -1.450283 17.559623            0           0           0  
      8.792859  0.725345 17.559216            0           0           0  
      5.184184 -0.767936 23.622064            0           0           0  
      5.034375 -0.542089 22.099061    -0.224534   -0.466856    0.049941  
      5.747748  1.004722 21.684193     0.346055    0.739600   -0.181807  
      6.472574 -0.848904 23.959668            0           0           0  
      4.577031 -1.917886 23.950807            0           0           0  
      4.609127  0.231487 24.296190            0           0           0  
      5.666370 -1.498255 21.423233            0           0           0  
      3.747120 -0.535693 21.766992            0           0           0  
      6.940539  0.825411 21.539008     0.022590   -0.116076    0.018240  
      4.864826  1.836172 21.662881    -0.108553   -0.044166    0.035618  
 
 Finite differences POTIM=  2.000000000000000E-002
     LOOP+:  cpu time 1162.5546: real time  707.7513
    4ORBIT:  cpu time    0.0000: real time    0.0000
 


 total charge     
 
# of ion       s       p       d       tot
------------------------------------------
    1        0.744   1.391   0.000   2.135
    2        0.744   1.391   0.000   2.135
    3        0.744   1.391   0.000   2.135
    4        0.744   1.391   0.000   2.135
    5        0.744   1.391   0.000   2.135
    6        0.744   1.392   0.000   2.136
    7        0.744   1.392   0.000   2.136
    8        0.744   1.391   0.000   2.135
    9        0.744   1.391   0.000   2.135
   10        0.744   1.391   0.000   2.135
   11        0.744   1.392   0.000   2.136
   12        0.744   1.391   0.000   2.135
   13        0.744   1.391   0.000   2.135
   14        0.744   1.391   0.000   2.135
   15        0.744   1.391   0.000   2.135
   16        0.744   1.391   0.000   2.135
   17        1.240   2.813   0.000   4.053
   18        1.240   2.813   0.000   4.053
   19        1.240   2.813   0.000   4.053
   20        1.240   2.813   0.000   4.053
   21        1.240   2.813   0.000   4.053
   22        1.240   2.813   0.000   4.053
   23        1.240   2.813   0.000   4.053
   24        1.240   2.813   0.000   4.053
   25        1.240   2.813   0.000   4.053
   26        1.240   2.813   0.000   4.052
   27        1.240   2.813   0.000   4.053
   28        1.240   2.813   0.000   4.053
   29        1.240   2.813   0.000   4.053
   30        1.240   2.813   0.000   4.053
   31        1.240   2.813   0.000   4.053
   32        1.240   2.813   0.000   4.053
   33        0.814   1.565   0.000   2.379
   34        0.836   1.555   0.000   2.391
   35        0.897   1.729   0.000   2.626
   36        1.759   4.414   0.000   6.173
   37        1.759   4.408   0.000   6.167
   38        1.759   4.414   0.000   6.172
   39        1.759   4.403   0.000   6.161
   40        1.759   4.404   0.000   6.163
   41        1.604   3.546   0.000   5.150
   42        1.604   3.548   0.000   5.152
--------------------------------------------------
tot         46.286 101.256   0.000 147.542
 


 magnetization (x)
 
# of ion       s       p       d       tot
------------------------------------------
    1        0.000   0.000   0.000   0.000
    2       -0.000   0.000   0.000   0.000
    3       -0.000  -0.000   0.000  -0.000
    4        0.000   0.000   0.000   0.000
    5        0.000  -0.000   0.000  -0.000
    6       -0.000  -0.000   0.000  -0.000
    7       -0.000   0.000   0.000  -0.000
    8       -0.000   0.000   0.000  -0.000
    9        0.000   0.000   0.000   0.000
   10       -0.000  -0.000   0.000  -0.000
   11       -0.000  -0.000   0.000  -0.000
   12        0.000   0.000   0.000   0.000
   13       -0.000  -0.000   0.000  -0.000
   14       -0.000  -0.000   0.000  -0.000
   15       -0.000  -0.000   0.000  -0.000
   16       -0.000  -0.000   0.000  -0.000
   17       -0.000  -0.000   0.000  -0.000
   18        0.000   0.000   0.000   0.000
   19       -0.000  -0.000   0.000  -0.000
   20        0.000   0.000   0.000   0.000
   21        0.000   0.000   0.000   0.000
   22        0.000   0.000   0.000   0.000
   23        0.000   0.000   0.000   0.000
   24       -0.000  -0.000   0.000  -0.000
   25       -0.000  -0.000   0.000  -0.000
   26       -0.000  -0.000   0.000  -0.000
   27        0.000   0.000   0.000   0.000
   28        0.000  -0.000   0.000  -0.000
   29       -0.000  -0.000   0.000  -0.000
   30        0.000   0.000   0.000   0.000
   31        0.000   0.000   0.000   0.000
   32        0.000   0.000   0.000   0.000
   33        0.005   0.013   0.000   0.017
   34        0.028   0.152   0.000   0.180
   35       -0.013  -0.021   0.000  -0.034
   36       -0.000   0.001   0.000   0.001
   37        0.000   0.015   0.000   0.016
   38       -0.000  -0.001   0.000  -0.001
   39        0.001   0.039   0.000   0.040
   40        0.001   0.037   0.000   0.038
   41        0.003   0.192   0.000   0.194
   42        0.002   0.182   0.000   0.184
--------------------------------------------------
tot          0.026   0.609   0.000   0.635
 

 total amount of memory used by VASP MPI-rank0   258187. kBytes
=======================================================================

   base      :      30000. kBytes
   nonlr-proj:       6012. kBytes
   fftplans  :       7998. kBytes
   grid      :     127197. kBytes
   one-center:        258. kBytes
   wavefun   :      86722. kBytes
 
  
  
 General timing and accounting informations for this job:
 ========================================================
  
                  Total CPU time used (sec):    44921.387
                            User time (sec):    43248.568
                          System time (sec):     1672.820
                         Elapsed time (sec):    26917.810
  
                   Maximum memory used (kb):      757208.
                   Average memory used (kb):           0.
  
                          Minor page faults:      5818634
                          Major page faults:           55
                 Voluntary context switches:       294158
