 vasp.5.4.4.18Apr17-6-g9f103f2a35 (build May 01 2020 14:57:12) complex          
  
 executed on             LinuxIFC date 2021.07.25  05:43:42
 running on  192 total cores
 distrk:  each k-point on   48 cores,    4 groups
 distr:  one band on NCORES_PER_BAND=  12 cores,    4 groups


--------------------------------------------------------------------------------------------------------


 INCAR:
 POTCAR:    PAW_PBE B 06Sep2000                   
 POTCAR:    PAW_PBE H 15Jun2001                   
 POTCAR:    PAW_PBE N 08Apr2002                   
 POTCAR:    PAW_PBE O 08Apr2002                   

 ----------------------------------------------------------------------------- 
|                                                                             |
|           W    W    AA    RRRRR   N    N  II  N    N   GGGG   !!!           |
|           W    W   A  A   R    R  NN   N  II  NN   N  G    G  !!!           |
|           W    W  A    A  R    R  N N  N  II  N N  N  G       !!!           |
|           W WW W  AAAAAA  RRRRR   N  N N  II  N  N N  G  GGG   !            |
|           WW  WW  A    A  R   R   N   NN  II  N   NN  G    G                |
|           W    W  A    A  R    R  N    N  II  N    N   GGGG   !!!           |
|                                                                             |
|      You have enabled k-point parallelism (KPAR>1).                         |
|      This developmental code was originally  written by Paul Kent at ORNL,  |
|      and carefully double checked in Vienna.                                |
|      GW as well as linear response parallelism added by Martijn Marsman     |
|      and Georg Kresse.                                                      |
|      Carefully verify results versus KPAR=1.                                |
|      Report problems to Paul Kent and Vienna.                               |
|                                                                             |
 ----------------------------------------------------------------------------- 

 POTCAR:    PAW_PBE B 06Sep2000                   
   VRHFIN =B: s2p1                                                              
   LEXCH  = PE                                                                  
   EATOM  =    71.1703 eV,    5.2309 Ry                                         
                                                                                
   TITEL  = PAW_PBE B 06Sep2000                                                 
   LULTRA =        F    use ultrasoft PP ?                                      
   IUNSCR =        1    unscreen: 0-lin 1-nonlin 2-no                           
   RPACOR =    1.200    partial core radius                                     
   POMASS =   10.811; ZVAL   =    3.000    mass and valenz                      
   RCORE  =    1.700    outmost cutoff radius                                   
   RWIGS  =    1.710; RWIGS  =    0.905    wigner-seitz radius (au A)           
   ENMAX  =  318.614; ENMIN  =  238.960 eV                                      
   ICORE  =        2    local potential                                         
   LCOR   =        T    correct aug charges                                     
   LPAW   =        T    paw PP                                                  
   EAUG   =  535.514                                                            
   DEXC   =    0.000                                                            
   RMAX   =    1.732    core radius for proj-oper                               
   RAUG   =    1.300    factor for augmentation sphere                          
   RDEP   =    1.757    radius for radial grids                                 
   RDEPT  =    1.436    core radius for aug-charge                              
                                                                                
   Atomic configuration                                                         
    4 entries                                                                   
     n  l   j            E        occ.                                          
     1  0  0.50      -180.5896   2.0000                                         
     2  0  0.50        -9.4431   2.0000                                         
     2  1  0.50        -3.6068   1.0000                                         
     3  2  1.50        -4.0817   0.0000                                         
   Description                                                                  
     l       E           TYP  RCUT    TYP  RCUT                                 
     0     -9.4430752     23  1.500                                             
     0      0.8675899     23  1.500                                             
     1     -3.6067955     23  1.700                                             
     1      6.1086146     23  1.700                                             
     2     -4.0817478      7  1.700                                             
  local pseudopotential read in
  partial core-charges read in
  partial kinetic energy density read in
  atomic valenz-charges read in
  non local Contribution for L=           0  read in
    real space projection operators read in
  non local Contribution for L=           0  read in
    real space projection operators read in
  non local Contribution for L=           1  read in
    real space projection operators read in
  non local Contribution for L=           1  read in
    real space projection operators read in
    PAW grid and wavefunctions read in
 
   number of l-projection  operators is LMAX  =           4
   number of lm-projection operators is LMMAX =           8
 
 POTCAR:    PAW_PBE H 15Jun2001                   
   VRHFIN =H: ultrasoft test                                                    
   LEXCH  = PE                                                                  
   EATOM  =    12.4884 eV,    0.9179 Ry                                         
                                                                                
   TITEL  = PAW_PBE H 15Jun2001                                                 
   LULTRA =        F    use ultrasoft PP ?                                      
   IUNSCR =        0    unscreen: 0-lin 1-nonlin 2-no                           
   RPACOR =    0.000    partial core radius                                     
   POMASS =    1.000; ZVAL   =    1.000    mass and valenz                      
   RCORE  =    1.100    outmost cutoff radius                                   
   RWIGS  =    0.700; RWIGS  =    0.370    wigner-seitz radius (au A)           
   ENMAX  =  250.000; ENMIN  =  200.000 eV                                      
   RCLOC  =    0.701    cutoff for local pot                                    
   LCOR   =        T    correct aug charges                                     
   LPAW   =        T    paw PP                                                  
   EAUG   =  400.000                                                            
   RMAX   =    1.123    core radius for proj-oper                               
   RAUG   =    1.200    factor for augmentation sphere                          
   RDEP   =    1.112    radius for radial grids                                 
   RDEPT  =    0.926    core radius for aug-charge                              
                                                                                
   Atomic configuration                                                         
    2 entries                                                                   
     n  l   j            E        occ.                                          
     1  0  0.50        -6.4927   1.0000                                         
     2  1  0.50        -3.4015   0.0000                                         
   Description                                                                  
     l       E           TYP  RCUT    TYP  RCUT                                 
     0     -6.4927494     23  1.100                                             
     0      6.8029130     23  1.100                                             
     1     -4.0817478     23  1.100                                             
  local pseudopotential read in
  atomic valenz-charges read in
  non local Contribution for L=           0  read in
    real space projection operators read in
  non local Contribution for L=           0  read in
    real space projection operators read in
  non local Contribution for L=           1  read in
    real space projection operators read in
    PAW grid and wavefunctions read in
 
   number of l-projection  operators is LMAX  =           3
   number of lm-projection operators is LMMAX =           5
 
 POTCAR:    PAW_PBE N 08Apr2002                   
   VRHFIN =N: s2p3                                                              
   LEXCH  = PE                                                                  
   EATOM  =   264.5486 eV,   19.4438 Ry                                         
                                                                                
   TITEL  = PAW_PBE N 08Apr2002                                                 
   LULTRA =        F    use ultrasoft PP ?                                      
   IUNSCR =        1    unscreen: 0-lin 1-nonlin 2-no                           
   RPACOR =    1.200    partial core radius                                     
   POMASS =   14.001; ZVAL   =    5.000    mass and valenz                      
   RCORE  =    1.500    outmost cutoff radius                                   
   RWIGS  =    1.400; RWIGS  =    0.741    wigner-seitz radius (au A)           
   ENMAX  =  400.000; ENMIN  =  300.000 eV                                      
   ICORE  =        2    local potential                                         
   LCOR   =        T    correct aug charges                                     
   LPAW   =        T    paw PP                                                  
   EAUG   =  627.112                                                            
   DEXC   =    0.000                                                            
   RMAX   =    1.529    core radius for proj-oper                               
   RAUG   =    1.300    factor for augmentation sphere                          
   RDEP   =    1.514    radius for radial grids                                 
   RDEPT  =    1.338    core radius for aug-charge                              
                                                                                
   Atomic configuration                                                         
    4 entries                                                                   
     n  l   j            E        occ.                                          
     1  0  0.50      -384.7179   2.0000                                         
     2  0  0.50       -18.5828   2.0000                                         
     2  1  0.50        -7.0898   3.0000                                         
     3  2  1.50        -6.8029   0.0000                                         
   Description                                                                  
     l       E           TYP  RCUT    TYP  RCUT                                 
     0    -18.5828119     23  1.200                                             
     0    -13.5018863     23  1.200                                             
     1     -7.0897853     23  1.500                                             
     1      9.5240782     23  1.500                                             
     2     -6.8029130      7  1.500                                             
  local pseudopotential read in
  partial core-charges read in
  partial kinetic energy density read in
  atomic valenz-charges read in
  non local Contribution for L=           0  read in
    real space projection operators read in
  non local Contribution for L=           0  read in
    real space projection operators read in
  non local Contribution for L=           1  read in
    real space projection operators read in
  non local Contribution for L=           1  read in
    real space projection operators read in
    PAW grid and wavefunctions read in
 
   number of l-projection  operators is LMAX  =           4
   number of lm-projection operators is LMMAX =           8
 
 POTCAR:    PAW_PBE O 08Apr2002                   
   VRHFIN =O: s2p4                                                              
   LEXCH  = PE                                                                  
   EATOM  =   432.3788 eV,   31.7789 Ry                                         
                                                                                
   TITEL  = PAW_PBE O 08Apr2002                                                 
   LULTRA =        F    use ultrasoft PP ?                                      
   IUNSCR =        1    unscreen: 0-lin 1-nonlin 2-no                           
   RPACOR =    1.200    partial core radius                                     
   POMASS =   16.000; ZVAL   =    6.000    mass and valenz                      
   RCORE  =    1.520    outmost cutoff radius                                   
   RWIGS  =    1.550; RWIGS  =    0.820    wigner-seitz radius (au A)           
   ENMAX  =  400.000; ENMIN  =  300.000 eV                                      
   ICORE  =        2    local potential                                         
   LCOR   =        T    correct aug charges                                     
   LPAW   =        T    paw PP                                                  
   EAUG   =  605.392                                                            
   DEXC   =    0.000                                                            
   RMAX   =    1.553    core radius for proj-oper                               
   RAUG   =    1.300    factor for augmentation sphere                          
   RDEP   =    1.550    radius for radial grids                                 
   RDEPT  =    1.329    core radius for aug-charge                              
                                                                                
   Atomic configuration                                                         
    4 entries                                                                   
     n  l   j            E        occ.                                          
     1  0  0.50      -514.6923   2.0000                                         
     2  0  0.50       -23.9615   2.0000                                         
     2  1  0.50        -9.0305   4.0000                                         
     3  2  1.50        -9.5241   0.0000                                         
   Description                                                                  
     l       E           TYP  RCUT    TYP  RCUT                                 
     0    -23.9615318     23  1.200                                             
     0     -9.5240782     23  1.200                                             
     1     -9.0304911     23  1.520                                             
     1      8.1634956     23  1.520                                             
     2     -9.5240782      7  1.500                                             
  local pseudopotential read in
  partial core-charges read in
  partial kinetic energy density read in
  kinetic energy density of atom read in
  atomic valenz-charges read in
  non local Contribution for L=           0  read in
    real space projection operators read in
  non local Contribution for L=           0  read in
    real space projection operators read in
  non local Contribution for L=           1  read in
    real space projection operators read in
  non local Contribution for L=           1  read in
    real space projection operators read in
    PAW grid and wavefunctions read in
 
   number of l-projection  operators is LMAX  =           4
   number of lm-projection operators is LMMAX =           8
 
 Optimization of the real space projectors (new method)

 maximal supplied QI-value         = 22.11
 optimisation between [QCUT,QGAM] = [ 11.94, 23.88] = [ 39.92,159.67] Ry 
 Optimized for a Real-space Cutoff    1.18 Angstroem

   l    n(q)    QCUT    max X(q) W(low)/X(q) W(high)/X(q)  e(spline) 
   0      8    11.939    53.033    0.11E-03    0.34E-03    0.60E-07
   0      8    11.939    34.740    0.11E-03    0.34E-03    0.59E-07
   1      8    11.939    30.949    0.22E-03    0.20E-03    0.17E-06
   1      8    11.939    19.518    0.20E-03    0.18E-03    0.16E-06
 Optimization of the real space projectors (new method)

 maximal supplied QI-value         = 34.20
 optimisation between [QCUT,QGAM] = [ 11.97, 23.94] = [ 40.13,160.53] Ry 
 Optimized for a Real-space Cutoff    1.18 Angstroem

   l    n(q)    QCUT    max X(q) W(low)/X(q) W(high)/X(q)  e(spline) 
   0      8    11.971    19.460    0.15E-03    0.31E-03    0.25E-06
   0      8    11.971    12.209    0.13E-03    0.29E-03    0.25E-06
   1      8    11.971     4.655    0.22E-03    0.24E-03    0.21E-06
 Optimization of the real space projectors (new method)

 maximal supplied QI-value         = 25.13
 optimisation between [QCUT,QGAM] = [ 11.81, 23.88] = [ 39.08,159.64] Ry 
 Optimized for a Real-space Cutoff    1.41 Angstroem

   l    n(q)    QCUT    max X(q) W(low)/X(q) W(high)/X(q)  e(spline) 
   0     10    11.813    79.467    0.48E-04    0.30E-04    0.67E-06
   0     10    11.813    66.151    0.47E-04    0.30E-04    0.67E-06
   1     10    11.813    20.169    0.11E-03    0.17E-03    0.11E-05
   1     10    11.813    14.454    0.11E-03    0.17E-03    0.11E-05
 Optimization of the real space projectors (new method)

 maximal supplied QI-value         = 24.76
 optimisation between [QCUT,QGAM] = [ 11.88, 24.01] = [ 39.54,161.47] Ry 
 Optimized for a Real-space Cutoff    1.18 Angstroem

   l    n(q)    QCUT    max X(q) W(low)/X(q) W(high)/X(q)  e(spline) 
   0      8    11.883    20.381    0.86E-04    0.11E-03    0.31E-06
   0      8    11.883    15.268    0.94E-04    0.12E-03    0.33E-06
   1      8    11.883     5.964    0.19E-03    0.18E-04    0.33E-06
   1      8    11.883     5.382    0.17E-03    0.20E-04    0.29E-06
  PAW_PBE B 06Sep2000                   :
 energy of atom  1       EATOM=  -71.1703
 kinetic energy error for atom=    0.0009 (will be added to EATOM!!)
  PAW_PBE H 15Jun2001                   :
 energy of atom  2       EATOM=  -12.4884
 kinetic energy error for atom=    0.0008 (will be added to EATOM!!)
  PAW_PBE N 08Apr2002                   :
 energy of atom  3       EATOM= -264.5486
 kinetic energy error for atom=    0.0116 (will be added to EATOM!!)
  PAW_PBE O 08Apr2002                   :
 energy of atom  4       EATOM= -432.3788
 kinetic energy error for atom=    0.0194 (will be added to EATOM!!)
 
 
 POSCAR: B H N O                                 
  positions in direct lattice
  velocities in cartesian coordinates

 METAGGA = SCAN     LMAXTAU =  6    LMIXTAU =  F

 exchange correlation table for  LEXCH =        8
   RHO(1)=    0.500       N(1)  =     2000
   RHO(2)=  100.500       N(2)  =     4000
 


--------------------------------------------------------------------------------------------------------


 ion  position               nearest neighbor table
   1  0.321  0.502  0.445-  30 1.45  23 1.45  29 1.45
   2  0.321  0.501  0.500-  31 1.45  30 1.45  24 1.45
   3  0.321  0.500  0.556-  31 1.45  32 1.45  25 1.45
   4  0.312  0.498  0.611-  39 1.36  37 1.38  32 1.45
   5  0.821  0.503  0.445-  34 1.45  26 1.45  33 1.45
   6  0.821  0.501  0.500-  35 1.45  34 1.45  27 1.45
   7  0.821  0.502  0.556-  35 1.45  36 1.45  28 1.45
   8  0.812  0.506  0.611-  43 1.36  38 1.38  36 1.45
   9  0.071  0.503  0.417-  40 1.37  23 1.44  33 1.45
  10  0.071  0.502  0.473-  23 1.44  24 1.44  34 1.45
  11  0.071  0.501  0.528-  25 1.44  24 1.44  35 1.45
  12  0.071  0.501  0.583-  37 1.37  25 1.44  36 1.45
  13  0.571  0.504  0.417-  41 1.37  26 1.44  29 1.45
  14  0.571  0.502  0.473-  26 1.44  27 1.44  30 1.45
  15  0.571  0.501  0.528-  28 1.44  27 1.44  31 1.45
  16  0.571  0.502  0.583-  38 1.37  28 1.44  32 1.45
  17  0.312  0.498  0.390-  42 1.36  40 1.38  29 1.45
  18  0.812  0.508  0.390-  44 1.36  41 1.38  33 1.45
  19  0.296  0.492  0.654-  39 0.97
  20  0.296  0.489  0.347-  42 0.97
  21  0.796  0.512  0.654-  43 0.97
  22  0.796  0.515  0.347-  44 0.97
  23  0.154  0.502  0.445-  10 1.44   9 1.44   1 1.45
  24  0.154  0.501  0.500-  11 1.44  10 1.44   2 1.45
  25  0.154  0.501  0.556-  11 1.44  12 1.44   3 1.45
  26  0.654  0.503  0.445-  14 1.44  13 1.44   5 1.45
  27  0.654  0.501  0.500-  15 1.44  14 1.44   6 1.45
  28  0.654  0.501  0.556-  15 1.44  16 1.44   7 1.45
  29  0.404  0.502  0.417-  17 1.45  13 1.45   1 1.45
  30  0.404  0.502  0.473-   1 1.45   2 1.45  14 1.45
  31  0.404  0.501  0.528-   3 1.45   2 1.45  15 1.45
  32  0.404  0.500  0.584-  16 1.45   4 1.45   3 1.45
  33  0.904  0.505  0.417-  18 1.45   9 1.45   5 1.45
  34  0.904  0.502  0.473-   5 1.45   6 1.45  10 1.45
  35  0.904  0.501  0.528-   7 1.45   6 1.45  11 1.45
  36  0.904  0.503  0.584-  12 1.45   8 1.45   7 1.45
  37  0.154  0.499  0.609-  12 1.37   4 1.38
  38  0.654  0.505  0.609-  16 1.37   8 1.38
  39  0.375  0.494  0.639-  19 0.97   4 1.36
  40  0.154  0.500  0.392-   9 1.37  17 1.38
  41  0.654  0.507  0.392-  13 1.37  18 1.38
  42  0.375  0.491  0.362-  20 0.97  17 1.36
  43  0.875  0.511  0.639-  21 0.97   8 1.36
  44  0.875  0.513  0.362-  22 0.97  18 1.36
 
  LATTYP: Found a simple orthorhombic cell.
 ALAT       =     8.7025000000
 B/A-ratio  =     1.7236426314
 C/A-ratio  =     5.1709278943
  
  Lattice vectors:
  
 A1 = (   0.0000000000,  -8.7025000000,   0.0000000000)
 A2 = (  15.0000000000,   0.0000000000,   0.0000000000)
 A3 = (   0.0000000000,   0.0000000000,  45.0000000000)


Analysis of symmetry for initial positions (statically):
=====================================================================
 Subroutine PRICEL returns:
 Original cell was already a primitive cell.
 

 Routine SETGRP: Setting up the symmetry group for a 
 simple orthorhombic supercell.


 Subroutine GETGRP returns: Found  1 space group operations
 (whereof  1 operations were pure point group operations)
 out of a pool of  8 trial point group operations.


The static configuration has the point symmetry C_1 .


Analysis of symmetry for dynamics (positions and initial velocities):
=====================================================================
 Subroutine PRICEL returns:
 Original cell was already a primitive cell.
 

 Routine SETGRP: Setting up the symmetry group for a 
 simple orthorhombic supercell.


 Subroutine GETGRP returns: Found  1 space group operations
 (whereof  1 operations were pure point group operations)
 out of a pool of  8 trial point group operations.


The dynamic configuration has the point symmetry C_1 .


Analysis of constrained symmetry for selective dynamics:
=====================================================================
 Subroutine PRICEL returns:
 Original cell was already a primitive cell.
 

 Routine SETGRP: Setting up the symmetry group for a 
 simple orthorhombic supercell.


 Subroutine GETGRP returns: Found  1 space group operations
 (whereof  1 operations were pure point group operations)
 out of a pool of  8 trial point group operations.


The constrained configuration has the point symmetry C_1 .


Analysis of structural, dynamic, and magnetic symmetry:
=====================================================================
 Subroutine PRICEL returns:
 Original cell was already a primitive cell.
 

 Routine SETGRP: Setting up the symmetry group for a 
 simple orthorhombic supercell.


 Subroutine GETGRP returns: Found  1 space group operations
 (whereof  1 operations were pure point group operations)
 out of a pool of  8 trial point group operations.


The magnetic configuration has the point symmetry C_1 .


 Subroutine INISYM returns: Found  1 space group operations
 (whereof  1 operations are pure point group operations),
 and found     1 'primitive' translations

 
 
 KPOINTS: K-Point Grid                            

Automatic generation of k-mesh.
Space group operators:
 irot       det(A)        alpha          n_x          n_y          n_z        tau_x        tau_y        tau_z
    1     1.000000     0.000001     1.000000     0.000000     0.000000     0.000000     0.000000     0.000000
 
 Subroutine IBZKPT returns following result:
 ===========================================
 
 Found      8 irreducible k-points:
 
 Following reciprocal coordinates:
            Coordinates               Weight
  0.125000  0.125000  0.000000      2.000000
  0.375000  0.125000  0.000000      2.000000
 -0.375000  0.125000  0.000000      2.000000
 -0.125000  0.125000  0.000000      2.000000
  0.125000  0.375000  0.000000      2.000000
  0.375000  0.375000  0.000000      2.000000
 -0.375000  0.375000  0.000000      2.000000
 -0.125000  0.375000  0.000000      2.000000
 
 Following cartesian coordinates:
            Coordinates               Weight
  0.008333 -0.014364  0.000000      2.000000
  0.008333 -0.043091  0.000000      2.000000
  0.008333  0.043091  0.000000      2.000000
  0.008333  0.014364  0.000000      2.000000
  0.025000 -0.014364  0.000000      2.000000
  0.025000 -0.043091  0.000000      2.000000
  0.025000  0.043091  0.000000      2.000000
  0.025000  0.014364  0.000000      2.000000
 


--------------------------------------------------------------------------------------------------------




 Dimension of arrays:
   k-points           NKPTS =      8   k-points in BZ     NKDIM =      8   number of bands    NBANDS=    136
   number of dos      NEDOS =   1200   number of ions     NIONS =     44
   non local maximal  LDIM  =      4   non local SUM 2l+1 LMDIM =      8
   total plane-waves  NPLWV = ******
   max r-space proj   IRMAX =   5874   max aug-charges    IRDMAX=   8004
   dimension x,y,z NGX =    70 NGY =  120 NGZ =  350
   dimension x,y,z NGXF=   140 NGYF=  240 NGZF=  700
   support grid    NGXF=   140 NGYF=  240 NGZF=  700
   ions per type =              18   4  14   8
   NGX,Y,Z   is equivalent  to a cutoff of  13.37, 13.30, 12.93 a.u.
   NGXF,Y,Z  is equivalent  to a cutoff of  26.74, 26.60, 25.86 a.u.

 SYSTEM =  SiC                                     
 POSCAR =  B H N O                                 

 Startparameter for this run:
   NWRITE =      2    write-flag & timer
   PREC   = accura    normal or accurate (medium, high low for compatibility)
   ISTART =      1    job   : 0-new  1-cont  2-samecut
   ICHARG =      0    charge: 1-file 2-atom 10-const
   ISPIN  =      2    spin polarized calculation?
   LNONCOLLINEAR =      F non collinear calculations
   LSORBIT =      F    spin-orbit coupling
   INIWAV =      1    electr: 0-lowe 1-rand  2-diag
   LASPH  =      T    aspherical Exc in radial PAW
   METAGGA=      F    non-selfconsistent MetaGGA calc.

 Electronic Relaxation 1
   ENCUT  =  550.0 eV  40.42 Ry    6.36 a.u.  16.64 28.68 86.05*2*pi/ulx,y,z
   ENINI  =  550.0     initial cutoff
   ENAUG  =  627.1 eV  augmentation charge cutoff
   NELM   =    100;   NELMIN=  2; NELMDL=  0     # of ELM steps 
   EDIFF  = 0.1E-04   stopping-criterion for ELM
   LREAL  =      T    real-space projection
   NLSPLINE    = F    spline interpolate recip. space projectors
   LCOMPAT=      F    compatible to vasp.4.4
   GGA_COMPAT  = T    GGA compatible to vasp.4.4-vasp.4.6
   LMAXPAW     = -100 max onsite density
   LMAXMIX     =    2 max onsite mixed and CHGCAR
   VOSKOWN=      0    Vosko Wilk Nusair interpolation
   ROPT   =   -0.00025  -0.00025  -0.00025  -0.00025
 Ionic relaxation
   EDIFFG = -.2E-01   stopping-criterion for IOM
   NSW    =    500    number of steps for IOM
   NBLOCK =      1;   KBLOCK =    500    inner block; outer block 
   IBRION =      2    ionic relax: 0-MD 1-quasi-New 2-CG
   NFREE  =      1    steps in history (QN), initial steepest desc. (CG)
   ISIF   =      2    stress and relaxation
   IWAVPR =     11    prediction:  0-non 1-charg 2-wave 3-comb
   ISYM   =      2    0-nonsym 1-usesym 2-fastsym
   LCORR  =      T    Harris-Foulkes like correction to forces

   POTIM  = 0.5000    time-step for ionic-motion
   TEIN   =    0.0    initial temperature
   TEBEG  =    0.0;   TEEND  =   0.0 temperature during run
   SMASS  =  -3.00    Nose mass-parameter (am)
   estimated Nose-frequenzy (Omega)   =  0.10E-29 period in steps =****** mass=  -0.173E-26a.u.
   SCALEE = 1.0000    scale energy and forces
   NPACO  =    256;   APACO  = 16.0  distance and # of slots for P.C.
   PSTRESS=    0.0 pullay stress

  Mass of Ions in am
   POMASS =  10.81  1.00 14.00 16.00
  Ionic Valenz
   ZVAL   =   3.00  1.00  5.00  6.00
  Atomic Wigner-Seitz radii
   RWIGS  =  -1.00 -1.00 -1.00 -1.00
  virtual crystal weights 
   VCA    =   1.00  1.00  1.00  1.00
   NELECT =     176.0000    total number of electrons
   NUPDOWN=      -1.0000    fix difference up-down

 DOS related values:
   EMIN   =  10.00;   EMAX   =-10.00  energy-range for DOS
   EFERMI =   0.00
   ISMEAR =     0;   SIGMA  =   0.05  broadening in eV -4-tet -1-fermi 0-gaus

 Electronic relaxation 2 (details)
   IALGO  =     68    algorithm
   LDIAG  =      T    sub-space diagonalisation (order eigenvalues)
   LSUBROT=      F    optimize rotation matrix (better conditioning)
   TURBO    =      0    0=normal 1=particle mesh
   IRESTART =      0    0=no restart 2=restart with 2 vectors
   NREBOOT  =      0    no. of reboots
   NMIN     =      0    reboot dimension
   EREF     =   0.00    reference energy to select bands
   IMIX   =      4    mixing-type and parameters
     AMIX     =   0.40;   BMIX     =  1.00
     AMIX_MAG =   1.60;   BMIX_MAG =  1.00
     AMIN     =   0.10
     WC   =   100.;   INIMIX=   1;  MIXPRE=   1;  MAXMIX= -45

 Intra band minimization:
   WEIMIN = 0.0010     energy-eigenvalue tresh-hold
   EBREAK =  0.18E-07  absolut break condition
   DEPER  =   0.30     relativ break condition  

   TIME   =   0.40     timestep for ELM

  volume/ion in A,a.u.               =     133.50       900.93
  Fermi-wavevector in a.u.,A,eV,Ry     =   0.508467  0.960864  3.517638  0.258539
  Thomas-Fermi vector in A             =   1.520497
 
 Write flags
   LWAVE        =      T    write WAVECAR
   LDOWNSAMPLE  =      F    k-point downsampling of WAVECAR
   LCHARG       =      F    write CHGCAR
   LVTOT        =      F    write LOCPOT, total local potential
   LVHAR        =      T    write LOCPOT, Hartree potential only
   LELF         =      F    write electronic localiz. function (ELF)
   LORBIT       =     11    0 simple, 1 ext, 2 COOP (PROOUT), +10 PAW based schemes


 Dipole corrections
   LMONO  =      F    monopole corrections only (constant potential shift)
   LDIPOL =      F    correct potential (dipole corrections)
   IDIPOL =      0    1-x, 2-y, 3-z, 4-all directions 
   EPSILON=  1.0000000 bulk dielectric constant

 Exchange correlation treatment:
   GGA     =    --    GGA type
   LEXCH   =     8    internal setting for exchange type
   VOSKOWN=      0    Vosko Wilk Nusair interpolation
   LHFCALC =     F    Hartree Fock is set to
   LHFONE  =     F    Hartree Fock one center treatment
   AEXX    =    0.0000 exact exchange contribution

 Linear response parameters
   LEPSILON=     F    determine dielectric tensor
   LRPA    =     F    only Hartree local field effects (RPA)
   LNABLA  =     F    use nabla operator in PAW spheres
   LVEL    =     F    velocity operator in full k-point grid
   LINTERFAST=   F  fast interpolation
   KINTER  =     0    interpolate to denser k-point grid
   CSHIFT  =0.1000    complex shift for real part using Kramers Kronig
   OMEGAMAX=  -1.0    maximum frequency
   DEG_THRESHOLD= 0.2000000E-02 threshold for treating states as degnerate
   RTIME   =   -0.100 relaxation time in fs
  (WPLASMAI=    0.000 imaginary part of plasma frequency in eV, 0.658/RTIME)
   DFIELD  = 0.0000000 0.0000000 0.0000000 field for delta impulse in time
 
 Orbital magnetization related:
   ORBITALMAG=     F  switch on orbital magnetization
   LCHIMAG   =     F  perturbation theory with respect to B field
   DQ        =  0.001000  dq finite difference perturbation B field
   LLRAUG    =     F  two centre corrections for induced B field

 Solvation model:
   LSOL    =     T         switch on solvation model
   EB_K    = 78.400000     relative permittivity of the bulk solvent
   SIGMA_K =  0.600000     width of the dielectric cavity
   NC_K    =  0.002500     cutoff charge density
   TAU     =  0.000000     cavity surface tension
   LAMBDA_D_K    =  3.040000     Debye length in Angstroms
   LRHOB     =     F     write boundcharge  density
   LRHOION     =     F     write ioniccharge density



--------------------------------------------------------------------------------------------------------


 conjugate gradient relaxation of ions
   using selective dynamics as specified on POSCAR
 charge density and potential will be updated during run
 spin polarized calculation
 RMM-DIIS sequential band-by-band and
  variant of blocked Davidson during initial phase
 perform sub-space diagonalisation
    before iterative eigenvector-optimisation
 modified Broyden-mixing scheme, WC =      100.0
 initial mixing is a Kerker type mixing with AMIX =  0.4000 and BMIX =      1.0000
 Hartree-type preconditioning will be used
 using additional bands           48
 real space projection scheme for non local part
 use partial core corrections
 calculate Harris-corrections to forces 
   (improved forces if not selfconsistent)
 use gradient corrections 
 use of overlap-Matrix (Vanderbilt PP)
 Gauss-broadening in eV      SIGMA  =   0.05


--------------------------------------------------------------------------------------------------------


  energy-cutoff  :      550.00
  volume of cell :     5874.19
      direct lattice vectors                 reciprocal lattice vectors
     0.000000000 -8.702500000  0.000000000     0.000000000 -0.114909509  0.000000000
    15.000000000  0.000000000  0.000000000     0.066666667  0.000000000  0.000000000
     0.000000000  0.000000000 45.000000000     0.000000000  0.000000000  0.022222222

  length of vectors
     8.702500000 15.000000000 45.000000000     0.114909509  0.066666667  0.022222222


 
 old parameters found on file WAVECAR:
  energy-cutoff  :      550.00
  volume of cell :     5874.19
      direct lattice vectors                 reciprocal lattice vectors
     0.000000000 -8.702500000  0.000000000     0.000000000 -0.114909509  0.000000000
    15.000000000  0.000000000  0.000000000     0.066666667  0.000000000  0.000000000
     0.000000000  0.000000000 45.000000000     0.000000000  0.000000000  0.022222222

  length of vectors

 
 k-points in units of 2pi/SCALE and weight: K-Point Grid                            
   0.00833333 -0.01436369  0.00000000       0.125
   0.00833333 -0.04309107  0.00000000       0.125
   0.00833333  0.04309107  0.00000000       0.125
   0.00833333  0.01436369  0.00000000       0.125
   0.02500000 -0.01436369  0.00000000       0.125
   0.02500000 -0.04309107  0.00000000       0.125
   0.02500000  0.04309107  0.00000000       0.125
   0.02500000  0.01436369  0.00000000       0.125
 
 k-points in reciprocal lattice and weights: K-Point Grid                            
   0.12500000  0.12500000  0.00000000       0.125
   0.37500000  0.12500000  0.00000000       0.125
  -0.37500000  0.12500000  0.00000000       0.125
  -0.12500000  0.12500000  0.00000000       0.125
   0.12500000  0.37500000  0.00000000       0.125
   0.37500000  0.37500000  0.00000000       0.125
  -0.37500000  0.37500000  0.00000000       0.125
  -0.12500000  0.37500000  0.00000000       0.125
 
 position of ions in fractional coordinates (direct lattice) 
   0.32104973  0.50178542  0.44481293
   0.32080119  0.50124751  0.50038969
   0.32094579  0.50049444  0.55596796
   0.31207819  0.49795226  0.61090138
   0.82105238  0.50337071  0.44481698
   0.82079976  0.50140236  0.50038952
   0.82097149  0.50162044  0.55596679
   0.81203877  0.50586161  0.61088034
   0.07067790  0.50252867  0.41737982
   0.07082330  0.50180303  0.47273463
   0.07077236  0.50102875  0.52802686
   0.07055453  0.50107299  0.58337699
   0.57069271  0.50386490  0.41738872
   0.57081509  0.50195454  0.47273613
   0.57077510  0.50097897  0.52802794
   0.57053959  0.50178594  0.58337308
   0.31222647  0.49787050  0.38990304
   0.81219904  0.50824734  0.38989840
   0.29620314  0.49246155  0.65375415
   0.29648955  0.48868679  0.34708183
   0.79609329  0.51235838  0.65371105
   0.79623035  0.51496765  0.34704175
   0.15408266  0.50197050  0.44506561
   0.15435902  0.50121297  0.50038470
   0.15396854  0.50068001  0.55570176
   0.65409769  0.50315994  0.44507221
   0.65435674  0.50128718  0.50038497
   0.65399958  0.50124284  0.55570120
   0.40403210  0.50155478  0.41679176
   0.40431363  0.50177423  0.47260195
   0.40425092  0.50083861  0.52818134
   0.40387481  0.50012961  0.58399293
   0.90399713  0.50477216  0.41679108
   0.90432182  0.50203385  0.47260169
   0.90425957  0.50109217  0.52818090
   0.90390685  0.50266152  0.58398972
   0.15368594  0.49939248  0.60921093
   0.65367306  0.50469536  0.60919499
   0.37467977  0.49395820  0.63854743
   0.15382251  0.50006254  0.39155522
   0.65378643  0.50738894  0.39157373
   0.37479140  0.49125151  0.36231075
   0.87460336  0.51062511  0.63851242
   0.87466512  0.51283310  0.36225289
 
 position of ions in cartesian coordinates  (Angst):
   7.52678134 -2.79393530 20.01658173
   7.51871258 -2.79177235 22.51753593
   7.50741656 -2.79303074 25.01855809
   7.46928389 -2.71586047 27.49056214
   7.55056069 -7.14520836 20.01676412
   7.52103538 -7.14300989 22.51752857
   7.52430666 -7.14450439 25.01850539
   7.58792412 -7.06676741 27.48961510
   7.53793000 -0.61507442 18.78209172
   7.52704549 -0.61633978 21.27305816
   7.51543123 -0.61589648 23.76120858
   7.51609480 -0.61400083 26.25196437
   7.55797356 -4.96645333 18.78249225
   7.52931808 -4.96751832 21.27312582
   7.51468455 -4.96717031 23.76125738
   7.52678913 -4.96512078 26.25178842
   7.46805748 -2.71715087 17.54563662
   7.62371004 -7.06816218 17.54542804
   7.38692330 -2.57770782 29.41893657
   7.33030181 -2.58020034 15.61868224
   7.68537570 -6.92800181 29.41699727
   7.72451475 -6.92919462 15.61687888
   7.52955749 -1.34090434 20.02795235
   7.51819452 -1.34330939 22.51731143
   7.51020011 -1.33991121 25.00657900
   7.54739916 -5.69228512 20.02824950
   7.51930770 -5.69453957 22.51732373
   7.51864266 -5.69143135 25.00655421
   7.52332163 -3.51608931 18.75562934
   7.52661347 -3.51853940 21.26708773
   7.51257911 -3.51799364 23.76816019
   7.50194422 -3.51472053 26.27968183
   7.57158243 -7.86703503 18.75559877
   7.53050781 -7.86986067 21.26707610
   7.51638261 -7.86931890 23.76814052
   7.53992286 -7.86624935 26.27953752
   7.49088713 -1.33745189 27.41449194
   7.57043044 -5.68858983 27.41377447
   7.40937293 -3.26065069 28.73463440
   7.50093808 -1.33864039 17.61998496
   7.61083412 -5.68957642 17.62081763
   7.36877270 -3.26162220 16.30398391
   7.65937667 -7.61123571 28.73305886
   7.69249644 -7.61177321 16.30137993
 


--------------------------------------------------------------------------------------------------------


 k-point  1 :   0.1250 0.1250 0.0000  plane waves:  172058
 k-point  2 :   0.3750 0.1250 0.0000  plane waves:  171988
 k-point  3 :  -0.3750 0.1250 0.0000  plane waves:  171988
 k-point  4 :  -0.1250 0.1250 0.0000  plane waves:  172058
 k-point  5 :   0.1250 0.3750 0.0000  plane waves:  172081
 k-point  6 :   0.3750 0.3750 0.0000  plane waves:  171978
 k-point  7 :  -0.3750 0.3750 0.0000  plane waves:  171978
 k-point  8 :  -0.1250 0.3750 0.0000  plane waves:  172081

 maximum and minimum number of plane-waves per node :     14366    14280

 maximum number of plane-waves:    172081
 maximum index in each direction: 
   IXMAX=   17   IYMAX=   28   IZMAX=   86
   IXMIN=  -17   IYMIN=  -29   IZMIN=  -86


 real space projection operators:
  total allocation   :      10857.27 KBytes
  max/ min on nodes  :        936.31        808.41


 parallel 3D FFT for wavefunctions:
    minimum data exchange during FFTs selected (reduces bandwidth)
 parallel 3D FFT for charge:
    minimum data exchange during FFTs selected (reduces bandwidth)


 total amount of memory used by VASP MPI-rank0   278094. kBytes
=======================================================================

   base      :      30000. kBytes
   nonlr-proj:       5512. kBytes
   fftplans  :      24463. kBytes
   grid      :      92897. kBytes
   one-center:         24. kBytes
   wavefun   :     125198. kBytes
 
     INWAV:  cpu time   24.8876: real time   30.2933
 Broyden mixing: mesh for mixing (old mesh)
   NGX = 33   NGY = 57   NGZ =173
  (NGX  =140   NGY  =240   NGZ  =700)
  gives a total of 325413 points

 charge density for first step will be calculated from the start-wavefunctions


--------------------------------------------------------------------------------------------------------


 Maximum index for non-local projection operator          591
 Maximum index for augmentation-charges          433 (set IRDMAX)


--------------------------------------------------------------------------------------------------------


 initial charge from wavefunction
 First call to EWALD:  gamma=   0.098
 Maximum number of real-space cells 5x 3x 1
 Maximum number of reciprocal cells 2x 2x 6

    FEWALD:  cpu time    0.0601: real time    0.0304


--------------------------------------- Iteration      1(   1)  ---------------------------------------


    POTLOK:  cpu time   20.7244: real time   20.7222
    SETDIJ:  cpu time    0.7416: real time    0.5408
     EDDAV:  cpu time   63.4339: real time   32.3215
       DOS:  cpu time    0.1159: real time    0.0899
    CHARGE:  cpu time    6.6099: real time    5.9100
    MIXING:  cpu time    0.1161: real time    0.0582
    --------------------------------------------
      LOOP:  cpu time   91.7420: real time   59.6428

 eigenvalue-minimisations  :  4480
 total energy-change (2. order) :-0.3992579E+03  (-0.2254585E-02)
 number of electron     175.9999997 magnetization      -0.0000000
 augmentation part        8.6052118 magnetization      -0.0000005

 Broyden mixing:
  rms(total) = 0.72383E-02    rms(broyden)= 0.72031E-02
  rms(prec ) = 0.72325E-02
  weight for this iteration     100.00

 Free energy of the ion-electron system (eV)
  ---------------------------------------------------
  alpha Z        PSCENC =        27.24936552
  Ewald energy   TEWEN  =     53179.44667176
  -Hartree energ DENC   =    -60456.90271689
  -exchange      EXHF   =         0.00000000
  -V(xc)+E(xc)   XCENC  =       814.70940809
  PAW double counting   =     19958.50500085   -20036.37124192
  entropy T*S    EENTRO =        -0.00000000
  eigenvalues    EBANDS =     -2465.65011930
  atomic energy  EATOM  =      8493.39196546
  Solvation  Ediel_sol  =        86.36372379
  ---------------------------------------------------
  free energy    TOTEN  =      -399.25794263 eV

  energy without entropy =     -399.25794263  energy(sigma->0) =     -399.25794263


--------------------------------------------------------------------------------------------------------




--------------------------------------- Iteration      1(   2)  ---------------------------------------


    POTLOK:  cpu time   13.5582: real time   13.4857
    SETDIJ:  cpu time    1.3285: real time    1.1291
    EDDIAG:  cpu time   11.1521: real time    7.4111
  RMM-DIIS:  cpu time   80.3887: real time   40.7287
    ORTHCH:  cpu time    0.2555: real time    0.1321
       DOS:  cpu time    0.0316: real time    0.0159
    CHARGE:  cpu time    6.6288: real time    5.8760
    MIXING:  cpu time    0.2261: real time    0.1153
    --------------------------------------------
      LOOP:  cpu time  113.5695: real time   68.8938

 eigenvalue-minimisations  :  4352
 total energy-change (2. order) : 0.8205855E-04  (-0.3154904E-04)
 number of electron     175.9999997 magnetization      -0.0000000
 augmentation part        8.6048723 magnetization      -0.0000004

 Broyden mixing:
  rms(total) = 0.46127E-02    rms(broyden)= 0.46099E-02
  rms(prec ) = 0.46273E-02
  weight for this iteration     100.00

 eigenvalues of (default mixing * dielectric matrix)
  average eigenvalue GAMMA=   2.4293
  2.4293

 Free energy of the ion-electron system (eV)
  ---------------------------------------------------
  alpha Z        PSCENC =        27.24936552
  Ewald energy   TEWEN  =     53179.44667176
  -Hartree energ DENC   =    -60456.90655899
  -exchange      EXHF   =         0.00000000
  -V(xc)+E(xc)   XCENC  =       814.70813730
  PAW double counting   =     19959.30242746   -20037.16714346
  entropy T*S    EENTRO =        -0.00000000
  eigenvalues    EBANDS =     -2465.66062008
  atomic energy  EATOM  =      8493.39196546
  Solvation  Ediel_sol  =        86.37789445
  ---------------------------------------------------
  free energy    TOTEN  =      -399.25786057 eV

  energy without entropy =     -399.25786057  energy(sigma->0) =     -399.25786057


--------------------------------------------------------------------------------------------------------




--------------------------------------- Iteration      1(   3)  ---------------------------------------


    POTLOK:  cpu time   13.7190: real time   13.7378
    SETDIJ:  cpu time    1.3324: real time    1.1332
    EDDIAG:  cpu time   10.8365: real time    7.0814
  RMM-DIIS:  cpu time   78.8240: real time   40.0138
    ORTHCH:  cpu time    0.2591: real time    0.1315
       DOS:  cpu time    0.0317: real time    0.0159
    CHARGE:  cpu time    6.5810: real time    5.8652
    MIXING:  cpu time    0.0870: real time    0.0436
    --------------------------------------------
      LOOP:  cpu time  111.6708: real time   68.0224

 eigenvalue-minimisations  :  4224
 total energy-change (2. order) :-0.2227456E-03  (-0.1735717E-04)
 number of electron     175.9999997 magnetization      -0.0000000
 augmentation part        8.6046568 magnetization      -0.0000006

 Broyden mixing:
  rms(total) = 0.74051E-03    rms(broyden)= 0.73852E-03
  rms(prec ) = 0.74462E-03
  weight for this iteration     100.00

 eigenvalues of (default mixing * dielectric matrix)
  average eigenvalue GAMMA=   1.8983
  1.1168  2.6798

 Free energy of the ion-electron system (eV)
  ---------------------------------------------------
  alpha Z        PSCENC =        27.24936552
  Ewald energy   TEWEN  =     53179.44667176
  -Hartree energ DENC   =    -60456.87471908
  -exchange      EXHF   =         0.00000000
  -V(xc)+E(xc)   XCENC  =       814.69739785
  PAW double counting   =     19959.64807765   -20037.50990110
  entropy T*S    EENTRO =        -0.00000000
  eigenvalues    EBANDS =     -2465.70834671
  atomic energy  EATOM  =      8493.39196546
  Solvation  Ediel_sol  =        86.40140532
  ---------------------------------------------------
  free energy    TOTEN  =      -399.25808332 eV

  energy without entropy =     -399.25808332  energy(sigma->0) =     -399.25808332


--------------------------------------------------------------------------------------------------------




--------------------------------------- Iteration      1(   4)  ---------------------------------------


    POTLOK:  cpu time   12.4074: real time   12.3268
    SETDIJ:  cpu time    1.2439: real time    1.0482
    EDDIAG:  cpu time   10.8034: real time    7.0624
  RMM-DIIS:  cpu time   63.2926: real time   31.8744
    ORTHCH:  cpu time    0.2589: real time    0.1312
       DOS:  cpu time    0.0315: real time    0.0158
    --------------------------------------------
      LOOP:  cpu time   88.0375: real time   52.4587

 eigenvalue-minimisations  :  2972
 total energy-change (2. order) : 0.9242649E-06  (-0.1333279E-05)
 number of electron     175.9999997 magnetization      -0.0000000
 augmentation part        8.6046568 magnetization      -0.0000006

 Free energy of the ion-electron system (eV)
  ---------------------------------------------------
  alpha Z        PSCENC =        27.24936552
  Ewald energy   TEWEN  =     53179.44667176
  -Hartree energ DENC   =    -60456.85695305
  -exchange      EXHF   =         0.00000000
  -V(xc)+E(xc)   XCENC  =       814.69412860
  PAW double counting   =     19959.67895064   -20037.54043664
  entropy T*S    EENTRO =        -0.00000000
  eigenvalues    EBANDS =     -2465.73523902
  atomic energy  EATOM  =      8493.39196546
  Solvation  Ediel_sol  =        86.41346433
  ---------------------------------------------------
  free energy    TOTEN  =      -399.25808240 eV

  energy without entropy =     -399.25808240  energy(sigma->0) =     -399.25808240


--------------------------------------------------------------------------------------------------------




 average (electrostatic) potential at core
  the test charge radii are     0.7672  0.5201  0.7089  0.7215
  (the norm of the test charge is              1.0000)
       1 -38.5576       2 -38.4925       3 -38.5578       4 -39.1494       5 -38.5582
       6 -38.4928       7 -38.5574       8 -39.1483       9 -38.9166      10 -38.4678
      11 -38.4672      12 -38.9133      13 -38.9157      14 -38.4678      15 -38.4676
      16 -38.9143      17 -39.1518      18 -39.1506      19 -46.4983      20 -46.4961
      21 -46.5053      22 -46.5040      23 -76.0671      24 -76.0460      25 -76.0556
      26 -76.0661      27 -76.0461      28 -76.0557      29 -76.1134      30 -76.0573
      31 -76.0597      32 -76.1084      33 -76.1126      34 -76.0575      35 -76.0598
      36 -76.1110      37 -84.6250      38 -84.6262      39 -84.4790      40 -84.6277
      41 -84.6281      42 -84.4795      43 -84.4782      44 -84.4782
 
 
 
 E-fermi :  -6.1296     XC(G=0):  -0.8572     alpha+bet : -0.6680


 spin component 1

 k-point     1 :       0.1250    0.1250    0.0000
  band No.  band energies     occupation 
      1     -27.5250      1.00000
      2     -27.5246      1.00000
      3     -27.3503      1.00000
      4     -27.3499      1.00000
      5     -26.5632      1.00000
      6     -26.5621      1.00000
      7     -26.4358      1.00000
      8     -26.4348      1.00000
      9     -24.4968      1.00000
     10     -23.7587      1.00000
     11     -23.6603      1.00000
     12     -23.1425      1.00000
     13     -23.1339      1.00000
     14     -22.7911      1.00000
     15     -22.6150      1.00000
     16     -22.4767      1.00000
     17     -21.9341      1.00000
     18     -21.9319      1.00000
     19     -21.8645      1.00000
     20     -21.6270      1.00000
     21     -21.3172      1.00000
     22     -21.2885      1.00000
     23     -15.3148      1.00000
     24     -15.2409      1.00000
     25     -15.1961      1.00000
     26     -15.0949      1.00000
     27     -14.7461      1.00000
     28     -14.5960      1.00000
     29     -14.4907      1.00000
     30     -14.3379      1.00000
     31     -14.2779      1.00000
     32     -14.0093      1.00000
     33     -13.8731      1.00000
     34     -13.6090      1.00000
     35     -13.5363      1.00000
     36     -13.4558      1.00000
     37     -12.8376      1.00000
     38     -12.7787      1.00000
     39     -12.7650      1.00000
     40     -12.4490      1.00000
     41     -12.2061      1.00000
     42     -12.1574      1.00000
     43     -11.9434      1.00000
     44     -11.4428      1.00000
     45     -11.4280      1.00000
     46     -11.1960      1.00000
     47     -11.1917      1.00000
     48     -11.0988      1.00000
     49     -10.8054      1.00000
     50     -10.7688      1.00000
     51     -10.7607      1.00000
     52     -10.5114      1.00000
     53     -10.5074      1.00000
     54     -10.4931      1.00000
     55     -10.4368      1.00000
     56     -10.3514      1.00000
     57     -10.1944      1.00000
     58     -10.0957      1.00000
     59      -9.9244      1.00000
     60      -9.7723      1.00000
     61      -9.7697      1.00000
     62      -9.6415      1.00000
     63      -9.4828      1.00000
     64      -9.4340      1.00000
     65      -9.3401      1.00000
     66      -9.2911      1.00000
     67      -9.1898      1.00000
     68      -9.0687      1.00000
     69      -8.9924      1.00000
     70      -8.7264      1.00000
     71      -8.5854      1.00000
     72      -8.5168      1.00000
     73      -8.3749      1.00000
     74      -8.3739      1.00000
     75      -8.1977      1.00000
     76      -8.1833      1.00000
     77      -8.0435      1.00000
     78      -7.9508      1.00000
     79      -7.8602      1.00000
     80      -7.7485      1.00000
     81      -7.6339      1.00000
     82      -7.5698      1.00000
     83      -7.2201      1.00000
     84      -7.1316      1.00000
     85      -7.0446      1.00000
     86      -6.9157      1.00000
     87      -6.4124      1.00000
     88      -6.3728      1.00000
     89      -0.6914      0.00000
     90      -0.5852      0.00000
     91      -0.5607      0.00000
     92      -0.5482      0.00000
     93      -0.3648      0.00000
     94      -0.2360      0.00000
     95      -0.1827      0.00000
     96      -0.1252      0.00000
     97      -0.0972      0.00000
     98       0.0237      0.00000
     99       0.0503      0.00000
    100       0.1598      0.00000
    101       0.3460      0.00000
    102       0.3701      0.00000
    103       0.3716      0.00000
    104       0.4434      0.00000
    105       0.5634      0.00000
    106       0.5970      0.00000
    107       0.6278      0.00000
    108       0.6921      0.00000
    109       0.7094      0.00000
    110       0.7776      0.00000
    111       0.8128      0.00000
    112       0.8554      0.00000
    113       0.8716      0.00000
    114       0.8732      0.00000
    115       0.9296      0.00000
    116       0.9397      0.00000
    117       0.9994      0.00000
    118       1.0230      0.00000
    119       1.0537      0.00000
    120       1.1248      0.00000
    121       1.2967      0.00000
    122       1.3173      0.00000
    123       1.3794      0.00000
    124       1.4459      0.00000
    125       1.4466      0.00000
    126       1.4971      0.00000
    127       1.5383      0.00000
    128       1.5546      0.00000
    129       1.5630      0.00000
    130       1.5916      0.00000
    131       1.7618      0.00000
    132       1.7627      0.00000
    133       1.7965      0.00000
    134       1.8340      0.00000
    135       1.8341      0.00000
    136       1.8644      0.00000

 k-point     2 :       0.3750    0.1250    0.0000
  band No.  band energies     occupation 
      1     -27.4795      1.00000
      2     -27.4792      1.00000
      3     -27.4079      1.00000
      4     -27.4077      1.00000
      5     -26.5189      1.00000
      6     -26.5179      1.00000
      7     -26.4669      1.00000
      8     -26.4660      1.00000
      9     -24.3533      1.00000
     10     -24.0702      1.00000
     11     -23.6467      1.00000
     12     -23.4278      1.00000
     13     -22.7433      1.00000
     14     -22.7094      1.00000
     15     -22.4465      1.00000
     16     -22.2480      1.00000
     17     -22.0139      1.00000
     18     -21.9687      1.00000
     19     -21.7686      1.00000
     20     -21.7281      1.00000
     21     -21.5237      1.00000
     22     -21.4868      1.00000
     23     -15.0746      1.00000
     24     -15.0710      1.00000
     25     -14.9892      1.00000
     26     -14.9272      1.00000
     27     -14.6473      1.00000
     28     -14.5820      1.00000
     29     -14.4824      1.00000
     30     -14.4241      1.00000
     31     -14.3716      1.00000
     32     -13.8856      1.00000
     33     -13.8834      1.00000
     34     -13.6771      1.00000
     35     -13.6499      1.00000
     36     -13.5309      1.00000
     37     -13.3207      1.00000
     38     -13.1250      1.00000
     39     -12.8502      1.00000
     40     -12.6994      1.00000
     41     -12.1306      1.00000
     42     -12.0392      1.00000
     43     -11.9297      1.00000
     44     -11.4724      1.00000
     45     -11.3837      1.00000
     46     -11.2508      1.00000
     47     -11.2116      1.00000
     48     -11.0242      1.00000
     49     -10.8872      1.00000
     50     -10.8689      1.00000
     51     -10.7670      1.00000
     52     -10.7525      1.00000
     53     -10.7058      1.00000
     54     -10.5279      1.00000
     55     -10.3441      1.00000
     56     -10.2701      1.00000
     57     -10.0785      1.00000
     58     -10.0458      1.00000
     59      -9.8039      1.00000
     60      -9.7486      1.00000
     61      -9.4502      1.00000
     62      -9.3800      1.00000
     63      -9.3721      1.00000
     64      -9.2558      1.00000
     65      -9.2342      1.00000
     66      -9.1726      1.00000
     67      -9.0049      1.00000
     68      -8.9622      1.00000
     69      -8.8316      1.00000
     70      -8.7789      1.00000
     71      -8.5675      1.00000
     72      -8.5501      1.00000
     73      -8.4801      1.00000
     74      -8.3193      1.00000
     75      -8.2596      1.00000
     76      -8.1286      1.00000
     77      -8.0035      1.00000
     78      -7.9390      1.00000
     79      -7.9132      1.00000
     80      -7.7802      1.00000
     81      -7.7014      1.00000
     82      -7.5757      1.00000
     83      -7.4102      1.00000
     84      -7.2183      1.00000
     85      -7.0236      1.00000
     86      -6.9765      1.00000
     87      -6.7435      1.00000
     88      -6.6381      1.00000
     89      -0.4299      0.00000
     90      -0.3074      0.00000
     91      -0.2941      0.00000
     92      -0.2159      0.00000
     93      -0.1647      0.00000
     94      -0.1106      0.00000
     95       0.0765      0.00000
     96       0.1279      0.00000
     97       0.1493      0.00000
     98       0.2102      0.00000
     99       0.2695      0.00000
    100       0.2986      0.00000
    101       0.3913      0.00000
    102       0.4005      0.00000
    103       0.5803      0.00000
    104       0.5910      0.00000
    105       0.6133      0.00000
    106       0.6175      0.00000
    107       0.6433      0.00000
    108       0.6545      0.00000
    109       0.6911      0.00000
    110       0.7629      0.00000
    111       0.7951      0.00000
    112       0.8110      0.00000
    113       0.8411      0.00000
    114       0.8585      0.00000
    115       0.8749      0.00000
    116       0.8803      0.00000
    117       0.9550      0.00000
    118       1.0253      0.00000
    119       1.0789      0.00000
    120       1.1017      0.00000
    121       1.1026      0.00000
    122       1.1097      0.00000
    123       1.1153      0.00000
    124       1.1728      0.00000
    125       1.1840      0.00000
    126       1.1857      0.00000
    127       1.2439      0.00000
    128       1.2696      0.00000
    129       1.2991      0.00000
    130       1.3241      0.00000
    131       1.3575      0.00000
    132       1.3864      0.00000
    133       1.4417      0.00000
    134       1.4851      0.00000
    135       1.5201      0.00000
    136       1.5367      0.00000

 k-point     3 :      -0.3750    0.1250    0.0000
  band No.  band energies     occupation 
      1     -27.4795      1.00000
      2     -27.4792      1.00000
      3     -27.4079      1.00000
      4     -27.4077      1.00000
      5     -26.5189      1.00000
      6     -26.5179      1.00000
      7     -26.4669      1.00000
      8     -26.4660      1.00000
      9     -24.3533      1.00000
     10     -24.0702      1.00000
     11     -23.6467      1.00000
     12     -23.4278      1.00000
     13     -22.7433      1.00000
     14     -22.7094      1.00000
     15     -22.4465      1.00000
     16     -22.2480      1.00000
     17     -22.0139      1.00000
     18     -21.9687      1.00000
     19     -21.7686      1.00000
     20     -21.7281      1.00000
     21     -21.5237      1.00000
     22     -21.4868      1.00000
     23     -15.0746      1.00000
     24     -15.0710      1.00000
     25     -14.9892      1.00000
     26     -14.9272      1.00000
     27     -14.6473      1.00000
     28     -14.5820      1.00000
     29     -14.4824      1.00000
     30     -14.4241      1.00000
     31     -14.3716      1.00000
     32     -13.8856      1.00000
     33     -13.8834      1.00000
     34     -13.6771      1.00000
     35     -13.6499      1.00000
     36     -13.5309      1.00000
     37     -13.3207      1.00000
     38     -13.1250      1.00000
     39     -12.8502      1.00000
     40     -12.6994      1.00000
     41     -12.1306      1.00000
     42     -12.0392      1.00000
     43     -11.9297      1.00000
     44     -11.4724      1.00000
     45     -11.3837      1.00000
     46     -11.2508      1.00000
     47     -11.2116      1.00000
     48     -11.0242      1.00000
     49     -10.8872      1.00000
     50     -10.8689      1.00000
     51     -10.7670      1.00000
     52     -10.7525      1.00000
     53     -10.7058      1.00000
     54     -10.5279      1.00000
     55     -10.3441      1.00000
     56     -10.2701      1.00000
     57     -10.0785      1.00000
     58     -10.0458      1.00000
     59      -9.8039      1.00000
     60      -9.7486      1.00000
     61      -9.4502      1.00000
     62      -9.3800      1.00000
     63      -9.3721      1.00000
     64      -9.2558      1.00000
     65      -9.2342      1.00000
     66      -9.1726      1.00000
     67      -9.0049      1.00000
     68      -8.9622      1.00000
     69      -8.8316      1.00000
     70      -8.7789      1.00000
     71      -8.5675      1.00000
     72      -8.5501      1.00000
     73      -8.4801      1.00000
     74      -8.3193      1.00000
     75      -8.2596      1.00000
     76      -8.1286      1.00000
     77      -8.0035      1.00000
     78      -7.9390      1.00000
     79      -7.9132      1.00000
     80      -7.7802      1.00000
     81      -7.7014      1.00000
     82      -7.5757      1.00000
     83      -7.4102      1.00000
     84      -7.2183      1.00000
     85      -7.0236      1.00000
     86      -6.9765      1.00000
     87      -6.7435      1.00000
     88      -6.6381      1.00000
     89      -0.4299      0.00000
     90      -0.3074      0.00000
     91      -0.2941      0.00000
     92      -0.2159      0.00000
     93      -0.1647      0.00000
     94      -0.1106      0.00000
     95       0.0765      0.00000
     96       0.1279      0.00000
     97       0.1492      0.00000
     98       0.2102      0.00000
     99       0.2695      0.00000
    100       0.2986      0.00000
    101       0.3913      0.00000
    102       0.4005      0.00000
    103       0.5809      0.00000
    104       0.5910      0.00000
    105       0.6134      0.00000
    106       0.6168      0.00000
    107       0.6429      0.00000
    108       0.6550      0.00000
    109       0.6912      0.00000
    110       0.7630      0.00000
    111       0.7951      0.00000
    112       0.8110      0.00000
    113       0.8411      0.00000
    114       0.8585      0.00000
    115       0.8748      0.00000
    116       0.8801      0.00000
    117       0.9549      0.00000
    118       1.0253      0.00000
    119       1.0789      0.00000
    120       1.1014      0.00000
    121       1.1028      0.00000
    122       1.1097      0.00000
    123       1.1154      0.00000
    124       1.1728      0.00000
    125       1.1840      0.00000
    126       1.1857      0.00000
    127       1.2439      0.00000
    128       1.2696      0.00000
    129       1.2992      0.00000
    130       1.3241      0.00000
    131       1.3577      0.00000
    132       1.3863      0.00000
    133       1.4415      0.00000
    134       1.4853      0.00000
    135       1.5202      0.00000
    136       1.5366      0.00000

 k-point     4 :      -0.1250    0.1250    0.0000
  band No.  band energies     occupation 
      1     -27.5250      1.00000
      2     -27.5246      1.00000
      3     -27.3503      1.00000
      4     -27.3499      1.00000
      5     -26.5632      1.00000
      6     -26.5621      1.00000
      7     -26.4358      1.00000
      8     -26.4348      1.00000
      9     -24.4968      1.00000
     10     -23.7587      1.00000
     11     -23.6603      1.00000
     12     -23.1425      1.00000
     13     -23.1339      1.00000
     14     -22.7911      1.00000
     15     -22.6150      1.00000
     16     -22.4767      1.00000
     17     -21.9341      1.00000
     18     -21.9319      1.00000
     19     -21.8645      1.00000
     20     -21.6270      1.00000
     21     -21.3172      1.00000
     22     -21.2885      1.00000
     23     -15.3148      1.00000
     24     -15.2409      1.00000
     25     -15.1961      1.00000
     26     -15.0949      1.00000
     27     -14.7461      1.00000
     28     -14.5960      1.00000
     29     -14.4907      1.00000
     30     -14.3379      1.00000
     31     -14.2779      1.00000
     32     -14.0093      1.00000
     33     -13.8731      1.00000
     34     -13.6090      1.00000
     35     -13.5363      1.00000
     36     -13.4558      1.00000
     37     -12.8376      1.00000
     38     -12.7787      1.00000
     39     -12.7650      1.00000
     40     -12.4490      1.00000
     41     -12.2061      1.00000
     42     -12.1574      1.00000
     43     -11.9434      1.00000
     44     -11.4428      1.00000
     45     -11.4280      1.00000
     46     -11.1960      1.00000
     47     -11.1917      1.00000
     48     -11.0988      1.00000
     49     -10.8054      1.00000
     50     -10.7688      1.00000
     51     -10.7607      1.00000
     52     -10.5114      1.00000
     53     -10.5074      1.00000
     54     -10.4931      1.00000
     55     -10.4368      1.00000
     56     -10.3514      1.00000
     57     -10.1944      1.00000
     58     -10.0957      1.00000
     59      -9.9244      1.00000
     60      -9.7723      1.00000
     61      -9.7697      1.00000
     62      -9.6415      1.00000
     63      -9.4828      1.00000
     64      -9.4340      1.00000
     65      -9.3401      1.00000
     66      -9.2911      1.00000
     67      -9.1898      1.00000
     68      -9.0687      1.00000
     69      -8.9924      1.00000
     70      -8.7264      1.00000
     71      -8.5854      1.00000
     72      -8.5168      1.00000
     73      -8.3749      1.00000
     74      -8.3739      1.00000
     75      -8.1977      1.00000
     76      -8.1833      1.00000
     77      -8.0435      1.00000
     78      -7.9508      1.00000
     79      -7.8602      1.00000
     80      -7.7485      1.00000
     81      -7.6339      1.00000
     82      -7.5698      1.00000
     83      -7.2201      1.00000
     84      -7.1316      1.00000
     85      -7.0446      1.00000
     86      -6.9157      1.00000
     87      -6.4124      1.00000
     88      -6.3728      1.00000
     89      -0.6914      0.00000
     90      -0.5852      0.00000
     91      -0.5607      0.00000
     92      -0.5482      0.00000
     93      -0.3648      0.00000
     94      -0.2360      0.00000
     95      -0.1827      0.00000
     96      -0.1252      0.00000
     97      -0.0972      0.00000
     98       0.0237      0.00000
     99       0.0503      0.00000
    100       0.1598      0.00000
    101       0.3460      0.00000
    102       0.3702      0.00000
    103       0.3716      0.00000
    104       0.4434      0.00000
    105       0.5634      0.00000
    106       0.5970      0.00000
    107       0.6278      0.00000
    108       0.6921      0.00000
    109       0.7093      0.00000
    110       0.7775      0.00000
    111       0.8128      0.00000
    112       0.8554      0.00000
    113       0.8716      0.00000
    114       0.8732      0.00000
    115       0.9296      0.00000
    116       0.9397      0.00000
    117       0.9994      0.00000
    118       1.0230      0.00000
    119       1.0537      0.00000
    120       1.1249      0.00000
    121       1.2967      0.00000
    122       1.3173      0.00000
    123       1.3795      0.00000
    124       1.4460      0.00000
    125       1.4466      0.00000
    126       1.4972      0.00000
    127       1.5383      0.00000
    128       1.5546      0.00000
    129       1.5628      0.00000
    130       1.5916      0.00000
    131       1.7617      0.00000
    132       1.7626      0.00000
    133       1.7962      0.00000
    134       1.8338      0.00000
    135       1.8342      0.00000
    136       1.8648      0.00000

 k-point     5 :       0.1250    0.3750    0.0000
  band No.  band energies     occupation 
      1     -27.5250      1.00000
      2     -27.5246      1.00000
      3     -27.3503      1.00000
      4     -27.3499      1.00000
      5     -26.5632      1.00000
      6     -26.5621      1.00000
      7     -26.4358      1.00000
      8     -26.4348      1.00000
      9     -24.4968      1.00000
     10     -23.7587      1.00000
     11     -23.6603      1.00000
     12     -23.1425      1.00000
     13     -23.1339      1.00000
     14     -22.7911      1.00000
     15     -22.6150      1.00000
     16     -22.4767      1.00000
     17     -21.9341      1.00000
     18     -21.9319      1.00000
     19     -21.8645      1.00000
     20     -21.6271      1.00000
     21     -21.3172      1.00000
     22     -21.2885      1.00000
     23     -15.3148      1.00000
     24     -15.2409      1.00000
     25     -15.1961      1.00000
     26     -15.0949      1.00000
     27     -14.7461      1.00000
     28     -14.5960      1.00000
     29     -14.4907      1.00000
     30     -14.3379      1.00000
     31     -14.2779      1.00000
     32     -14.0093      1.00000
     33     -13.8731      1.00000
     34     -13.6090      1.00000
     35     -13.5363      1.00000
     36     -13.4558      1.00000
     37     -12.8376      1.00000
     38     -12.7787      1.00000
     39     -12.7650      1.00000
     40     -12.4490      1.00000
     41     -12.2061      1.00000
     42     -12.1574      1.00000
     43     -11.9434      1.00000
     44     -11.4428      1.00000
     45     -11.4280      1.00000
     46     -11.1960      1.00000
     47     -11.1917      1.00000
     48     -11.0988      1.00000
     49     -10.8054      1.00000
     50     -10.7688      1.00000
     51     -10.7607      1.00000
     52     -10.5114      1.00000
     53     -10.5074      1.00000
     54     -10.4931      1.00000
     55     -10.4368      1.00000
     56     -10.3514      1.00000
     57     -10.1944      1.00000
     58     -10.0957      1.00000
     59      -9.9244      1.00000
     60      -9.7723      1.00000
     61      -9.7697      1.00000
     62      -9.6415      1.00000
     63      -9.4828      1.00000
     64      -9.4340      1.00000
     65      -9.3401      1.00000
     66      -9.2911      1.00000
     67      -9.1898      1.00000
     68      -9.0687      1.00000
     69      -8.9924      1.00000
     70      -8.7264      1.00000
     71      -8.5854      1.00000
     72      -8.5168      1.00000
     73      -8.3749      1.00000
     74      -8.3738      1.00000
     75      -8.1977      1.00000
     76      -8.1833      1.00000
     77      -8.0435      1.00000
     78      -7.9508      1.00000
     79      -7.8602      1.00000
     80      -7.7485      1.00000
     81      -7.6339      1.00000
     82      -7.5698      1.00000
     83      -7.2201      1.00000
     84      -7.1316      1.00000
     85      -7.0446      1.00000
     86      -6.9157      1.00000
     87      -6.4124      1.00000
     88      -6.3728      1.00000
     89      -0.6640      0.00000
     90      -0.5852      0.00000
     91      -0.5607      0.00000
     92      -0.5482      0.00000
     93      -0.3286      0.00000
     94      -0.2360      0.00000
     95      -0.1828      0.00000
     96      -0.1252      0.00000
     97      -0.0477      0.00000
     98      -0.0113      0.00000
     99       0.0823      0.00000
    100       0.0912      0.00000
    101       0.1794      0.00000
    102       0.2001      0.00000
    103       0.3365      0.00000
    104       0.3427      0.00000
    105       0.4634      0.00000
    106       0.4989      0.00000
    107       0.6861      0.00000
    108       0.7054      0.00000
    109       0.7144      0.00000
    110       0.8409      0.00000
    111       0.8678      0.00000
    112       0.9690      0.00000
    113       0.9770      0.00000
    114       0.9840      0.00000
    115       1.0535      0.00000
    116       1.1227      0.00000
    117       1.1603      0.00000
    118       1.1861      0.00000
    119       1.2185      0.00000
    120       1.2192      0.00000
    121       1.3673      0.00000
    122       1.3723      0.00000
    123       1.4006      0.00000
    124       1.4454      0.00000
    125       1.5570      0.00000
    126       1.5633      0.00000
    127       1.5683      0.00000
    128       1.6335      0.00000
    129       1.6447      0.00000
    130       1.6472      0.00000
    131       1.6590      0.00000
    132       1.6846      0.00000
    133       1.7065      0.00000
    134       1.7350      0.00000
    135       1.7500      0.00000
    136       1.7880      0.00000

 k-point     6 :       0.3750    0.3750    0.0000
  band No.  band energies     occupation 
      1     -27.4795      1.00000
      2     -27.4792      1.00000
      3     -27.4079      1.00000
      4     -27.4077      1.00000
      5     -26.5189      1.00000
      6     -26.5179      1.00000
      7     -26.4669      1.00000
      8     -26.4660      1.00000
      9     -24.3533      1.00000
     10     -24.0702      1.00000
     11     -23.6467      1.00000
     12     -23.4278      1.00000
     13     -22.7433      1.00000
     14     -22.7094      1.00000
     15     -22.4465      1.00000
     16     -22.2480      1.00000
     17     -22.0139      1.00000
     18     -21.9687      1.00000
     19     -21.7686      1.00000
     20     -21.7281      1.00000
     21     -21.5237      1.00000
     22     -21.4868      1.00000
     23     -15.0746      1.00000
     24     -15.0710      1.00000
     25     -14.9892      1.00000
     26     -14.9272      1.00000
     27     -14.6473      1.00000
     28     -14.5820      1.00000
     29     -14.4824      1.00000
     30     -14.4241      1.00000
     31     -14.3716      1.00000
     32     -13.8856      1.00000
     33     -13.8834      1.00000
     34     -13.6771      1.00000
     35     -13.6499      1.00000
     36     -13.5309      1.00000
     37     -13.3207      1.00000
     38     -13.1251      1.00000
     39     -12.8502      1.00000
     40     -12.6994      1.00000
     41     -12.1306      1.00000
     42     -12.0392      1.00000
     43     -11.9297      1.00000
     44     -11.4724      1.00000
     45     -11.3837      1.00000
     46     -11.2508      1.00000
     47     -11.2116      1.00000
     48     -11.0242      1.00000
     49     -10.8872      1.00000
     50     -10.8689      1.00000
     51     -10.7670      1.00000
     52     -10.7525      1.00000
     53     -10.7058      1.00000
     54     -10.5279      1.00000
     55     -10.3441      1.00000
     56     -10.2701      1.00000
     57     -10.0785      1.00000
     58     -10.0458      1.00000
     59      -9.8039      1.00000
     60      -9.7486      1.00000
     61      -9.4502      1.00000
     62      -9.3800      1.00000
     63      -9.3721      1.00000
     64      -9.2558      1.00000
     65      -9.2342      1.00000
     66      -9.1726      1.00000
     67      -9.0049      1.00000
     68      -8.9622      1.00000
     69      -8.8316      1.00000
     70      -8.7789      1.00000
     71      -8.5675      1.00000
     72      -8.5501      1.00000
     73      -8.4800      1.00000
     74      -8.3193      1.00000
     75      -8.2596      1.00000
     76      -8.1286      1.00000
     77      -8.0035      1.00000
     78      -7.9390      1.00000
     79      -7.9132      1.00000
     80      -7.7802      1.00000
     81      -7.7014      1.00000
     82      -7.5757      1.00000
     83      -7.4102      1.00000
     84      -7.2183      1.00000
     85      -7.0236      1.00000
     86      -6.9765      1.00000
     87      -6.7435      1.00000
     88      -6.6381      1.00000
     89      -0.4015      0.00000
     90      -0.3074      0.00000
     91      -0.2941      0.00000
     92      -0.2159      0.00000
     93      -0.1647      0.00000
     94      -0.0737      0.00000
     95       0.1055      0.00000
     96       0.1276      0.00000
     97       0.1953      0.00000
     98       0.2115      0.00000
     99       0.2334      0.00000
    100       0.3283      0.00000
    101       0.3389      0.00000
    102       0.4248      0.00000
    103       0.4293      0.00000
    104       0.4479      0.00000
    105       0.5785      0.00000
    106       0.5826      0.00000
    107       0.5909      0.00000
    108       0.6472      0.00000
    109       0.6911      0.00000
    110       0.7072      0.00000
    111       0.7238      0.00000
    112       0.7454      0.00000
    113       0.8215      0.00000
    114       0.8225      0.00000
    115       0.8653      0.00000
    116       0.9226      0.00000
    117       0.9435      0.00000
    118       0.9497      0.00000
    119       0.9543      0.00000
    120       1.0749      0.00000
    121       1.0813      0.00000
    122       1.1962      0.00000
    123       1.2093      0.00000
    124       1.2178      0.00000
    125       1.2241      0.00000
    126       1.2375      0.00000
    127       1.3640      0.00000
    128       1.3756      0.00000
    129       1.4283      0.00000
    130       1.4298      0.00000
    131       1.4430      0.00000
    132       1.4581      0.00000
    133       1.4606      0.00000
    134       1.4856      0.00000
    135       1.6029      0.00000
    136       1.6111      0.00000

 k-point     7 :      -0.3750    0.3750    0.0000
  band No.  band energies     occupation 
      1     -27.4795      1.00000
      2     -27.4792      1.00000
      3     -27.4079      1.00000
      4     -27.4077      1.00000
      5     -26.5189      1.00000
      6     -26.5179      1.00000
      7     -26.4669      1.00000
      8     -26.4660      1.00000
      9     -24.3533      1.00000
     10     -24.0702      1.00000
     11     -23.6467      1.00000
     12     -23.4278      1.00000
     13     -22.7433      1.00000
     14     -22.7094      1.00000
     15     -22.4465      1.00000
     16     -22.2480      1.00000
     17     -22.0139      1.00000
     18     -21.9687      1.00000
     19     -21.7686      1.00000
     20     -21.7281      1.00000
     21     -21.5237      1.00000
     22     -21.4868      1.00000
     23     -15.0746      1.00000
     24     -15.0710      1.00000
     25     -14.9892      1.00000
     26     -14.9272      1.00000
     27     -14.6473      1.00000
     28     -14.5820      1.00000
     29     -14.4824      1.00000
     30     -14.4241      1.00000
     31     -14.3716      1.00000
     32     -13.8856      1.00000
     33     -13.8834      1.00000
     34     -13.6771      1.00000
     35     -13.6499      1.00000
     36     -13.5309      1.00000
     37     -13.3207      1.00000
     38     -13.1251      1.00000
     39     -12.8502      1.00000
     40     -12.6994      1.00000
     41     -12.1306      1.00000
     42     -12.0392      1.00000
     43     -11.9297      1.00000
     44     -11.4724      1.00000
     45     -11.3837      1.00000
     46     -11.2508      1.00000
[...]
   29       -0.000  -0.000   0.000  -0.000
   30        0.000  -0.000   0.000  -0.000
   31       -0.000   0.000   0.000   0.000
   32        0.000  -0.000   0.000   0.000
   33        0.000  -0.000   0.000  -0.000
   34        0.000  -0.000   0.000  -0.000
   35       -0.000   0.000   0.000   0.000
   36       -0.000  -0.000   0.000  -0.000
   37       -0.000  -0.000   0.000  -0.000
   38       -0.000   0.000   0.000   0.000
   39        0.000   0.000   0.000   0.000
   40       -0.000  -0.000   0.000  -0.000
   41       -0.000   0.000   0.000  -0.000
   42       -0.000  -0.000   0.000  -0.000
   43       -0.000  -0.000   0.000  -0.000
   44        0.000  -0.000   0.000  -0.000
--------------------------------------------------
tot         -0.000  -0.000   0.000  -0.000
 
    CHARGE:  cpu time    0.8330: real time    0.6152
    FORLOC:  cpu time    0.2785: real time    0.1396
    FORNL :  cpu time    2.4418: real time    2.3892
    STRESS:  cpu time  115.8260: real time  107.4928
    FORCOR:  cpu time    1.3225: real time    1.2018
    FORHAR:  cpu time    0.1620: real time    0.1624
    MIXING:  cpu time    0.0659: real time    0.0660
    OFIELD:  cpu time    0.0001: real time    0.0001

  FORCE on cell =-STRESS in cart. coord.  units (eV):
  Direction    XX          YY          ZZ          XY          YZ          ZX
  --------------------------------------------------------------------------------------
  Alpha Z    27.24937    27.24937    27.24937
  Ewald   17231.89370 58974.77436-23006.11880     1.01106     0.23124   -38.85410
  Hartree 23350.39824 59256.16861-22124.20064     0.54566     0.22731   -34.88376
  E(xc)    -761.15559  -756.37748  -756.65947     0.00454    -0.00204    -0.01214
  Local  -42845.22671************ 43229.02902    -1.57772    -0.44976    73.79705
  n-local  -419.55221  -426.72984  -426.25760    -0.01181     0.01739    -0.00299
  augment    80.91728    72.71099    71.55250     0.00665    -0.00169    -0.02073
  Kinetic  3335.13760  2993.74495  2986.20206     0.01106    -0.05499     0.00733
  Fock        0.00000     0.00000     0.00000     0.00000     0.00000     0.00000
  -------------------------------------------------------------------------------------
  Total      -0.33833   -12.36090     0.79643    -0.01056    -0.03253     0.03066
  in kB      -0.09228    -3.37142     0.21722    -0.00288    -0.00887     0.00836
  external pressure =       -1.08 kB  Pullay stress =        0.00 kB


 VOLUME and BASIS-vectors are now :
 -----------------------------------------------------------------------------
  energy-cutoff  :      550.00
  volume of cell :     5874.19
      direct lattice vectors                 reciprocal lattice vectors
     0.000000000 -8.702500000  0.000000000     0.000000000 -0.114909509  0.000000000
    15.000000000  0.000000000  0.000000000     0.066666667  0.000000000  0.000000000
     0.000000000  0.000000000 45.000000000     0.000000000  0.000000000  0.022222222

  length of vectors
     8.702500000 15.000000000 45.000000000     0.114909509  0.066666667  0.022222222


 FORCES acting on ions
    electron-ion (+dipol)            ewald-force                    non-local-force                 convergence-correction
 -----------------------------------------------------------------------------------------------
   -.124E+00 0.139E+01 0.110E+03   0.128E+00 -.151E+01 -.110E+03   0.129E-02 0.788E-01 -.112E+00   0.673E-03 -.869E-03 0.752E-04
   0.924E+00 -.481E+00 -.148E-01   -.921E+00 0.446E+00 0.118E-01   -.843E-02 0.271E-01 0.110E-02   0.172E-02 -.115E-02 0.284E-03
   0.145E+01 0.142E+01 -.110E+03   -.145E+01 -.154E+01 0.110E+03   -.460E-02 0.788E-01 0.115E+00   0.170E-02 -.129E-03 0.221E-03
   0.351E+01 0.169E+02 -.237E+03   -.349E+01 -.183E+02 0.236E+03   -.396E-02 0.115E+01 0.919E+00   0.421E-03 0.254E-03 0.222E-02
   -.150E+01 0.145E+01 0.110E+03   0.150E+01 -.157E+01 -.110E+03   0.628E-03 0.801E-01 -.110E+00   0.933E-03 -.351E-03 0.180E-03
   0.175E+01 -.455E+00 0.143E-01   -.174E+01 0.426E+00 -.165E-01   -.148E-01 0.289E-01 0.159E-02   0.120E-02 -.200E-03 0.254E-03
   0.624E+00 0.144E+01 -.110E+03   -.628E+00 -.155E+01 0.110E+03   -.723E-02 0.786E-01 0.116E+00   0.151E-02 0.866E-03 0.140E-03
   -.459E+01 0.169E+02 -.237E+03   0.456E+01 -.183E+02 0.236E+03   0.126E-01 0.115E+01 0.917E+00   0.277E-03 0.726E-03 0.218E-02
   -.106E+01 -.215E+02 0.164E+03   0.114E+01 0.223E+02 -.163E+03   -.453E-01 -.657E+00 -.152E+01   0.670E-03 0.273E-03 -.246E-03
   -.173E+00 -.208E+01 0.533E+02   0.180E+00 0.199E+01 -.534E+02   -.818E-02 0.788E-01 -.298E-01   0.168E-02 0.183E-04 -.965E-03
   0.157E+01 -.206E+01 -.533E+02   -.155E+01 0.196E+01 0.533E+02   -.212E-01 0.755E-01 0.265E-01   0.126E-02 -.271E-03 0.100E-02
   -.417E+00 -.215E+02 -.164E+03   0.472E+00 0.223E+02 0.163E+03   -.392E-01 -.661E+00 0.152E+01   0.944E-03 -.554E-03 0.112E-02
   -.123E+01 -.215E+02 0.164E+03   0.112E+01 0.223E+02 -.163E+03   0.791E-01 -.657E+00 -.152E+01   0.934E-03 0.427E-04 0.969E-04
   0.182E+00 -.211E+01 0.533E+02   -.202E+00 0.202E+01 -.534E+02   0.590E-02 0.827E-01 -.288E-01   0.143E-02 0.219E-03 -.698E-03
   0.233E+01 -.206E+01 -.533E+02   -.233E+01 0.196E+01 0.533E+02   -.104E-01 0.759E-01 0.288E-01   0.161E-02 0.865E-04 0.102E-02
   0.915E+00 -.215E+02 -.164E+03   -.981E+00 0.223E+02 0.163E+03   0.432E-01 -.660E+00 0.152E+01   0.125E-02 -.819E-04 0.118E-02
   0.424E+01 0.167E+02 0.237E+03   -.421E+01 -.182E+02 -.236E+03   0.993E-03 0.115E+01 -.920E+00   0.227E-03 0.962E-03 -.227E-02
   -.559E+01 0.167E+02 0.237E+03   0.555E+01 -.182E+02 -.236E+03   0.292E-01 0.115E+01 -.914E+00   0.541E-03 0.702E-03 -.223E-02
   0.548E+01 -.524E+02 -.176E+03   -.565E+01 0.575E+02 0.182E+03   0.227E+00 -.590E+01 -.657E+01   -.192E-03 0.169E-03 0.710E-03
   0.865E+01 -.523E+02 0.176E+03   -.893E+01 0.574E+02 -.182E+03   0.374E+00 -.590E+01 0.657E+01   -.856E-04 0.421E-03 -.804E-03
   -.661E+01 -.524E+02 -.176E+03   0.682E+01 0.575E+02 0.182E+03   -.273E+00 -.591E+01 -.657E+01   -.322E-03 0.354E-03 0.863E-03
   -.737E+01 -.523E+02 0.176E+03   0.761E+01 0.574E+02 -.182E+03   -.300E+00 -.590E+01 0.658E+01   0.207E-03 0.458E-03 -.729E-03
   -.116E+01 0.449E+00 0.177E+03   0.123E+01 -.716E+00 -.177E+03   -.443E-01 0.302E+00 -.286E+00   0.409E-02 0.243E-02 0.702E-03
   0.227E+01 0.137E+01 -.322E-01   -.235E+01 -.163E+01 0.398E-01   0.732E-01 0.278E+00 0.717E-03   0.468E-02 -.365E-02 -.123E-02
   0.293E+01 0.472E+00 -.177E+03   -.304E+01 -.741E+00 0.177E+03   0.115E+00 0.309E+00 0.295E+00   0.171E-02 0.304E-03 -.996E-03
   -.475E+01 0.513E+00 0.177E+03   0.496E+01 -.788E+00 -.176E+03   -.243E+00 0.311E+00 -.293E+00   0.591E-02 0.363E-02 0.625E-03
   0.431E+01 0.139E+01 -.273E-01   -.448E+01 -.166E+01 0.340E-01   0.153E+00 0.283E+00 -.173E-02   0.220E-02 -.151E-02 -.628E-03
   0.281E+01 0.512E+00 -.177E+03   -.291E+01 -.781E+00 0.177E+03   0.670E-01 0.304E+00 0.297E+00   0.394E-02 0.229E-02 -.142E-02
   0.140E+01 0.111E+02 0.297E+03   -.138E+01 -.120E+02 -.298E+03   -.115E-01 0.729E+00 0.266E+00   -.258E-02 -.328E-02 0.238E-02
   -.219E+00 0.595E+00 0.898E+02   0.262E+00 -.713E+00 -.899E+02   -.522E-01 0.124E+00 -.975E-01   0.244E-02 -.461E-03 0.267E-02
   0.299E+01 0.557E+00 -.900E+02   -.305E+01 -.667E+00 0.900E+02   0.409E-01 0.115E+00 0.959E-01   0.551E-02 -.699E-03 -.380E-02
   0.171E+01 0.110E+02 -.297E+03   -.164E+01 -.119E+02 0.298E+03   -.914E-01 0.713E+00 -.268E+00   0.479E-02 -.214E-02 0.265E-02
   -.211E+01 0.111E+02 0.297E+03   0.198E+01 -.120E+02 -.298E+03   0.167E+00 0.731E+00 0.274E+00   -.346E-02 -.333E-02 0.356E-05
   -.738E-01 0.562E+00 0.899E+02   0.728E-01 -.670E+00 -.899E+02   -.480E-02 0.113E+00 -.893E-01   0.401E-02 0.666E-03 0.156E-02
   0.471E+01 0.549E+00 -.900E+02   -.492E+01 -.657E+00 0.900E+02   0.198E+00 0.107E+00 0.958E-01   0.178E-02 0.153E-02 -.314E-02
   -.391E+01 0.111E+02 -.297E+03   0.402E+01 -.120E+02 0.298E+03   -.111E+00 0.704E+00 -.264E+00   0.533E-02 0.713E-03 0.304E-02
   0.781E+01 -.592E+02 -.586E+03   -.793E+01 0.772E+02 0.617E+03   0.230E+00 -.169E+02 -.299E+02   -.217E-02 -.541E-02 0.632E-03
   -.863E+01 -.591E+02 -.586E+03   0.890E+01 0.771E+02 0.617E+03   -.361E+00 -.169E+02 -.299E+02   -.109E-02 -.669E-03 -.645E-03
   0.236E+02 0.795E+02 -.718E+03   -.242E+02 -.125E+03 0.722E+03   0.613E+00 0.425E+02 -.537E+01   -.305E-02 0.487E-02 0.118E-01
   0.647E+01 -.592E+02 0.586E+03   -.639E+01 0.771E+02 -.617E+03   0.672E-01 -.169E+02 0.299E+02   0.685E-02 -.480E-02 -.748E-03
   -.175E+02 -.593E+02 0.586E+03   0.183E+02 0.773E+02 -.617E+03   -.875E+00 -.169E+02 0.299E+02   0.734E-02 -.282E-02 0.222E-02
   0.358E+02 0.796E+02 0.717E+03   -.367E+02 -.125E+03 -.721E+03   0.978E+00 0.425E+02 0.529E+01   -.170E-02 0.659E-02 -.109E-01
   -.287E+02 0.794E+02 -.717E+03   0.295E+02 -.125E+03 0.722E+03   -.791E+00 0.425E+02 -.536E+01   -.569E-02 0.463E-02 0.109E-01
   -.321E+02 0.796E+02 0.717E+03   0.328E+02 -.125E+03 -.721E+03   -.753E+00 0.425E+02 0.530E+01   0.323E-02 0.764E-02 -.948E-02
 -----------------------------------------------------------------------------------------------
   0.473E+00 -.860E+02 0.947E-01   0.711E-14 0.000E+00 0.341E-12   -.600E+00 0.866E+02 -.253E-01   0.626E-01 0.848E-02 0.980E-02
 
 
 POSITION                                       TOTAL-FORCE (eV/Angst)
 -----------------------------------------------------------------------------------
      7.52558     -2.78666     20.01748         0.001466     -0.003784     -0.003749
      7.51704     -2.78120     22.51738        -0.000340      0.010717     -0.002077
      7.50704     -2.78623     25.01744         0.000648     -0.000273      0.006389
      7.47149     -2.71705     27.48957         0.002608     -0.001298      0.000023
      7.55078     -7.13814     20.01707        -0.002510     -0.002035     -0.000051
      7.51853     -7.13272     22.51717         0.002863      0.018223     -0.001283
      7.52533     -7.13744     25.01741        -0.002239      0.005209      0.006706
      7.58892     -7.06838     27.48930        -0.000340      0.007151     -0.003073
      7.53615     -0.61247     18.78170         0.002410      0.011561      0.006768
      7.52796     -0.60637     21.27284        -0.004143     -0.001476      0.006348
      7.51285     -0.60590     23.76119         0.003219     -0.006470     -0.012726
      7.51904     -0.61135     26.25231        -0.002551      0.003630     -0.003989
      7.55546     -4.96341     18.78248        -0.003645      0.011220      0.004771
      7.52978     -4.95787     21.27289        -0.004335      0.002349      0.011271
      7.51159     -4.95720     23.76101         0.002511     -0.006584     -0.007473
      7.52551     -4.96274     26.25227        -0.000205      0.006202     -0.005945
      7.46869     -2.71817     17.54637         0.000113      0.003586     -0.002460
      7.61959     -7.06874     17.54634         0.002953      0.002032     -0.002809
      7.39053     -2.60713     29.42579         0.005000     -0.005532      0.001021
      7.33669     -2.61001     15.61246         0.009253     -0.005537     -0.004379
      7.68937     -6.95831     29.42498        -0.001922     -0.009515     -0.004354
      7.72730     -6.96107     15.61079         0.004034     -0.005478     -0.002513
      7.53112     -1.33408     20.02876        -0.007216     -0.007229      0.001710
      7.51659     -1.33329     22.51695        -0.004052      0.002949      0.004500
      7.50930     -1.33352     25.00532         0.003522     -0.003791      0.004614
      7.55263     -5.68554     20.02902        -0.014765     -0.006685      0.001833
      7.51483     -5.68477     22.51694         0.004266      0.001985      0.001876
      7.51815     -5.68469     25.00524        -0.003307     -0.008699      0.002221
      7.51774     -3.51326     18.75825         0.012278      0.003389     -0.004467
      7.52581     -3.50935     21.26806        -0.000949     -0.003428     -0.008317
      7.51005     -3.50895     23.76678        -0.003821     -0.004105      0.012920
      7.50377     -3.51234     26.27724        -0.007469      0.000824     -0.001060
      7.56450     -7.86449     18.75762         0.015830      0.005201     -0.003027
      7.53222     -7.86056     21.26771        -0.006685     -0.004064     -0.005973
      7.51226     -7.86015     23.76675         0.004867     -0.008979      0.015335
      7.54751     -7.86350     26.27711        -0.014016     -0.006388      0.000783
      7.49167     -1.33916     27.41397         0.005994      0.010244      0.003029
      7.56267     -5.69046     27.41350         0.008083      0.002455      0.007266
      7.41392     -3.27523     28.72784         0.003727     -0.002447      0.001514
      7.50330     -1.34022     17.62033        -0.010591      0.002200     -0.005856
      7.60395     -5.69046     17.62132        -0.004704     -0.004549     -0.009836
      7.37555     -3.27715     16.31067        -0.000325     -0.002496     -0.002142
      7.66098     -7.62621     28.72698         0.009431      0.000590      0.002322
      7.69572     -7.62784     16.30957        -0.004941     -0.000875     -0.005656
 -----------------------------------------------------------------------------------
    total drift:                               -0.064689      0.612542      0.079179


--------------------------------------------------------------------------------------------------------



  FREE ENERGIE OF THE ION-ELECTRON SYSTEM (eV)
  ---------------------------------------------------
  free  energy   TOTEN  =      -399.26268462 eV

  energy  without entropy=     -399.26268462  energy(sigma->0) =     -399.26268462
 
 d Force = 0.1122047E-03[ 0.858E-04, 0.139E-03]  d Energy = 0.1164708E-03-0.427E-05
 d Force = 0.3545474E-01[ 0.356E-01, 0.353E-01]  d Ewald  = 0.3545474E-01-0.418E-08


--------------------------------------------------------------------------------------------------------


    POTLOK:  cpu time   15.1261: real time   14.9565


--------------------------------------------------------------------------------------------------------


 Conjugate gradient step on ions:
 trial-energy change:   -0.000116  1 .order   -0.000112   -0.000139   -0.000086
  (g-gl).g = 0.473E-03      g.g   = 0.510E-03  gl.gl    = 0.111E-02
 g(Force)  = 0.510E-03   g(Stress)= 0.000E+00 ortho     =-0.124E-05
 gamma     =   0.42701
 trial     =   0.27205
 opt step  =   0.71503  (harmonic =   0.71503) maximal distance =0.00154435
 next E    =  -399.262750   (d E  =  -0.00018)


--------------------------------------------------------------------------------------------------------


  
 reached required accuracy - stopping structural energy minimisation
 writing wavefunctions
     LOOP+:  cpu time  588.8298: real time  482.3283
    4ORBIT:  cpu time    0.0000: real time    0.0000
 


 total charge     
 
# of ion       s       p       d       tot
------------------------------------------
    1        0.744   1.394   0.000   2.138
    2        0.747   1.403   0.000   2.150
    3        0.744   1.393   0.000   2.137
    4        0.744   1.421   0.000   2.165
    5        0.744   1.393   0.000   2.138
    6        0.747   1.403   0.000   2.150
    7        0.744   1.393   0.000   2.137
    8        0.744   1.421   0.000   2.165
    9        0.744   1.407   0.000   2.152
   10        0.750   1.412   0.000   2.162
   11        0.750   1.412   0.000   2.162
   12        0.745   1.407   0.000   2.152
   13        0.745   1.408   0.000   2.152
   14        0.750   1.412   0.000   2.162
   15        0.750   1.412   0.000   2.162
   16        0.745   1.407   0.000   2.152
   17        0.744   1.421   0.000   2.165
   18        0.743   1.421   0.000   2.164
   19        0.607   0.134   0.000   0.742
   20        0.607   0.134   0.000   0.742
   21        0.607   0.134   0.000   0.742
   22        0.607   0.135   0.000   0.742
   23        1.240   2.836   0.000   4.076
   24        1.240   2.835   0.000   4.076
   25        1.240   2.835   0.000   4.076
   26        1.241   2.836   0.000   4.076
   27        1.240   2.835   0.000   4.076
   28        1.240   2.835   0.000   4.076
   29        1.236   2.827   0.000   4.063
   30        1.239   2.830   0.000   4.070
   31        1.239   2.831   0.000   4.070
   32        1.236   2.827   0.000   4.063
   33        1.236   2.827   0.000   4.062
   34        1.239   2.830   0.000   4.070
   35        1.239   2.831   0.000   4.070
   36        1.236   2.827   0.000   4.062
   37        1.567   3.725   0.000   5.292
   38        1.567   3.725   0.000   5.292
   39        1.569   3.703   0.000   5.272
   40        1.567   3.725   0.000   5.292
   41        1.567   3.725   0.000   5.292
   42        1.569   3.703   0.000   5.272
   43        1.569   3.703   0.000   5.272
   44        1.569   3.704   0.000   5.273
--------------------------------------------------
tot         45.737  95.237   0.000 140.974
 


 magnetization (x)
 
# of ion       s       p       d       tot
------------------------------------------
    1       -0.000  -0.000   0.000  -0.000
    2        0.000  -0.000   0.000  -0.000
    3        0.000  -0.000   0.000  -0.000
    4        0.000   0.000   0.000   0.000
    5        0.000   0.000   0.000   0.000
    6        0.000  -0.000   0.000   0.000
    7        0.000  -0.000   0.000  -0.000
    8        0.000   0.000   0.000   0.000
    9       -0.000   0.000   0.000   0.000
   10       -0.000  -0.000   0.000  -0.000
   11       -0.000  -0.000   0.000  -0.000
   12        0.000  -0.000   0.000   0.000
   13        0.000   0.000   0.000   0.000
   14        0.000   0.000   0.000   0.000
   15        0.000   0.000   0.000   0.000
   16       -0.000  -0.000   0.000  -0.000
   17       -0.000  -0.000   0.000  -0.000
   18        0.000   0.000   0.000   0.000
   19       -0.000  -0.000   0.000  -0.000
   20       -0.000   0.000   0.000  -0.000
   21        0.000  -0.000   0.000  -0.000
   22       -0.000   0.000   0.000   0.000
   23        0.000  -0.000   0.000  -0.000
   24        0.000  -0.000   0.000   0.000
   25       -0.000  -0.000   0.000  -0.000
   26       -0.000  -0.000   0.000  -0.000
   27        0.000  -0.000   0.000  -0.000
   28       -0.000   0.000   0.000  -0.000
   29       -0.000  -0.000   0.000  -0.000
   30        0.000  -0.000   0.000  -0.000
   31       -0.000   0.000   0.000   0.000
   32        0.000  -0.000   0.000   0.000
   33        0.000  -0.000   0.000  -0.000
   34        0.000  -0.000   0.000  -0.000
   35       -0.000   0.000   0.000   0.000
   36       -0.000  -0.000   0.000  -0.000
   37       -0.000  -0.000   0.000  -0.000
   38       -0.000   0.000   0.000   0.000
   39        0.000   0.000   0.000   0.000
   40       -0.000  -0.000   0.000  -0.000
   41       -0.000   0.000   0.000  -0.000
   42       -0.000  -0.000   0.000  -0.000
   43       -0.000  -0.000   0.000  -0.000
   44        0.000  -0.000   0.000  -0.000
--------------------------------------------------
tot         -0.000  -0.000   0.000  -0.000
 

 total amount of memory used by VASP MPI-rank0   278094. kBytes
=======================================================================

   base      :      30000. kBytes
   nonlr-proj:       5512. kBytes
   fftplans  :      24463. kBytes
   grid      :      92897. kBytes
   one-center:         24. kBytes
   wavefun   :     125198. kBytes
 
  
  
 General timing and accounting informations for this job:
 ========================================================
  
                  Total CPU time used (sec):     9102.347
                            User time (sec):     8728.715
                          System time (sec):      373.632
                         Elapsed time (sec):     6389.493
  
                   Maximum memory used (kb):      881680.
                   Average memory used (kb):           0.
  
                          Minor page faults:      2755873
                          Major page faults:            9
                 Voluntary context switches:        53661
