Job started on bc12u23n2 at Wed Nov 25 17:29:03 CST 2020
SLURM_JOBID=2164523
SLURM_JOB_NODELIST=bc12u23n[2,4],bc12u25n1,bc12u33n4
 running on   96 total cores
 distrk:  each k-point on   96 cores,    1 groups
 distr:  one band on    1 cores,   96 groups
 using from now: INCAR     
 vasp.5.4.4.18Apr17-6-g9f103f2a35 (build Jun 11 2020 13:42:08) complex          
  
 POSCAR found type information on POSCAR  B  N  C  F  O 
 POSCAR found :  5 types and      42 ions
 scaLAPACK will be used

 ----------------------------------------------------------------------------- 
|                                                                             |
|           W    W    AA    RRRRR   N    N  II  N    N   GGGG   !!!           |
|           W    W   A  A   R    R  NN   N  II  NN   N  G    G  !!!           |
|           W    W  A    A  R    R  N N  N  II  N N  N  G       !!!           |
|           W WW W  AAAAAA  RRRRR   N  N N  II  N  N N  G  GGG   !            |
|           WW  WW  A    A  R   R   N   NN  II  N   NN  G    G                |
|           W    W  A    A  R    R  N    N  II  N    N   GGGG   !!!           |
|                                                                             |
|      For optimal performance we recommend to set                            |
|        NCORE= 4 - approx SQRT( number of cores)                             |
|      NCORE specifies how many cores store one orbital (NPAR=cpu/NCORE).     |
|      This setting can  greatly improve the performance of VASP for DFT.     |
|      The default,   NCORE=1            might be grossly inefficient         |
|      on modern multi-core architectures or massively parallel machines.     |
|      Do your own testing !!!!                                               |
|      Unfortunately you need to use the default for GW and RPA calculations. |
|      (for HF NCORE is supported but not extensively tested yet)             |
|                                                                             |
 ----------------------------------------------------------------------------- 

 LDA part: xc-table for Pade appr. of Perdew
 POSCAR found type information on POSCAR  B  N  C  F  O 
 POSCAR found :  5 types and      42 ions
 POSCAR, INCAR and KPOINTS ok, starting setup
 FFT: planning ...
 WAVECAR not read
 WARNING: random wavefunctions but no delay for mixing, default for NELMDL
 entering main loop
       N       E                     dE             d eps       ncg     rms          rms(c)
SOL:   1  -0.60623E-01    0.00000E+00   -0.60623E-01   110
DAV:   1     0.172604929897E+04    0.17260E+04   -0.67353E+04  7776   0.721E+02
DAV:   2    -0.242570787625E+03   -0.19686E+04   -0.18525E+04 14592   0.173E+02
DAV:   3    -0.451556892608E+03   -0.20899E+03   -0.20746E+03 10752   0.762E+01
DAV:   4    -0.455546653944E+03   -0.39898E+01   -0.39818E+01 11328   0.124E+01
DAV:   5    -0.455614511951E+03   -0.67858E-01   -0.67845E-01  9984   0.145E+00    0.471E+01
SOL:   2  -0.16625E+00    0.00000E+00   -0.16625E+00   102
RMM:   6    -0.326961139439E+03    0.12865E+03   -0.12219E+02  7680   0.185E+01    0.235E+01
SOL:   3  -0.31135E+00    0.00000E+00   -0.31135E+00    98
RMM:   7    -0.344129414101E+03   -0.17168E+02   -0.31863E+01  7680   0.113E+01    0.163E+01
SOL:   4  -0.40327E+00    0.00000E+00   -0.40327E+00    98
RMM:   8    -0.348192213610E+03   -0.40628E+01   -0.56405E+00  7680   0.594E+00    0.121E+01
SOL:   5  -0.52636E+00    0.00000E+00   -0.52636E+00   100
RMM:   9    -0.367780790074E+03   -0.19589E+02   -0.10278E+01  7680   0.590E+00    0.976E+00
SOL:   6  -0.56838E+00    0.00000E+00   -0.56838E+00    96
RMM:  10    -0.371854770586E+03   -0.40740E+01   -0.24673E+00  7680   0.293E+00    0.816E+00
SOL:   7  -0.67311E+00    0.00000E+00   -0.67311E+00   100
RMM:  11    -0.381426778030E+03   -0.95720E+01   -0.48462E+00  7680   0.382E+00    0.791E+00
SOL:   8  -0.64331E+00    0.00000E+00   -0.64331E+00    95
RMM:  12    -0.383412259880E+03   -0.19855E+01   -0.81377E-01  7680   0.195E+00    0.667E+00
SOL:   9  -0.53179E+00    0.00000E+00   -0.53179E+00    99
RMM:  13    -0.390807812799E+03   -0.73956E+01   -0.55623E+00  7680   0.404E+00    0.683E+00
SOL:  10  -0.63689E+00    0.00000E+00   -0.63689E+00    99
RMM:  14    -0.396247238170E+03   -0.54394E+01   -0.43169E+00  7680   0.340E+00    0.373E+00
SOL:  11  -0.56157E+00    0.00000E+00   -0.56157E+00    96
RMM:  15    -0.396123599567E+03    0.12364E+00   -0.82884E-01  7680   0.203E+00    0.289E+00
SOL:  12  -0.45996E+00    0.00000E+00   -0.45996E+00    97
RMM:  16    -0.395224761004E+03    0.89884E+00   -0.42079E-01  7680   0.154E+00    0.221E+00
SOL:  13  -0.37330E+00    0.00000E+00   -0.37330E+00    96
RMM:  17    -0.393705242128E+03    0.15195E+01   -0.22648E-01  7680   0.114E+00    0.304E+00
SOL:  14  -0.38361E+00    0.00000E+00   -0.38361E+00    94
RMM:  18    -0.391998446439E+03    0.17068E+01   -0.17116E-01  7680   0.952E-01    0.182E+00
SOL:  15  -0.34775E+00    0.00000E+00   -0.34775E+00    93
RMM:  19    -0.390101121010E+03    0.18973E+01   -0.13067E-01  7680   0.946E-01    0.134E+00
SOL:  16  -0.33240E+00    0.00000E+00   -0.33240E+00    90
RMM:  20    -0.388914960490E+03    0.11862E+01   -0.57145E-02  7680   0.670E-01    0.767E-01
SOL:  17  -0.33354E+00    0.00000E+00   -0.33354E+00    90
RMM:  21    -0.388191887686E+03    0.72307E+00   -0.31946E-02  7704   0.550E-01    0.700E-01
SOL:  18  -0.34520E+00    0.00000E+00   -0.34520E+00    92
RMM:  22    -0.387528770671E+03    0.66312E+00   -0.35620E-02  7828   0.558E-01    0.571E-01
SOL:  19  -0.34100E+00    0.00000E+00   -0.34100E+00    90
RMM:  23    -0.387024931525E+03    0.50384E+00   -0.32824E-02  7842   0.611E-01    0.518E-01
SOL:  20  -0.34184E+00    0.00000E+00   -0.34184E+00    86
RMM:  24    -0.386772181503E+03    0.25275E+00   -0.47127E-02  8018   0.781E-01    0.126E-01
SOL:  21  -0.33921E+00    0.00000E+00   -0.33921E+00    84
RMM:  25    -0.386716892908E+03    0.55289E-01   -0.19810E-02  7702   0.602E-01    0.166E-01
SOL:  22  -0.33504E+00    0.00000E+00   -0.33504E+00    85
RMM:  26    -0.386708800615E+03    0.80923E-02   -0.59218E-03  7688   0.299E-01    0.140E-01
SOL:  23  -0.33491E+00    0.00000E+00   -0.33491E+00    83
RMM:  27    -0.386706000869E+03    0.27997E-02   -0.19816E-03  7680   0.161E-01    0.301E-02
SOL:  24  -0.33397E+00    0.00000E+00   -0.33397E+00    81
RMM:  28    -0.386706284317E+03   -0.28345E-03   -0.65292E-04  7680   0.844E-02    0.309E-02
SOL:  25  -0.33356E+00    0.00000E+00   -0.33356E+00    77
RMM:  29    -0.386706563187E+03   -0.27887E-03   -0.17073E-04  7676   0.450E-02    0.199E-02
SOL:  26  -0.33367E+00    0.00000E+00   -0.33367E+00    74
RMM:  30    -0.386706709355E+03   -0.14617E-03   -0.12719E-04  6898   0.377E-02    0.106E-02
SOL:  27  -0.33380E+00    0.00000E+00   -0.33380E+00    71
RMM:  31    -0.386706784851E+03   -0.75496E-04   -0.70378E-05  6721   0.299E-02    0.597E-03
SOL:  28  -0.33399E+00    0.00000E+00   -0.33399E+00    72
RMM:  32    -0.386706864067E+03   -0.79216E-04   -0.61984E-05  6690   0.279E-02    0.133E-02
SOL:  29  -0.33422E+00    0.00000E+00   -0.33422E+00    68
RMM:  33    -0.386706913514E+03   -0.49446E-04   -0.54845E-05  6680   0.265E-02    0.109E-02
SOL:  30  -0.33443E+00    0.00000E+00   -0.33443E+00    67
RMM:  34    -0.386706924070E+03   -0.10557E-04   -0.39714E-05  6620   0.226E-02    0.502E-03
SOL:  31  -0.33463E+00    0.00000E+00   -0.33463E+00    65
RMM:  35    -0.386706929886E+03   -0.58153E-05   -0.31630E-05  6567   0.195E-02
SOL:  32  -0.33474E+00    0.00000E+00   -0.33474E+00    61
   1 F= -.38670693E+03 E0= -.38669967E+03  d E =-.145116E-01  mag=     0.8685
 Finite differences POTIM= 0.02000 DOF=  30
 bond charge predicted
       N       E                     dE             d eps       ncg     rms          rms(c)
SOL:  33  -0.33464E+00    0.00000E+00   -0.33464E+00    82
DAV:   1    -0.386697615210E+03    0.93089E-02   -0.75592E-01  7872   0.909E-01    0.281E-01
SOL:  34  -0.33274E+00    0.00000E+00   -0.33274E+00    85
RMM:   2    -0.386698885181E+03   -0.12700E-02   -0.13576E-02  7680   0.188E-01    0.161E-01
SOL:  35  -0.33177E+00    0.00000E+00   -0.33177E+00    81
RMM:   3    -0.386697933387E+03    0.95179E-03   -0.78032E-04  6766   0.591E-02    0.227E-01
SOL:  36  -0.33253E+00    0.00000E+00   -0.33253E+00    79
RMM:   4    -0.386696896539E+03    0.10368E-02   -0.93479E-04  7680   0.769E-02    0.134E-01
SOL:  37  -0.33379E+00    0.00000E+00   -0.33379E+00    83
RMM:   5    -0.386696779557E+03    0.11698E-03   -0.14937E-03  7680   0.792E-02    0.290E-01
SOL:  38  -0.33219E+00    0.00000E+00   -0.33219E+00    82
RMM:   6    -0.386696903843E+03   -0.12429E-03   -0.21386E-03  7680   0.109E-01    0.357E-02
SOL:  39  -0.33192E+00    0.00000E+00   -0.33192E+00    77
RMM:   7    -0.386697387657E+03   -0.48381E-03   -0.87145E-04  7631   0.721E-02    0.500E-02
SOL:  40  -0.33204E+00    0.00000E+00   -0.33204E+00    76
RMM:   8    -0.386697423775E+03   -0.36118E-04   -0.22137E-04  6957   0.429E-02    0.147E-02
SOL:  41  -0.33184E+00    0.00000E+00   -0.33184E+00    74
RMM:   9    -0.386697492220E+03   -0.68445E-04   -0.10250E-04  6727   0.330E-02    0.141E-02
SOL:  42  -0.33150E+00    0.00000E+00   -0.33150E+00    76
RMM:  10    -0.386697581242E+03   -0.89022E-04   -0.93410E-05  6729   0.315E-02    0.883E-03
SOL:  43  -0.33140E+00    0.00000E+00   -0.33140E+00    73
RMM:  11    -0.386697624849E+03   -0.43607E-04   -0.78975E-05  6728   0.295E-02    0.323E-03
SOL:  44  -0.33131E+00    0.00000E+00   -0.33131E+00    70
RMM:  12    -0.386697697784E+03   -0.72934E-04   -0.50412E-05  6674   0.242E-02    0.687E-03
SOL:  45  -0.33118E+00    0.00000E+00   -0.33118E+00    69
RMM:  13    -0.386697694864E+03    0.29198E-05   -0.43792E-05  6670   0.223E-02
SOL:  46  -0.33108E+00    0.00000E+00   -0.33108E+00    67
   2 F= -.38669769E+03 E0= -.38669069E+03  d E =-.140035E-01  mag=     0.8721
 Finite differences progress:
  Degree of freedom:   1/ 30
  Displacement:        1/  2
  Total:               1/ 60
 bond charge predicted
       N       E                     dE             d eps       ncg     rms          rms(c)
SOL:  47  -0.33143E+00    0.00000E+00   -0.33143E+00    85
DAV:   1    -0.386702444459E+03   -0.47467E-02   -0.29399E+00 10272   0.181E+00    0.573E-01
SOL:  48  -0.33524E+00    0.00000E+00   -0.33524E+00    88
RMM:   2    -0.386689135370E+03    0.13309E-01   -0.51760E-02  7680   0.367E-01    0.329E-01
SOL:  49  -0.33699E+00    0.00000E+00   -0.33699E+00    84
RMM:   3    -0.386694394436E+03   -0.52591E-02   -0.32432E-03  7680   0.114E-01    0.481E-01
SOL:  50  -0.33515E+00    0.00000E+00   -0.33515E+00    83
RMM:   4    -0.386695222284E+03   -0.82785E-03   -0.33833E-03  7680   0.123E-01    0.262E-01
SOL:  51  -0.33322E+00    0.00000E+00   -0.33322E+00    86
RMM:   5    -0.386698350342E+03   -0.31281E-02   -0.48828E-03  7680   0.134E-01    0.687E-01
SOL:  52  -0.33805E+00    0.00000E+00   -0.33805E+00    86
RMM:   6    -0.386693283026E+03    0.50673E-02   -0.97381E-03  7680   0.229E-01    0.142E-01
SOL:  53  -0.33816E+00    0.00000E+00   -0.33816E+00    82
RMM:   7    -0.386695789795E+03   -0.25068E-02   -0.67393E-03  7680   0.195E-01    0.161E-01
SOL:  54  -0.33816E+00    0.00000E+00   -0.33816E+00    78
RMM:   8    -0.386695589551E+03    0.20024E-03   -0.46840E-04  7613   0.557E-02    0.380E-02
SOL:  55  -0.33854E+00    0.00000E+00   -0.33854E+00    74
RMM:   9    -0.386695985513E+03   -0.39596E-03   -0.31768E-04  6840   0.489E-02    0.147E-02
SOL:  56  -0.33933E+00    0.00000E+00   -0.33933E+00    80
RMM:  10    -0.386696651032E+03   -0.66552E-03   -0.23437E-04  6725   0.404E-02    0.329E-02
SOL:  57  -0.33980E+00    0.00000E+00   -0.33980E+00    74
RMM:  11    -0.386696893335E+03   -0.24230E-03   -0.14826E-04  6725   0.370E-02    0.246E-02
SOL:  58  -0.34016E+00    0.00000E+00   -0.34016E+00    73
RMM:  12    -0.386697049080E+03   -0.15575E-03   -0.82347E-05  6721   0.298E-02    0.149E-02
SOL:  59  -0.34054E+00    0.00000E+00   -0.34054E+00    73
RMM:  13    -0.386697133926E+03   -0.84845E-04   -0.85827E-05  6721   0.306E-02    0.414E-03
SOL:  60  -0.34082E+00    0.00000E+00   -0.34082E+00    70
RMM:  14    -0.386697208785E+03   -0.74859E-04   -0.77460E-05  6718   0.306E-02    0.389E-03
SOL:  61  -0.34093E+00    0.00000E+00   -0.34093E+00    65
RMM:  15    -0.386697197346E+03    0.11439E-04   -0.48905E-05  6680   0.246E-02    0.264E-03
SOL:  62  -0.34101E+00    0.00000E+00   -0.34101E+00    64
RMM:  16    -0.386697201701E+03   -0.43548E-05   -0.36875E-05  6560   0.215E-02
SOL:  63  -0.34109E+00    0.00000E+00   -0.34109E+00    64
   3 F= -.38669720E+03 E0= -.38668974E+03  d E =-.149181E-01  mag=     0.8641
 Finite differences progress:
  Degree of freedom:   1/ 30
  Displacement:        2/  2
  Total:               2/ 60
 bond charge predicted
       N       E                     dE             d eps       ncg     rms          rms(c)
SOL:  64  -0.34099E+00    0.00000E+00   -0.34099E+00    85
DAV:   1    -0.386699602877E+03   -0.24055E-02   -0.14802E+00  9312   0.125E+00    0.419E-01
SOL:  65  -0.33678E+00    0.00000E+00   -0.33678E+00    87
RMM:   2    -0.386699834574E+03   -0.23170E-03   -0.25849E-02  7680   0.267E-01    0.237E-01
SOL:  66  -0.33500E+00    0.00000E+00   -0.33500E+00    82
RMM:   3    -0.386698454525E+03    0.13800E-02   -0.17508E-03  7578   0.878E-02    0.379E-01
SOL:  67  -0.33640E+00    0.00000E+00   -0.33640E+00    82
RMM:   4    -0.386696799987E+03    0.16545E-02   -0.24748E-03  7680   0.123E-01    0.194E-01
SOL:  68  -0.33747E+00    0.00000E+00   -0.33747E+00    84
RMM:   5    -0.386696960959E+03   -0.16097E-03   -0.29437E-03  7680   0.111E-01    0.373E-01
SOL:  69  -0.33503E+00    0.00000E+00   -0.33503E+00    83
RMM:   6    -0.386696928464E+03    0.32495E-04   -0.36662E-03  7680   0.139E-01    0.637E-02
SOL:  70  -0.33427E+00    0.00000E+00   -0.33427E+00    79
RMM:   7    -0.386697549836E+03   -0.62137E-03   -0.12470E-03  7680   0.837E-02    0.682E-02
SOL:  71  -0.33431E+00    0.00000E+00   -0.33431E+00    78
RMM:   8    -0.386697610586E+03   -0.60750E-04   -0.41580E-04  7365   0.567E-02    0.202E-02
SOL:  72  -0.33391E+00    0.00000E+00   -0.33391E+00    76
RMM:   9    -0.386697745120E+03   -0.13453E-03   -0.15307E-04  6830   0.396E-02    0.201E-02
SOL:  73  -0.33321E+00    0.00000E+00   -0.33321E+00    79
RMM:  10    -0.386697947945E+03   -0.20282E-03   -0.12744E-04  6825   0.358E-02    0.118E-02
SOL:  74  -0.33293E+00    0.00000E+00   -0.33293E+00    75
RMM:  11    -0.386697992192E+03   -0.44247E-04   -0.11148E-04  6725   0.349E-02    0.409E-03
SOL:  75  -0.33272E+00    0.00000E+00   -0.33272E+00    73
RMM:  12    -0.386698060709E+03   -0.68517E-04   -0.79744E-05  6721   0.308E-02    0.106E-02
SOL:  76  -0.33250E+00    0.00000E+00   -0.33250E+00    72
RMM:  13    -0.386698156652E+03   -0.95944E-04   -0.63079E-05  6711   0.271E-02    0.517E-03
SOL:  77  -0.33233E+00    0.00000E+00   -0.33233E+00    69
RMM:  14    -0.386698206652E+03   -0.50000E-04   -0.51149E-05  6641   0.253E-02    0.138E-03
SOL:  78  -0.33223E+00    0.00000E+00   -0.33223E+00    66
RMM:  15    -0.386698201907E+03    0.47446E-05   -0.38357E-05  6620   0.213E-02
SOL:  79  -0.33218E+00    0.00000E+00   -0.33218E+00    61
   4 F= -.38669820E+03 E0= -.38669110E+03  d E =-.142065E-01  mag=     0.8698
 Finite differences progress:
  Degree of freedom:   2/ 30
  Displacement:        1/  2
  Total:               3/ 60
 bond charge predicted
       N       E                     dE             d eps       ncg     rms          rms(c)
SOL:  80  -0.33255E+00    0.00000E+00   -0.33255E+00    87
DAV:   1    -0.386701087880E+03   -0.28812E-02   -0.29629E+00  8832   0.179E+00    0.558E-01
SOL:  81  -0.33633E+00    0.00000E+00   -0.33633E+00    88
RMM:   2    -0.386689757246E+03    0.11331E-01   -0.49755E-02  7680   0.354E-01    0.344E-01
SOL:  82  -0.33717E+00    0.00000E+00   -0.33717E+00    80
RMM:   3    -0.386695005767E+03   -0.52485E-02   -0.33329E-03  7680   0.117E-01    0.419E-01
SOL:  83  -0.33503E+00    0.00000E+00   -0.33503E+00    83
RMM:   4    -0.386696319912E+03   -0.13141E-02   -0.28889E-03  7680   0.104E-01    0.200E-01
SOL:  84  -0.33394E+00    0.00000E+00   -0.33394E+00    85
RMM:   5    -0.386698602173E+03   -0.22823E-02   -0.34784E-03  7680   0.123E-01    0.589E-01
SOL:  85  -0.33889E+00    0.00000E+00   -0.33889E+00    86
RMM:   6    -0.386694009367E+03    0.45928E-02   -0.63376E-03  7680   0.182E-01    0.243E-01
SOL:  86  -0.33836E+00    0.00000E+00   -0.33836E+00    82
RMM:   7    -0.386696320188E+03   -0.23108E-02   -0.67188E-03  7680   0.195E-01    0.157E-01
SOL:  87  -0.33825E+00    0.00000E+00   -0.33825E+00    77
RMM:   8    -0.386696007535E+03    0.31265E-03   -0.28437E-04  6776   0.449E-02    0.421E-02
SOL:  88  -0.33850E+00    0.00000E+00   -0.33850E+00    77
RMM:   9    -0.386696572370E+03   -0.56483E-03   -0.31648E-04  6738   0.473E-02    0.146E-02
SOL:  89  -0.33909E+00    0.00000E+00   -0.33909E+00    81
RMM:  10    -0.386697221814E+03   -0.64944E-03   -0.24517E-04  6729   0.400E-02    0.377E-02
SOL:  90  -0.33939E+00    0.00000E+00   -0.33939E+00    73
RMM:  11    -0.386697423173E+03   -0.20136E-03   -0.12470E-04  6722   0.343E-02    0.229E-02
SOL:  91  -0.33961E+00    0.00000E+00   -0.33961E+00    74
RMM:  12    -0.386697572078E+03   -0.14890E-03   -0.73690E-05  6721   0.281E-02    0.133E-02
SOL:  92  -0.33987E+00    0.00000E+00   -0.33987E+00    74
RMM:  13    -0.386697725134E+03   -0.15306E-03   -0.86106E-05  6721   0.310E-02    0.494E-03
SOL:  93  -0.34001E+00    0.00000E+00   -0.34001E+00    69
RMM:  14    -0.386697775267E+03   -0.50133E-04   -0.70969E-05  6720   0.289E-02    0.241E-03
SOL:  94  -0.34008E+00    0.00000E+00   -0.34008E+00    66
RMM:  15    -0.386697804213E+03   -0.28946E-04   -0.42647E-05  6620   0.225E-02    0.274E-03
SOL:  95  -0.34013E+00    0.00000E+00   -0.34013E+00    64
RMM:  16    -0.386697784164E+03    0.20049E-04   -0.34982E-05  6560   0.203E-02    0.214E-03
SOL:  96  -0.34018E+00    0.00000E+00   -0.34018E+00    64
RMM:  17    -0.386697806045E+03   -0.21881E-04   -0.30225E-05  6560   0.186E-02    0.152E-03
SOL:  97  -0.34021E+00    0.00000E+00   -0.34021E+00    61
RMM:  18    -0.386697802105E+03    0.39396E-05   -0.24934E-05  6560   0.171E-02
SOL:  98  -0.34023E+00    0.00000E+00   -0.34023E+00    59
   5 F= -.38669780E+03 E0= -.38669042E+03  d E =-.147650E-01  mag=     0.8648
 Finite differences progress:
  Degree of freedom:   2/ 30
  Displacement:        2/  2
  Total:               4/ 60
 bond charge predicted
       N       E                     dE             d eps       ncg     rms          rms(c)
SOL:  99  -0.34000E+00    0.00000E+00   -0.34000E+00    86
DAV:   1    -0.386698403056E+03   -0.59701E-03   -0.15292E+00  9600   0.127E+00    0.543E-01
SOL: 100  -0.33403E+00    0.00000E+00   -0.33403E+00    88
RMM:   2    -0.386701586545E+03   -0.31835E-02   -0.33441E-02  7680   0.316E-01    0.262E-01
SOL: 101  -0.33018E+00    0.00000E+00   -0.33018E+00    84
RMM:   3    -0.386700669144E+03    0.91740E-03   -0.32096E-03  7680   0.114E-01    0.552E-01
SOL: 102  -0.33299E+00    0.00000E+00   -0.33299E+00    85
RMM:   4    -0.386697686605E+03    0.29825E-02   -0.60362E-03  7680   0.177E-01    0.164E-01
SOL: 103  -0.33239E+00    0.00000E+00   -0.33239E+00    83
RMM:   5    -0.386698892199E+03   -0.12056E-02   -0.40588E-03  7680   0.140E-01    0.321E-01
SOL: 104  -0.32946E+00    0.00000E+00   -0.32946E+00    83
RMM:   6    -0.386698729288E+03    0.16291E-03   -0.26625E-03  7680   0.121E-01    0.474E-02
SOL: 105  -0.32850E+00    0.00000E+00   -0.32850E+00    78
RMM:   7    -0.386699146081E+03   -0.41679E-03   -0.95475E-04  7675   0.753E-02    0.626E-02
SOL: 106  -0.32821E+00    0.00000E+00   -0.32821E+00    79
RMM:   8    -0.386699009461E+03    0.13662E-03   -0.30367E-04  7216   0.496E-02    0.345E-02
SOL: 107  -0.32730E+00    0.00000E+00   -0.32730E+00    78
RMM:   9    -0.386699254374E+03   -0.24491E-03   -0.19891E-04  6934   0.434E-02    0.368E-02
SOL: 108  -0.32573E+00    0.00000E+00   -0.32573E+00    80
RMM:  10    -0.386699393272E+03   -0.13890E-03   -0.17584E-04  7060   0.411E-02    0.747E-03
SOL: 109  -0.32500E+00    0.00000E+00   -0.32500E+00    76
RMM:  11    -0.386699415207E+03   -0.21936E-04   -0.15077E-04  7132   0.425E-02    0.575E-03
SOL: 110  -0.32440E+00    0.00000E+00   -0.32440E+00    73
RMM:  12    -0.386699553932E+03   -0.13872E-03   -0.92196E-05  6736   0.337E-02    0.102E-02
SOL: 111  -0.32388E+00    0.00000E+00   -0.32388E+00    72
RMM:  13    -0.386699606049E+03   -0.52117E-04   -0.71263E-05  6733   0.304E-02    0.469E-03
SOL: 112  -0.32358E+00    0.00000E+00   -0.32358E+00    69
RMM:  14    -0.386699643425E+03   -0.37376E-04   -0.51322E-05  6708   0.255E-02    0.218E-03
SOL: 113  -0.32342E+00    0.00000E+00   -0.32342E+00    65
RMM:  15    -0.386699679276E+03   -0.35851E-04   -0.42451E-05  6678   0.237E-02    0.199E-03
SOL: 114  -0.32328E+00    0.00000E+00   -0.32328E+00    66
RMM:  16    -0.386699723773E+03   -0.44498E-04   -0.34108E-05  6646   0.211E-02    0.198E-03
SOL: 115  -0.32317E+00    0.00000E+00   -0.32317E+00    65
RMM:  17    -0.386699743798E+03   -0.20025E-04   -0.31611E-05  6604   0.203E-02    0.139E-03
SOL: 116  -0.32310E+00    0.00000E+00   -0.32310E+00    63
RMM:  18    -0.386699734222E+03    0.95761E-05   -0.25984E-05  6564   0.184E-02
SOL: 117  -0.32305E+00    0.00000E+00   -0.32305E+00    62
   6 F= -.38669973E+03 E0= -.38669348E+03  d E =-.125181E-01  mag=     0.8890
 Finite differences progress:
  Degree of freedom:   3/ 30
  Displacement:        1/  2
  Total:               5/ 60
 bond charge predicted
       N       E                     dE             d eps       ncg     rms          rms(c)
SOL: 118  -0.32388E+00    0.00000E+00   -0.32388E+00    90
DAV:   1    -0.386695208532E+03    0.45353E-02   -0.31745E+00  9312   0.176E+00    0.125E+00
SOL: 119  -0.33601E+00    0.00000E+00   -0.33601E+00    91
RMM:   2    -0.386655399859E+03    0.39809E-01   -0.14029E-01  7680   0.592E-01    0.575E-01
SOL: 120  -0.34149E+00    0.00000E+00   -0.34149E+00    85
RMM:   3    -0.386687766455E+03   -0.32367E-01   -0.16961E-02  7680   0.267E-01    0.123E+00
SOL: 121  -0.33391E+00    0.00000E+00   -0.33391E+00    89
RMM:   4    -0.386687295293E+03    0.47116E-03   -0.27895E-02  7680   0.319E-01    0.304E-01
SOL: 122  -0.33267E+00    0.00000E+00   -0.33267E+00    86
RMM:   5    -0.386695906393E+03   -0.86111E-02   -0.15655E-02  7680   0.256E-01    0.872E-01
SOL: 123  -0.33989E+00    0.00000E+00   -0.33989E+00    87
RMM:   6    -0.386689898015E+03    0.60084E-02   -0.13181E-02  7680   0.268E-01    0.171E-01
SOL: 124  -0.33936E+00    0.00000E+00   -0.33936E+00    83
RMM:   7    -0.386692826736E+03   -0.29287E-02   -0.92508E-03  7680   0.227E-01    0.132E-01
SOL: 125  -0.33976E+00    0.00000E+00   -0.33976E+00    80
RMM:   8    -0.386693017526E+03   -0.19079E-03   -0.56043E-04  7680   0.626E-02    0.590E-02
SOL: 126  -0.34106E+00    0.00000E+00   -0.34106E+00    79
RMM:   9    -0.386693346987E+03   -0.32946E-03   -0.67540E-04  7651   0.681E-02    0.784E-02
SOL: 127  -0.34313E+00    0.00000E+00   -0.34313E+00    80
RMM:  10    -0.386693789753E+03   -0.44277E-03   -0.28723E-04  7344   0.493E-02    0.620E-02
SOL: 128  -0.34598E+00    0.00000E+00   -0.34598E+00    79
RMM:  11    -0.386694023506E+03   -0.23375E-03   -0.24054E-04  7263   0.489E-02    0.422E-02
SOL: 129  -0.34750E+00    0.00000E+00   -0.34750E+00    75
RMM:  12    -0.386694173376E+03   -0.14987E-03   -0.15484E-04  7063   0.428E-02    0.181E-02
SOL: 130  -0.34911E+00    0.00000E+00   -0.34911E+00    75
RMM:  13    -0.386694225890E+03   -0.52515E-04   -0.14784E-04  6930   0.408E-02    0.894E-03
SOL: 131  -0.35058E+00    0.00000E+00   -0.35058E+00    74
RMM:  14    -0.386694247375E+03   -0.21485E-04   -0.11921E-04  6923   0.381E-02    0.906E-03
SOL: 132  -0.35127E+00    0.00000E+00   -0.35127E+00    69
RMM:  15    -0.386694220069E+03    0.27306E-04   -0.80266E-05  6747   0.328E-02    0.350E-03
SOL: 133  -0.35172E+00    0.00000E+00   -0.35172E+00    69
RMM:  16    -0.386694188892E+03    0.31177E-04   -0.54795E-05  6726   0.274E-02    0.340E-03
SOL: 134  -0.35194E+00    0.00000E+00   -0.35194E+00    66
RMM:  17    -0.386694202915E+03   -0.14023E-04   -0.43434E-05  6663   0.248E-02    0.189E-03
SOL: 135  -0.35202E+00    0.00000E+00   -0.35202E+00    63
RMM:  18    -0.386694176501E+03    0.26413E-04   -0.31935E-05  6588   0.208E-02    0.169E-03
SOL: 136  -0.35209E+00    0.00000E+00   -0.35209E+00    63
RMM:  19    -0.386694179121E+03   -0.26192E-05   -0.27066E-05  6571   0.193E-02
SOL: 137  -0.35217E+00    0.00000E+00   -0.35217E+00    63
   7 F= -.38669418E+03 E0= -.38668606E+03  d E =-.162368E-01  mag=     0.8485
 Finite differences progress:
  Degree of freedom:   3/ 30
  Displacement:        2/  2
  Total:               6/ 60
 bond charge predicted
       N       E                     dE             d eps       ncg     rms          rms(c)
SOL: 138  -0.35211E+00    0.00000E+00   -0.35211E+00    86
DAV:   1    -0.386696560684E+03   -0.23842E-02   -0.15472E+00  7680   0.132E+00    0.536E-01
SOL: 139  -0.35833E+00    0.00000E+00   -0.35833E+00    88
RMM:   2    -0.386685401168E+03    0.11160E-01   -0.34942E-02  7680   0.317E-01    0.480E-01
SOL: 140  -0.35743E+00    0.00000E+00   -0.35743E+00    83
RMM:   3    -0.386693563678E+03   -0.81625E-02   -0.51757E-03  7680   0.151E-01    0.521E-01
SOL: 141  -0.35409E+00    0.00000E+00   -0.35409E+00    84
RMM:   4    -0.386693926864E+03   -0.36319E-03   -0.31978E-03  7680   0.103E-01    0.164E-01
SOL: 142  -0.35354E+00    0.00000E+00   -0.35354E+00    82
RMM:   5    -0.386695632570E+03   -0.17057E-02   -0.35708E-03  7680   0.135E-01    0.311E-01
SOL: 143  -0.35589E+00    0.00000E+00   -0.35589E+00    83
RMM:   6    -0.386694170410E+03    0.14622E-02   -0.18849E-03  7680   0.107E-01    0.160E-01
SOL: 144  -0.35519E+00    0.00000E+00   -0.35519E+00    80
RMM:   7    -0.386695084228E+03   -0.91382E-03   -0.23356E-03  7680   0.122E-01    0.950E-02
SOL: 145  -0.35482E+00    0.00000E+00   -0.35482E+00    76
RMM:   8    -0.386695125181E+03   -0.40954E-04   -0.16462E-04  6762   0.385E-02    0.124E-02
SOL: 146  -0.35480E+00    0.00000E+00   -0.35480E+00    74
RMM:   9    -0.386695029368E+03    0.95813E-04   -0.20233E-04  6757   0.409E-02    0.109E-02
SOL: 147  -0.35456E+00    0.00000E+00   -0.35456E+00    77
RMM:  10    -0.386695200900E+03   -0.17153E-03   -0.70552E-05  6723   0.270E-02    0.556E-03
SOL: 148  -0.35435E+00    0.00000E+00   -0.35435E+00    75
RMM:  11    -0.386695307159E+03   -0.10626E-03   -0.85564E-05  6724   0.300E-02    0.503E-03
SOL: 149  -0.35415E+00    0.00000E+00   -0.35415E+00    73
RMM:  12    -0.386695365952E+03   -0.58793E-04   -0.74832E-05  6723   0.283E-02    0.349E-03
SOL: 150  -0.35402E+00    0.00000E+00   -0.35402E+00    70
RMM:  13    -0.386695418932E+03   -0.52980E-04   -0.63312E-05  6703   0.272E-02    0.253E-03
SOL: 151  -0.35389E+00    0.00000E+00   -0.35389E+00    68
RMM:  14    -0.386695446208E+03   -0.27276E-04   -0.46876E-05  6663   0.235E-02    0.417E-03
SOL: 152  -0.35380E+00    0.00000E+00   -0.35380E+00    65
RMM:  15    -0.386695435871E+03    0.10337E-04   -0.41872E-05  6633   0.226E-02    0.257E-03
SOL: 153  -0.35372E+00    0.00000E+00   -0.35372E+00    63
RMM:  16    -0.386695450147E+03   -0.14276E-04   -0.30623E-05  6580   0.195E-02    0.166E-03
SOL: 154  -0.35366E+00    0.00000E+00   -0.35366E+00    62
RMM:  17    -0.386695455628E+03   -0.54810E-05   -0.24955E-05  6556   0.172E-02
SOL: 155  -0.35362E+00    0.00000E+00   -0.35362E+00    61
   8 F= -.38669546E+03 E0= -.38668727E+03  d E =-.163655E-01  mag=     0.8420
 Finite differences progress:
  Degree of freedom:   4/ 30
  Displacement:        1/  2
  Total:               7/ 60
 bond charge predicted
       N       E                     dE             d eps       ncg     rms          rms(c)
SOL: 156  -0.35350E+00    0.00000E+00   -0.35350E+00    85
DAV:   1    -0.386704315209E+03   -0.88651E-02   -0.30885E+00  8352   0.180E+00    0.928E-01
SOL: 157  -0.34213E+00    0.00000E+00   -0.34213E+00    90
RMM:   2    -0.386704302304E+03    0.12904E-04   -0.81770E-02  7680   0.478E-01    0.442E-01
SOL: 158  -0.33390E+00    0.00000E+00   -0.33390E+00    88
RMM:   3    -0.386702277075E+03    0.20252E-02   -0.11033E-02  7680   0.202E-01    0.928E-01
SOL: 159  -0.33915E+00    0.00000E+00   -0.33915E+00    87
RMM:   4    -0.386698089364E+03    0.41877E-02   -0.16847E-02  7680   0.276E-01    0.227E-01
SOL: 160  -0.33721E+00    0.00000E+00   -0.33721E+00    83
RMM:   5    -0.386701090215E+03   -0.30009E-02   -0.96844E-03  7680   0.218E-01    0.411E-01
SOL: 161  -0.33239E+00    0.00000E+00   -0.33239E+00    85
RMM:   6    -0.386700261568E+03    0.82865E-03   -0.34211E-03  7680   0.133E-01    0.919E-02
SOL: 162  -0.33027E+00    0.00000E+00   -0.33027E+00    81
RMM:   7    -0.386700616137E+03   -0.35457E-03   -0.13393E-03  7680   0.873E-02    0.104E-01
SOL: 163  -0.32958E+00    0.00000E+00   -0.32958E+00    81
RMM:   8    -0.386700439143E+03    0.17699E-03   -0.75602E-04  7680   0.724E-02    0.602E-02
SOL: 164  -0.32790E+00    0.00000E+00   -0.32790E+00    80
RMM:   9    -0.386700985128E+03   -0.54598E-03   -0.37994E-04  7495   0.556E-02    0.665E-02
SOL: 165  -0.32561E+00    0.00000E+00   -0.32561E+00    81
RMM:  10    -0.386701159494E+03   -0.17437E-03   -0.25508E-04  7572   0.492E-02    0.200E-02
SOL: 166  -0.32399E+00    0.00000E+00   -0.32399E+00    79
RMM:  11    -0.386701476990E+03   -0.31750E-03   -0.20320E-04  7540   0.465E-02    0.941E-03
SOL: 167  -0.32294E+00    0.00000E+00   -0.32294E+00    75
RMM:  12    -0.386701614241E+03   -0.13725E-03   -0.13398E-04  7248   0.410E-02    0.120E-02
SOL: 168  -0.32201E+00    0.00000E+00   -0.32201E+00    75
RMM:  13    -0.386701825353E+03   -0.21111E-03   -0.97860E-05  6867   0.357E-02    0.522E-03
SOL: 169  -0.32135E+00    0.00000E+00   -0.32135E+00    72
RMM:  14    -0.386701892148E+03   -0.66795E-04   -0.86769E-05  6726   0.333E-02    0.378E-03
SOL: 170  -0.32108E+00    0.00000E+00   -0.32108E+00    66
RMM:  15    -0.386701962700E+03   -0.70552E-04   -0.62671E-05  6725   0.293E-02    0.349E-03
SOL: 171  -0.32084E+00    0.00000E+00   -0.32084E+00    67
RMM:  16    -0.386701989367E+03   -0.26667E-04   -0.48716E-05  6698   0.260E-02    0.483E-03
SOL: 172  -0.32061E+00    0.00000E+00   -0.32061E+00    68
RMM:  17    -0.386702001649E+03   -0.12282E-04   -0.44624E-05  6694   0.248E-02    0.283E-03
SOL: 173  -0.32044E+00    0.00000E+00   -0.32044E+00    66
RMM:  18    -0.386701991115E+03    0.10534E-04   -0.41854E-05  6691   0.243E-02    0.178E-03
SOL: 174  -0.32035E+00    0.00000E+00   -0.32035E+00    63
RMM:  19    -0.386702010409E+03   -0.19294E-04   -0.31517E-05  6604   0.210E-02    0.167E-03
SOL: 175  -0.32031E+00    0.00000E+00   -0.32031E+00    60
RMM:  20    -0.386702037011E+03   -0.26602E-04   -0.27896E-05  6590   0.195E-02    0.134E-03
SOL: 176  -0.32027E+00    0.00000E+00   -0.32027E+00    60
RMM:  21    -0.386702020432E+03    0.16580E-04   -0.26393E-05  6570   0.195E-02    0.115E-03
SOL: 177  -0.32025E+00    0.00000E+00   -0.32025E+00    60
RMM:  22    -0.386702001688E+03    0.18743E-04   -0.25202E-05  6534   0.188E-02    0.990E-04
SOL: 178  -0.32025E+00    0.00000E+00   -0.32025E+00    59
RMM:  23    -0.386702010769E+03   -0.90806E-05   -0.22228E-05  6532   0.170E-02
SOL: 179  -0.32026E+00    0.00000E+00   -0.32026E+00    56
   9 F= -.38670201E+03 E0= -.38669598E+03  d E =-.120637E-01  mag=     0.8957
 Finite differences progress:
  Degree of freedom:   4/ 30
  Displacement:        2/  2
  Total:               8/ 60
 bond charge predicted
       N       E                     dE             d eps       ncg     rms          rms(c)
SOL: 180  -0.32035E+00    0.00000E+00   -0.32035E+00    87
DAV:   1    -0.386741179526E+03   -0.39178E-01   -0.18808E+00  8064   0.122E+00    0.325E+00
SOL: 181  -0.36041E+00    0.00000E+00   -0.36041E+00    96
RMM:   2    -0.386521546372E+03    0.21963E+00   -0.70382E-01  7680   0.125E+00    0.312E+00
SOL: 182  -0.35594E+00    0.00000E+00   -0.35594E+00    91
RMM:   3    -0.386685027987E+03   -0.16348E+00   -0.19826E-01  7680   0.865E-01    0.183E+00
SOL: 183  -0.34823E+00    0.00000E+00   -0.34823E+00    90
RMM:   4    -0.386676903466E+03    0.81245E-02   -0.48721E-02  7680   0.350E-01    0.863E-01
SOL: 184  -0.34367E+00    0.00000E+00   -0.34367E+00    88
RMM:   5    -0.386692918270E+03   -0.16015E-01   -0.27863E-02  7680   0.324E-01    0.576E-01
SOL: 185  -0.35158E+00    0.00000E+00   -0.35158E+00    86
RMM:   6    -0.386694489999E+03   -0.15717E-02   -0.16803E-02  7680   0.290E-01    0.119E-01
SOL: 186  -0.35238E+00    0.00000E+00   -0.35238E+00    79
RMM:   7    -0.386695352657E+03   -0.86266E-03   -0.42325E-03  7680   0.156E-01    0.227E-01
SOL: 187  -0.35326E+00    0.00000E+00   -0.35326E+00    82
RMM:   8    -0.386695939579E+03   -0.58692E-03   -0.76896E-04  7680   0.727E-02    0.336E-02
SOL: 188  -0.35558E+00    0.00000E+00   -0.35558E+00    80
RMM:   9    -0.386696806212E+03   -0.86663E-03   -0.92437E-04  7680   0.792E-02    0.128E-01
SOL: 189  -0.35858E+00    0.00000E+00   -0.35858E+00    79
RMM:  10    -0.386696937995E+03   -0.13178E-03   -0.53094E-04  7680   0.646E-02    0.691E-02
SOL: 190  -0.36163E+00    0.00000E+00   -0.36163E+00    80
RMM:  11    -0.386697464784E+03   -0.52679E-03   -0.25404E-04  7521   0.495E-02    0.597E-02
SOL: 191  -0.36461E+00    0.00000E+00   -0.36461E+00    77
RMM:  12    -0.386697644060E+03   -0.17928E-03   -0.18355E-04  7199   0.448E-02    0.408E-02
SOL: 192  -0.36715E+00    0.00000E+00   -0.36715E+00    76
RMM:  13    -0.386697676885E+03   -0.32825E-04   -0.15618E-04  7172   0.426E-02    0.967E-03
SOL: 193  -0.36855E+00    0.00000E+00   -0.36855E+00    73
RMM:  14    -0.386697684509E+03   -0.76243E-05   -0.14509E-04  7062   0.418E-02    0.930E-03
SOL: 194  -0.36944E+00    0.00000E+00   -0.36944E+00    71
RMM:  15    -0.386697602046E+03    0.82463E-04   -0.83982E-05  6735   0.332E-02    0.738E-03
SOL: 195  -0.37004E+00    0.00000E+00   -0.37004E+00    69
RMM:  16    -0.386697569915E+03    0.32131E-04   -0.65395E-05  6732   0.305E-02    0.721E-03
SOL: 196  -0.37021E+00    0.00000E+00   -0.37021E+00    68
RMM:  17    -0.386697560113E+03    0.98020E-05   -0.50102E-05  6727   0.270E-02
SOL: 197  -0.37025E+00    0.00000E+00   -0.37025E+00    66
  10 F= -.38669756E+03 E0= -.38668868E+03  d E =-.177597E-01  mag=     0.8288
 Finite differences progress:
  Degree of freedom:   5/ 30
  Displacement:        1/  2
  Total:               9/ 60
 bond charge predicted
       N       E                     dE             d eps       ncg     rms          rms(c)
SOL: 198  -0.37049E+00    0.00000E+00   -0.37049E+00    87
DAV:   1    -0.386715704110E+03   -0.18134E-01   -0.33430E+00  9120   0.174E+00    0.105E+00
SOL: 199  -0.35593E+00    0.00000E+00   -0.35593E+00    91
RMM:   2    -0.386715521474E+03    0.18264E-03   -0.87989E-02  7680   0.496E-01    0.505E-01
SOL: 200  -0.34359E+00    0.00000E+00   -0.34359E+00    89
RMM:   3    -0.386704848389E+03    0.10673E-01   -0.17007E-02  7680   0.243E-01    0.395E-01
SOL: 201  -0.34205E+00    0.00000E+00   -0.34205E+00    85
RMM:   4    -0.386706036387E+03   -0.11880E-02   -0.66770E-03  7680   0.174E-01    0.215E-01
SOL: 202  -0.33420E+00    0.00000E+00   -0.33420E+00    86
RMM:   5    -0.386707843933E+03   -0.18075E-02   -0.23656E-03  7680   0.116E-01    0.931E-02
SOL: 203  -0.32803E+00    0.00000E+00   -0.32803E+00    85
RMM:   6    -0.386708829515E+03   -0.98558E-03   -0.12158E-03  7680   0.908E-02    0.995E-02
SOL: 204  -0.32676E+00    0.00000E+00   -0.32676E+00    84
RMM:   7    -0.386708575579E+03    0.25394E-03   -0.77027E-04  7680   0.706E-02    0.121E-01
SOL: 205  -0.32327E+00    0.00000E+00   -0.32327E+00    83
RMM:   8    -0.386709600803E+03   -0.10252E-02   -0.55659E-04  7680   0.646E-02    0.639E-02
SOL: 206  -0.31975E+00    0.00000E+00   -0.31975E+00    83
RMM:   9    -0.386710053506E+03   -0.45270E-03   -0.42343E-04  7680   0.539E-02    0.382E-02
SOL: 207  -0.31754E+00    0.00000E+00   -0.31754E+00    83
RMM:  10    -0.386710432129E+03   -0.37862E-03   -0.36076E-04  7680   0.558E-02    0.233E-02
SOL: 208  -0.31587E+00    0.00000E+00   -0.31587E+00    78
RMM:  11    -0.386710806301E+03   -0.37417E-03   -0.20224E-04  7642   0.459E-02    0.468E-02
SOL: 209  -0.31452E+00    0.00000E+00   -0.31452E+00    78
RMM:  12    -0.386711249168E+03   -0.44287E-03   -0.15450E-04  7413   0.435E-02    0.104E-02
SOL: 210  -0.31375E+00    0.00000E+00   -0.31375E+00    75
RMM:  13    -0.386711341680E+03   -0.92512E-04   -0.15413E-04  7555   0.445E-02    0.134E-02
SOL: 211  -0.31319E+00    0.00000E+00   -0.31319E+00    71
RMM:  14    -0.386711443142E+03   -0.10146E-03   -0.10841E-04  7230   0.392E-02    0.898E-03
SOL: 212  -0.31282E+00    0.00000E+00   -0.31282E+00    72
RMM:  15    -0.386711494457E+03   -0.51314E-04   -0.82701E-05  6810   0.346E-02    0.476E-03
SOL: 213  -0.31256E+00    0.00000E+00   -0.31256E+00    71
RMM:  16    -0.386711482565E+03    0.11891E-04   -0.78093E-05  6743   0.334E-02    0.856E-03
SOL: 214  -0.31237E+00    0.00000E+00   -0.31237E+00    68
RMM:  17    -0.386711457728E+03    0.24838E-04   -0.56377E-05  6711   0.285E-02    0.635E-03
SOL: 215  -0.31222E+00    0.00000E+00   -0.31222E+00    66
RMM:  18    -0.386711452243E+03    0.54844E-05   -0.50673E-05  6711   0.272E-02
SOL: 216  -0.31213E+00    0.00000E+00   -0.31213E+00    66
  11 F= -.38671145E+03 E0= -.38670653E+03  d E =-.983694E-02  mag=     0.9125
 Finite differences progress:
  Degree of freedom:   5/ 30
  Displacement:        2/  2
  Total:              10/ 60
 bond charge predicted
       N       E                     dE             d eps       ncg     rms          rms(c)
SOL: 217  -0.31305E+00    0.00000E+00   -0.31305E+00    87
DAV:   1    -0.386719297205E+03   -0.78395E-02   -0.16701E+00  9024   0.125E+00    0.244E+00
SOL: 218  -0.33534E+00    0.00000E+00   -0.33534E+00    95
RMM:   2    -0.386577878166E+03    0.14142E+00   -0.44002E-01  7680   0.978E-01    0.171E+00
SOL: 219  -0.33674E+00    0.00000E+00   -0.33674E+00    88
RMM:   3    -0.386685852672E+03   -0.10797E+00   -0.87012E-02  7680   0.576E-01    0.154E+00
SOL: 220  -0.32979E+00    0.00000E+00   -0.32979E+00    90
RMM:   4    -0.386682669343E+03    0.31833E-02   -0.43172E-02  7680   0.365E-01    0.681E-01
SOL: 221  -0.32558E+00    0.00000E+00   -0.32558E+00    88
RMM:   5    -0.386694299329E+03   -0.11630E-01   -0.24333E-02  7680   0.293E-01    0.553E-01
SOL: 222  -0.33057E+00    0.00000E+00   -0.33057E+00    86
RMM:   6    -0.386694186482E+03    0.11285E-03   -0.13743E-02  7680   0.259E-01    0.942E-02
SOL: 223  -0.33135E+00    0.00000E+00   -0.33135E+00    79
RMM:   7    -0.386694666192E+03   -0.47971E-03   -0.29660E-03  7680   0.127E-01    0.243E-01
SOL: 224  -0.33085E+00    0.00000E+00   -0.33085E+00    82
RMM:   8    -0.386695652381E+03   -0.98619E-03   -0.15278E-03  7680   0.981E-02    0.523E-02
SOL: 225  -0.33170E+00    0.00000E+00   -0.33170E+00    79
RMM:   9    -0.386696325423E+03   -0.67304E-03   -0.70229E-04  7680   0.694E-02    0.853E-02
SOL: 226  -0.33301E+00    0.00000E+00   -0.33301E+00    78
RMM:  10    -0.386696490598E+03   -0.16518E-03   -0.50699E-04  7680   0.628E-02    0.548E-02
SOL: 227  -0.33421E+00    0.00000E+00   -0.33421E+00    79
RMM:  11    -0.386696902570E+03   -0.41197E-03   -0.19261E-04  7131   0.434E-02    0.611E-02
SOL: 228  -0.33576E+00    0.00000E+00   -0.33576E+00    77
RMM:  12    -0.386697107769E+03   -0.20520E-03   -0.16768E-04  7326   0.449E-02    0.304E-02
SOL: 229  -0.33702E+00    0.00000E+00   -0.33702E+00    76
RMM:  13    -0.386697166787E+03   -0.59018E-04   -0.14891E-04  7090   0.418E-02    0.810E-03
SOL: 230  -0.33780E+00    0.00000E+00   -0.33780E+00    73
RMM:  14    -0.386697164026E+03    0.27610E-05   -0.12681E-04  6880   0.387E-02    0.132E-02
SOL: 231  -0.33840E+00    0.00000E+00   -0.33840E+00    71
RMM:  15    -0.386697080485E+03    0.83541E-04   -0.87575E-05  6742   0.336E-02    0.113E-02
SOL: 232  -0.33890E+00    0.00000E+00   -0.33890E+00    68
RMM:  16    -0.386697046376E+03    0.34108E-04   -0.73398E-05  6741   0.321E-02    0.434E-03
SOL: 233  -0.33918E+00    0.00000E+00   -0.33918E+00    65
RMM:  17    -0.386697110999E+03   -0.64623E-04   -0.55481E-05  6714   0.279E-02    0.300E-03
SOL: 234  -0.33927E+00    0.00000E+00   -0.33927E+00    63
RMM:  18    -0.386697115689E+03   -0.46897E-05   -0.43806E-05  6662   0.250E-02
SOL: 235  -0.33935E+00    0.00000E+00   -0.33935E+00    63
  12 F= -.38669712E+03 E0= -.38668942E+03  d E =-.153876E-01  mag=     0.8637
 Finite differences progress:
  Degree of freedom:   6/ 30
  Displacement:        1/  2
  Total:              11/ 60
 bond charge predicted
       N       E                     dE             d eps       ncg     rms          rms(c)
SOL: 236  -0.33798E+00    0.00000E+00   -0.33798E+00    89
DAV:   1    -0.386691815041E+03    0.52960E-02   -0.33361E+00 10944   0.175E+00    0.588E-01
SOL: 237  -0.33409E+00    0.00000E+00   -0.33409E+00    87
RMM:   2    -0.386701605890E+03   -0.97908E-02   -0.48856E-02  7680   0.356E-01    0.316E-01
SOL: 238  -0.33255E+00    0.00000E+00   -0.33255E+00    83
RMM:   3    -0.386699431556E+03    0.21743E-02   -0.39366E-03  7680   0.131E-01    0.383E-01
SOL: 239  -0.33415E+00    0.00000E+00   -0.33415E+00    82
RMM:   4    -0.386697949391E+03    0.14822E-02   -0.28557E-03  7680   0.123E-01    0.212E-01
SOL: 240  -0.33669E+00    0.00000E+00   -0.33669E+00    85
RMM:   5    -0.386698365663E+03   -0.41627E-03   -0.45869E-03  7680   0.128E-01    0.448E-01
SOL: 241  -0.33455E+00    0.00000E+00   -0.33455E+00    83
RMM:   6    -0.386698408612E+03   -0.42950E-04   -0.35250E-03  7680   0.133E-01    0.124E-01
SOL: 242  -0.33385E+00    0.00000E+00   -0.33385E+00    79
RMM:   7    -0.386698508114E+03   -0.99502E-04   -0.12766E-03  7680   0.805E-02    0.977E-02
SOL: 243  -0.33441E+00    0.00000E+00   -0.33441E+00    80
RMM:   8    -0.386698564595E+03   -0.56481E-04   -0.82408E-04  7680   0.741E-02    0.230E-02
SOL: 244  -0.33426E+00    0.00000E+00   -0.33426E+00    76
RMM:   9    -0.386698842354E+03   -0.27776E-03   -0.18410E-04  6900   0.408E-02    0.349E-02
SOL: 245  -0.33406E+00    0.00000E+00   -0.33406E+00    77
RMM:  10    -0.386698881426E+03   -0.39073E-04   -0.92758E-05  6733   0.320E-02    0.108E-02
SOL: 246  -0.33394E+00    0.00000E+00   -0.33394E+00    76
RMM:  11    -0.386698868190E+03    0.13237E-04   -0.90500E-05  6782   0.324E-02    0.834E-03
SOL: 247  -0.33376E+00    0.00000E+00   -0.33376E+00    75
RMM:  12    -0.386698940419E+03   -0.72229E-04   -0.72201E-05  6726   0.288E-02    0.967E-03
SOL: 248  -0.33353E+00    0.00000E+00   -0.33353E+00    74
RMM:  13    -0.386698955395E+03   -0.14975E-04   -0.61422E-05  6727   0.270E-02    0.288E-03
SOL: 249  -0.33333E+00    0.00000E+00   -0.33333E+00    72
RMM:  14    -0.386699008509E+03   -0.53115E-04   -0.52646E-05  6689   0.250E-02    0.401E-03
SOL: 250  -0.33320E+00    0.00000E+00   -0.33320E+00    67
RMM:  15    -0.386698988189E+03    0.20320E-04   -0.40344E-05  6654   0.225E-02    0.202E-03
SOL: 251  -0.33308E+00    0.00000E+00   -0.33308E+00    64
RMM:  16    -0.386699016152E+03   -0.27963E-04   -0.30954E-05  6594   0.199E-02    0.119E-03
SOL: 252  -0.33298E+00    0.00000E+00   -0.33298E+00    64
RMM:  17    -0.386699007365E+03    0.87864E-05   -0.27417E-05  6560   0.189E-02
SOL: 253  -0.33293E+00    0.00000E+00   -0.33293E+00    62
  13 F= -.38669901E+03 E0= -.38669216E+03  d E =-.137011E-01  mag=     0.8754
 Finite differences progress:
  Degree of freedom:   6/ 30
  Displacement:        2/  2
  Total:              12/ 60
 bond charge predicted
       N       E                     dE             d eps       ncg     rms          rms(c)
SOL: 254  -0.33399E+00    0.00000E+00   -0.33399E+00    88
DAV:   1    -0.386684521312E+03    0.14495E-01   -0.18128E+00  7872   0.153E+00    0.521E-01
SOL: 255  -0.33097E+00    0.00000E+00   -0.33097E+00    85
RMM:   2    -0.386692930496E+03   -0.84092E-02   -0.29237E-02  7680   0.290E-01    0.432E-01
SOL: 256  -0.32648E+00    0.00000E+00   -0.32648E+00    86
RMM:   3    -0.386694207470E+03   -0.12770E-02   -0.74619E-03  7680   0.140E-01    0.301E-01
SOL: 257  -0.32384E+00    0.00000E+00   -0.32384E+00    83
RMM:   4    -0.386694394367E+03   -0.18690E-03   -0.27932E-03  7680   0.120E-01    0.617E-01
SOL: 258  -0.32619E+00    0.00000E+00   -0.32619E+00    85
RMM:   5    -0.386690502913E+03    0.38915E-02   -0.48540E-03  7680   0.159E-01    0.133E-01
SOL: 259  -0.32502E+00    0.00000E+00   -0.32502E+00    82
RMM:   6    -0.386692109184E+03   -0.16063E-02   -0.41193E-03  7680   0.148E-01    0.262E-01
SOL: 260  -0.32335E+00    0.00000E+00   -0.32335E+00    81
RMM:   7    -0.386692154083E+03   -0.44898E-04   -0.23610E-03  7680   0.114E-01    0.882E-02
SOL: 261  -0.32239E+00    0.00000E+00   -0.32239E+00    77
RMM:   8    -0.386692385372E+03   -0.23129E-03   -0.41096E-04  7069   0.518E-02    0.318E-02
SOL: 262  -0.32187E+00    0.00000E+00   -0.32187E+00    78
RMM:   9    -0.386692259926E+03    0.12545E-03   -0.31856E-04  7147   0.495E-02    0.239E-02
SOL: 263  -0.32089E+00    0.00000E+00   -0.32089E+00    76
RMM:  10    -0.386692308194E+03   -0.48268E-04   -0.11010E-04  6732   0.336E-02    0.365E-02
SOL: 264  -0.31949E+00    0.00000E+00   -0.31949E+00    78
RMM:  11    -0.386692366320E+03   -0.58126E-04   -0.96299E-05  6734   0.318E-02    0.139E-02
SOL: 265  -0.31864E+00    0.00000E+00   -0.31864E+00    75
RMM:  12    -0.386692418796E+03   -0.52476E-04   -0.90442E-05  6732   0.321E-02    0.602E-03
SOL: 266  -0.31801E+00    0.00000E+00   -0.31801E+00    73
RMM:  13    -0.386692501111E+03   -0.82315E-04   -0.82729E-05  6732   0.307E-02    0.439E-03
SOL: 267  -0.31760E+00    0.00000E+00   -0.31760E+00    71
RMM:  14    -0.386692537661E+03   -0.36550E-04   -0.53542E-05  6726   0.259E-02    0.611E-03
SOL: 268  -0.31724E+00    0.00000E+00   -0.31724E+00    70
RMM:  15    -0.386692553432E+03   -0.15770E-04   -0.48261E-05  6716   0.249E-02    0.377E-03
SOL: 269  -0.31708E+00    0.00000E+00   -0.31708E+00    65
RMM:  16    -0.386692595348E+03   -0.41916E-04   -0.37567E-05  6646   0.222E-02    0.315E-03
SOL: 270  -0.31696E+00    0.00000E+00   -0.31696E+00    65
RMM:  17    -0.386692598092E+03   -0.27439E-05   -0.29118E-05  6600   0.197E-02
SOL: 271  -0.31688E+00    0.00000E+00   -0.31688E+00    65
  14 F= -.38669260E+03 E0= -.38668660E+03  d E =-.120060E-01  mag=     0.8943
 Finite differences progress:
  Degree of freedom:   7/ 30
  Displacement:        1/  2
  Total:              13/ 60
 bond charge predicted
       N       E                     dE             d eps       ncg     rms          rms(c)
SOL: 272  -0.31683E+00    0.00000E+00   -0.31683E+00    89
DAV:   1    -0.386688551910E+03    0.40434E-02   -0.38837E+00  7872   0.185E+00    0.192E+00
SOL: 273  -0.33659E+00    0.00000E+00   -0.33659E+00    94
RMM:   2    -0.386615996652E+03    0.72555E-01   -0.26411E-01  7680   0.796E-01    0.104E+00
SOL: 274  -0.34331E+00    0.00000E+00   -0.34331E+00    86
RMM:   3    -0.386678225060E+03   -0.62228E-01   -0.40335E-02  7680   0.401E-01    0.150E+00
SOL: 275  -0.33402E+00    0.00000E+00   -0.33402E+00    90
RMM:   4    -0.386674801100E+03    0.34240E-02   -0.44269E-02  7680   0.383E-01    0.482E-01
SOL: 276  -0.33215E+00    0.00000E+00   -0.33215E+00    89
RMM:   5    -0.386694460005E+03   -0.19659E-01   -0.34367E-02  7680   0.356E-01    0.175E+00
SOL: 277  -0.34264E+00    0.00000E+00   -0.34264E+00    89
RMM:   6    -0.386676408480E+03    0.18052E-01   -0.37263E-02  7680   0.414E-01    0.152E-01
SOL: 278  -0.34266E+00    0.00000E+00   -0.34266E+00    84
RMM:   7    -0.386680861709E+03   -0.44532E-02   -0.23114E-02  7680   0.332E-01    0.309E-01
SOL: 279  -0.34289E+00    0.00000E+00   -0.34289E+00    83
RMM:   8    -0.386681194673E+03   -0.33296E-03   -0.28810E-03  7680   0.137E-01    0.789E-02
SOL: 280  -0.34396E+00    0.00000E+00   -0.34396E+00    78
RMM:   9    -0.386681885581E+03   -0.69091E-03   -0.73898E-04  7623   0.714E-02    0.260E-02
SOL: 281  -0.34573E+00    0.00000E+00   -0.34573E+00    80
RMM:  10    -0.386682570916E+03   -0.68534E-03   -0.42283E-04  7574   0.566E-02    0.462E-02
SOL: 282  -0.34760E+00    0.00000E+00   -0.34760E+00    80
RMM:  11    -0.386683135141E+03   -0.56423E-03   -0.28532E-04  7232   0.489E-02    0.867E-02
SOL: 283  -0.34958E+00    0.00000E+00   -0.34958E+00    77
RMM:  12    -0.386683145419E+03   -0.10278E-04   -0.20254E-04  7086   0.450E-02    0.614E-02
SOL: 284  -0.35148E+00    0.00000E+00   -0.35148E+00    78
RMM:  13    -0.386683150956E+03   -0.55370E-05   -0.15937E-04  6914   0.418E-02    0.164E-02
SOL: 285  -0.35270E+00    0.00000E+00   -0.35270E+00    75
RMM:  14    -0.386683288834E+03   -0.13788E-03   -0.14996E-04  6827   0.395E-02    0.873E-03
SOL: 286  -0.35329E+00    0.00000E+00   -0.35329E+00    70
RMM:  15    -0.386683222326E+03    0.66508E-04   -0.81495E-05  6729   0.320E-02    0.773E-03
SOL: 287  -0.35407E+00    0.00000E+00   -0.35407E+00    71
RMM:  16    -0.386683219731E+03    0.25946E-05   -0.62289E-05  6728   0.285E-02
SOL: 288  -0.35462E+00    0.00000E+00   -0.35462E+00    69
  15 F= -.38668322E+03 E0= -.38667512E+03  d E =-.162075E-01  mag=     0.8517
 Finite differences progress:
  Degree of freedom:   7/ 30
  Displacement:        2/  2
  Total:              14/ 60
 bond charge predicted
       N       E                     dE             d eps       ncg     rms          rms(c)
SOL: 289  -0.35486E+00    0.00000E+00   -0.35486E+00    89
DAV:   1    -0.386705486329E+03   -0.22264E-01   -0.17218E+00  7680   0.127E+00    0.878E-01
SOL: 290  -0.34237E+00    0.00000E+00   -0.34237E+00    90
RMM:   2    -0.386718222186E+03   -0.12736E-01   -0.76837E-02  7680   0.466E-01    0.407E-01
SOL: 291  -0.33148E+00    0.00000E+00   -0.33148E+00    88
RMM:   3    -0.386709912718E+03    0.83095E-02   -0.13245E-02  7680   0.204E-01    0.315E-01
SOL: 292  -0.32986E+00    0.00000E+00   -0.32986E+00    85
RMM:   4    -0.386710849633E+03   -0.93691E-03   -0.52794E-03  7680   0.151E-01    0.148E-01
SOL: 293  -0.32131E+00    0.00000E+00   -0.32131E+00    86
RMM:   5    -0.386712489372E+03   -0.16397E-02   -0.23333E-03  7680   0.111E-01    0.691E-02
SOL: 294  -0.31666E+00    0.00000E+00   -0.31666E+00    84
RMM:   6    -0.386712944058E+03   -0.45469E-03   -0.64998E-04  7680   0.686E-02    0.151E-01
SOL: 295  -0.31636E+00    0.00000E+00   -0.31636E+00    83
RMM:   7    -0.386712048569E+03    0.89549E-03   -0.91045E-04  7680   0.718E-02    0.117E-01
SOL: 296  -0.31233E+00    0.00000E+00   -0.31233E+00    84
RMM:   8    -0.386712973432E+03   -0.92486E-03   -0.84996E-04  7680   0.777E-02    0.112E-01
SOL: 297  -0.30968E+00    0.00000E+00   -0.30968E+00    82
RMM:   9    -0.386713284442E+03   -0.31101E-03   -0.26803E-04  7457   0.446E-02    0.472E-02
SOL: 298  -0.30697E+00    0.00000E+00   -0.30697E+00    81
RMM:  10    -0.386713614873E+03   -0.33043E-03   -0.26878E-04  7545   0.470E-02    0.145E-02
SOL: 299  -0.30504E+00    0.00000E+00   -0.30504E+00    80
RMM:  11    -0.386714097767E+03   -0.48289E-03   -0.22538E-04  7621   0.472E-02    0.150E-02
SOL: 300  -0.30408E+00    0.00000E+00   -0.30408E+00    75
RMM:  12    -0.386714322526E+03   -0.22476E-03   -0.11733E-04  6931   0.382E-02    0.128E-02
SOL: 301  -0.30317E+00    0.00000E+00   -0.30317E+00    75
RMM:  13    -0.386714529406E+03   -0.20688E-03   -0.13422E-04  7397   0.422E-02    0.563E-03
SOL: 302  -0.30279E+00    0.00000E+00   -0.30279E+00    71
RMM:  14    -0.386714690779E+03   -0.16137E-03   -0.91915E-05  6741   0.355E-02    0.453E-03
SOL: 303  -0.30255E+00    0.00000E+00   -0.30255E+00    70
RMM:  15    -0.386714709605E+03   -0.18826E-04   -0.73210E-05  6727   0.321E-02    0.404E-03
SOL: 304  -0.30233E+00    0.00000E+00   -0.30233E+00    70
RMM:  16    -0.386714731555E+03   -0.21950E-04   -0.64652E-05  6726   0.305E-02    0.310E-03
SOL: 305  -0.30222E+00    0.00000E+00   -0.30222E+00    68
RMM:  17    -0.386714708472E+03    0.23083E-04   -0.50526E-05  6719   0.271E-02    0.272E-03
SOL: 306  -0.30217E+00    0.00000E+00   -0.30217E+00    67
RMM:  18    -0.386714726627E+03   -0.18155E-04   -0.41963E-05  6688   0.252E-02    0.238E-03
SOL: 307  -0.30216E+00    0.00000E+00   -0.30216E+00    66
RMM:  19    -0.386714715187E+03    0.11441E-04   -0.36584E-05  6675   0.230E-02    0.184E-03
SOL: 308  -0.30215E+00    0.00000E+00   -0.30215E+00    64
RMM:  20    -0.386714671175E+03    0.44011E-04   -0.33906E-05  6635   0.223E-02    0.202E-03
SOL: 309  -0.30214E+00    0.00000E+00   -0.30214E+00    62
RMM:  21    -0.386714663979E+03    0.71959E-05   -0.29863E-05  6598   0.206E-02
SOL: 310  -0.30213E+00    0.00000E+00   -0.30213E+00    63
  16 F= -.38671466E+03 E0= -.38671013E+03  d E =-.906315E-02  mag=     0.9265
 Finite differences progress:
  Degree of freedom:   8/ 30
  Displacement:        1/  2
  Total:              15/ 60
 bond charge predicted
       N       E                     dE             d eps       ncg     rms          rms(c)
SOL: 311  -0.30215E+00    0.00000E+00   -0.30215E+00    91
DAV:   1    -0.386742640973E+03   -0.27970E-01   -0.37238E+00  7680   0.176E+00    0.349E+00
SOL: 312  -0.33790E+00    0.00000E+00   -0.33790E+00    97
RMM:   2    -0.386491220944E+03    0.25142E+00   -0.86685E-01  7680   0.137E+00    0.227E+00
SOL: 313  -0.34438E+00    0.00000E+00   -0.34438E+00    89
RMM:   3    -0.386683761011E+03   -0.19254E+00   -0.16472E-01  7680   0.796E-01    0.207E+00
SOL: 314  -0.33500E+00    0.00000E+00   -0.33500E+00    91
RMM:   4    -0.386674843292E+03    0.89177E-02   -0.84404E-02  7680   0.509E-01    0.799E-01
SOL: 315  -0.33283E+00    0.00000E+00   -0.33283E+00    90
RMM:   5    -0.386699832459E+03   -0.24989E-01   -0.46337E-02  7680   0.408E-01    0.152E+00
SOL: 316  -0.34801E+00    0.00000E+00   -0.34801E+00    89
RMM:   6    -0.386689267603E+03    0.10565E-01   -0.39569E-02  7680   0.438E-01    0.161E-01
SOL: 317  -0.34973E+00    0.00000E+00   -0.34973E+00    81
RMM:   7    -0.386692227613E+03   -0.29600E-02   -0.17669E-02  7680   0.303E-01    0.337E-01
SOL: 318  -0.35234E+00    0.00000E+00   -0.35234E+00    84
RMM:   8    -0.386693456674E+03   -0.12291E-02   -0.29813E-03  7680   0.140E-01    0.622E-02
SOL: 319  -0.35716E+00    0.00000E+00   -0.35716E+00    83
RMM:   9    -0.386694792247E+03   -0.13356E-02   -0.14720E-03  7680   0.102E-01    0.122E-01
SOL: 320  -0.36289E+00    0.00000E+00   -0.36289E+00    83
RMM:  10    -0.386696012311E+03   -0.12201E-02   -0.11771E-03  7680   0.907E-02    0.174E-01
SOL: 321  -0.36900E+00    0.00000E+00   -0.36900E+00    82
RMM:  11    -0.386696719277E+03   -0.70697E-03   -0.59356E-04  7680   0.713E-02    0.171E-01
SOL: 322  -0.37581E+00    0.00000E+00   -0.37581E+00    82
RMM:  12    -0.386696871359E+03   -0.15208E-03   -0.37880E-04  7680   0.581E-02    0.676E-02
SOL: 323  -0.38010E+00    0.00000E+00   -0.38010E+00    79
RMM:  13    -0.386697202641E+03   -0.33128E-03   -0.41842E-04  7680   0.642E-02    0.220E-02
SOL: 324  -0.38300E+00    0.00000E+00   -0.38300E+00    76
RMM:  14    -0.386697213904E+03   -0.11263E-04   -0.28800E-04  7651   0.545E-02    0.164E-02
SOL: 325  -0.38446E+00    0.00000E+00   -0.38446E+00    73
RMM:  15    -0.386697145264E+03    0.68640E-04   -0.14209E-04  7403   0.428E-02    0.208E-02
SOL: 326  -0.38564E+00    0.00000E+00   -0.38564E+00    74
RMM:  16    -0.386697037112E+03    0.10815E-03   -0.12386E-04  7204   0.412E-02    0.135E-02
SOL: 327  -0.38601E+00    0.00000E+00   -0.38601E+00    69
RMM:  17    -0.386696997440E+03    0.39672E-04   -0.82473E-05  6988   0.353E-02    0.519E-03
SOL: 328  -0.38605E+00    0.00000E+00   -0.38605E+00    67
RMM:  18    -0.386696983242E+03    0.14197E-04   -0.59023E-05  6748   0.303E-02    0.391E-03
SOL: 329  -0.38606E+00    0.00000E+00   -0.38606E+00    66
RMM:  19    -0.386696975819E+03    0.74231E-05   -0.50354E-05  6723   0.274E-02
SOL: 330  -0.38601E+00    0.00000E+00   -0.38601E+00    68
  17 F= -.38669698E+03 E0= -.38668787E+03  d E =-.182131E-01  mag=     0.8218
 Finite differences progress:
  Degree of freedom:   8/ 30
  Displacement:        2/  2
  Total:              16/ 60
 bond charge predicted
       N       E                     dE             d eps       ncg     rms          rms(c)
SOL: 331  -0.38659E+00    0.00000E+00   -0.38659E+00    90
DAV:   1    -0.386695427961E+03    0.15553E-02   -0.16959E+00  8640   0.124E+00    0.846E-01
SOL: 332  -0.37186E+00    0.00000E+00   -0.37186E+00    90
RMM:   2    -0.386703108896E+03   -0.76809E-02   -0.66156E-02  7680   0.432E-01    0.365E-01
SOL: 333  -0.36165E+00    0.00000E+00   -0.36165E+00    87
RMM:   3    -0.386706307918E+03   -0.31990E-02   -0.88435E-03  7680   0.179E-01    0.146E+00
SOL: 334  -0.37248E+00    0.00000E+00   -0.37248E+00    89
RMM:   4    -0.386696568090E+03    0.97398E-02   -0.32912E-02  7680   0.370E-01    0.183E-01
SOL: 335  -0.36892E+00    0.00000E+00   -0.36892E+00    84
RMM:   5    -0.386701378826E+03   -0.48107E-02   -0.19311E-02  7680   0.288E-01    0.478E-01
SOL: 336  -0.36357E+00    0.00000E+00   -0.36357E+00    84
RMM:   6    -0.386700630408E+03    0.74842E-03   -0.45084E-03  7680   0.157E-01    0.120E-01
SOL: 337  -0.36148E+00    0.00000E+00   -0.36148E+00    79
RMM:   7    -0.386700540015E+03    0.90393E-04   -0.13827E-03  7680   0.884E-02    0.373E-02
SOL: 338  -0.35949E+00    0.00000E+00   -0.35949E+00    79
RMM:   8    -0.386700707312E+03   -0.16730E-03   -0.37819E-04  7430   0.543E-02    0.477E-02
SOL: 339  -0.35731E+00    0.00000E+00   -0.35731E+00    78
RMM:   9    -0.386700909756E+03   -0.20244E-03   -0.15256E-04  6917   0.397E-02    0.521E-02
SOL: 340  -0.35425E+00    0.00000E+00   -0.35425E+00    79
RMM:  10    -0.386700953203E+03   -0.43447E-04   -0.14777E-04  7055   0.387E-02    0.192E-02
SOL: 341  -0.35229E+00    0.00000E+00   -0.35229E+00    77
RMM:  11    -0.386701071729E+03   -0.11853E-03   -0.12373E-04  6953   0.378E-02    0.189E-02
SOL: 342  -0.35050E+00    0.00000E+00   -0.35050E+00    76
RMM:  12    -0.386701181193E+03   -0.10946E-03   -0.95586E-05  6811   0.341E-02    0.107E-02
SOL: 343  -0.34908E+00    0.00000E+00   -0.34908E+00    74
RMM:  13    -0.386701348104E+03   -0.16691E-03   -0.82881E-05  6726   0.310E-02    0.468E-03
SOL: 344  -0.34816E+00    0.00000E+00   -0.34816E+00    72
RMM:  14    -0.386701419772E+03   -0.71668E-04   -0.68341E-05  6726   0.285E-02    0.380E-03
SOL: 345  -0.34785E+00    0.00000E+00   -0.34785E+00    67
RMM:  15    -0.386701463936E+03   -0.44164E-04   -0.45434E-05  6676   0.238E-02    0.180E-03
SOL: 346  -0.34766E+00    0.00000E+00   -0.34766E+00    66
RMM:  16    -0.386701465987E+03   -0.20511E-05   -0.36731E-05  6625   0.217E-02
SOL: 347  -0.34758E+00    0.00000E+00   -0.34758E+00    63
  18 F= -.38670147E+03 E0= -.38669360E+03  d E =-.157248E-01  mag=     0.8451
 Finite differences progress:
  Degree of freedom:   9/ 30
  Displacement:        1/  2
  Total:              17/ 60
 bond charge predicted
       N       E                     dE             d eps       ncg     rms          rms(c)
SOL: 348  -0.34759E+00    0.00000E+00   -0.34759E+00    92
DAV:   1    -0.386691324470E+03    0.10139E-01   -0.32747E+00  7680   0.166E+00    0.661E-01
SOL: 349  -0.33902E+00    0.00000E+00   -0.33902E+00    88
RMM:   2    -0.386708062070E+03   -0.16738E-01   -0.57209E-02  7680   0.421E-01    0.302E-01
SOL: 350  -0.33344E+00    0.00000E+00   -0.33344E+00    86
RMM:   3    -0.386707483136E+03    0.57893E-03   -0.62086E-03  7680   0.150E-01    0.696E-01
SOL: 351  -0.33723E+00    0.00000E+00   -0.33723E+00    86
RMM:   4    -0.386704067547E+03    0.34156E-02   -0.98822E-03  7680   0.220E-01    0.186E-01
SOL: 352  -0.33569E+00    0.00000E+00   -0.33569E+00    83
RMM:   5    -0.386706500907E+03   -0.24334E-02   -0.61965E-03  7680   0.167E-01    0.387E-01
SOL: 353  -0.33206E+00    0.00000E+00   -0.33206E+00    84
RMM:   6    -0.386706376940E+03    0.12397E-03   -0.35555E-03  7680   0.138E-01    0.821E-02
SOL: 354  -0.33067E+00    0.00000E+00   -0.33067E+00    79
RMM:   7    -0.386706456443E+03   -0.79503E-04   -0.10763E-03  7680   0.785E-02    0.608E-02
SOL: 355  -0.32988E+00    0.00000E+00   -0.32988E+00    80
RMM:   8    -0.386706389888E+03    0.66555E-04   -0.45952E-04  7585   0.596E-02    0.317E-02
SOL: 356  -0.32871E+00    0.00000E+00   -0.32871E+00    78
RMM:   9    -0.386706597824E+03   -0.20794E-03   -0.18862E-04  7135   0.447E-02    0.373E-02
SOL: 357  -0.32728E+00    0.00000E+00   -0.32728E+00    78
RMM:  10    -0.386706622728E+03   -0.24905E-04   -0.13962E-04  7157   0.398E-02    0.767E-03
SOL: 358  -0.32632E+00    0.00000E+00   -0.32632E+00    77
RMM:  11    -0.386706668886E+03   -0.46157E-04   -0.13403E-04  7293   0.413E-02    0.120E-02
SOL: 359  -0.32552E+00    0.00000E+00   -0.32552E+00    74
RMM:  12    -0.386706801014E+03   -0.13213E-03   -0.88193E-05  6937   0.343E-02    0.123E-02
SOL: 360  -0.32461E+00    0.00000E+00   -0.32461E+00    75
RMM:  13    -0.386706892555E+03   -0.91541E-04   -0.74460E-05  6725   0.306E-02    0.373E-03
SOL: 361  -0.32416E+00    0.00000E+00   -0.32416E+00    70
RMM:  14    -0.386706898103E+03   -0.55481E-05   -0.67324E-05  6713   0.298E-02
SOL: 362  -0.32395E+00    0.00000E+00   -0.32395E+00    67
  19 F= -.38670690E+03 E0= -.38670034E+03  d E =-.131253E-01  mag=     0.8766
 Finite differences progress:
  Degree of freedom:   9/ 30
  Displacement:        2/  2
  Total:              18/ 60
 bond charge predicted
       N       E                     dE             d eps       ncg     rms          rms(c)
SOL: 363  -0.32471E+00    0.00000E+00   -0.32471E+00    89
DAV:   1    -0.386692366525E+03    0.14526E-01   -0.38440E+00  8064   0.257E+00    0.552E-01
SOL: 364  -0.32901E+00    0.00000E+00   -0.32901E+00    87
RMM:   2    -0.386691947743E+03    0.41878E-03   -0.56372E-02  7680   0.423E-01    0.306E-01
SOL: 365  -0.33517E+00    0.00000E+00   -0.33517E+00    86
RMM:   3    -0.386694690529E+03   -0.27428E-02   -0.56702E-03  7680   0.130E-01    0.743E-01
SOL: 366  -0.33241E+00    0.00000E+00   -0.33241E+00    85
RMM:   4    -0.386696022265E+03   -0.13317E-02   -0.76446E-03  7680   0.193E-01    0.434E-01
SOL: 367  -0.33038E+00    0.00000E+00   -0.33038E+00    85
RMM:   5    -0.386698289934E+03   -0.22677E-02   -0.61240E-03  7680   0.144E-01    0.522E-01
SOL: 368  -0.33393E+00    0.00000E+00   -0.33393E+00    84
RMM:   6    -0.386697641446E+03    0.64849E-03   -0.10436E-02  7680   0.228E-01    0.630E-02
SOL: 369  -0.33410E+00    0.00000E+00   -0.33410E+00    79
RMM:   7    -0.386698488434E+03   -0.84699E-03   -0.23811E-03  7680   0.116E-01    0.692E-02
SOL: 370  -0.33421E+00    0.00000E+00   -0.33421E+00    78
RMM:   8    -0.386698749620E+03   -0.26119E-03   -0.43645E-04  7604   0.591E-02    0.359E-02
SOL: 371  -0.33481E+00    0.00000E+00   -0.33481E+00    75
RMM:   9    -0.386698816632E+03   -0.67012E-04   -0.19951E-04  6880   0.427E-02    0.346E-02
SOL: 372  -0.33553E+00    0.00000E+00   -0.33553E+00    75
RMM:  10    -0.386699007855E+03   -0.19122E-03   -0.10041E-04  6727   0.321E-02    0.157E-02
SOL: 373  -0.33622E+00    0.00000E+00   -0.33622E+00    75
RMM:  11    -0.386698998361E+03    0.94939E-05   -0.83750E-05  6727   0.298E-02
SOL: 374  -0.33671E+00    0.00000E+00   -0.33671E+00    72
  20 F= -.38669900E+03 E0= -.38669158E+03  d E =-.148406E-01  mag=     0.8688
 Finite differences progress:
  Degree of freedom:  10/ 30
  Displacement:        1/  2
  Total:              19/ 60
 bond charge predicted
       N       E                     dE             d eps       ncg     rms          rms(c)
SOL: 375  -0.33659E+00    0.00000E+00   -0.33659E+00    87
DAV:   1    -0.386660446370E+03    0.38561E-01   -0.12187E+01  9504   0.423E+00    0.782E-01
SOL: 376  -0.33664E+00    0.00000E+00   -0.33664E+00    83
RMM:   2    -0.386697962850E+03   -0.37516E-01   -0.11475E-01  6897   0.418E-01    0.421E-01
SOL: 377  -0.33523E+00    0.00000E+00   -0.33523E+00    83
RMM:   3    -0.386700117751E+03   -0.21549E-02   -0.54436E-03  7680   0.112E-01    0.190E-01
SOL: 378  -0.33228E+00    0.00000E+00   -0.33228E+00    84
RMM:   4    -0.386701368656E+03   -0.12509E-02   -0.24144E-03  7680   0.885E-02    0.366E-01
SOL: 379  -0.33289E+00    0.00000E+00   -0.33289E+00    80
RMM:   5    -0.386700124352E+03    0.12443E-02   -0.20826E-03  7680   0.120E-01    0.318E-01
SOL: 380  -0.33442E+00    0.00000E+00   -0.33442E+00    81
RMM:   6    -0.386698706837E+03    0.14175E-02   -0.11750E-03  7680   0.680E-02    0.150E-01
SOL: 381  -0.33376E+00    0.00000E+00   -0.33376E+00    79
RMM:   7    -0.386699833862E+03   -0.11270E-02   -0.32984E-03  7680   0.144E-01    0.843E-02
SOL: 382  -0.33353E+00    0.00000E+00   -0.33353E+00    73
RMM:   8    -0.386699650115E+03    0.18375E-03   -0.18512E-04  6929   0.408E-02    0.216E-02
SOL: 383  -0.33341E+00    0.00000E+00   -0.33341E+00    75
RMM:   9    -0.386699548976E+03    0.10114E-03   -0.15430E-04  6727   0.381E-02    0.126E-02
SOL: 384  -0.33323E+00    0.00000E+00   -0.33323E+00    72
RMM:  10    -0.386699590359E+03   -0.41383E-04   -0.77169E-05  6725   0.289E-02    0.119E-02
SOL: 385  -0.33299E+00    0.00000E+00   -0.33299E+00    73
RMM:  11    -0.386699682105E+03   -0.91747E-04   -0.61001E-05  6713   0.262E-02    0.363E-03
SOL: 386  -0.33283E+00    0.00000E+00   -0.33283E+00    70
RMM:  12    -0.386699734915E+03   -0.52810E-04   -0.55832E-05  6713   0.252E-02    0.386E-03
SOL: 387  -0.33266E+00    0.00000E+00   -0.33266E+00    70
RMM:  13    -0.386699804909E+03   -0.69994E-04   -0.49921E-05  6703   0.244E-02    0.206E-03
SOL: 388  -0.33248E+00    0.00000E+00   -0.33248E+00    70
RMM:  14    -0.386699812533E+03   -0.76241E-05   -0.43011E-05  6663   0.220E-02
SOL: 389  -0.33239E+00    0.00000E+00   -0.33239E+00    66
  21 F= -.38669981E+03 E0= -.38669270E+03  d E =-.142312E-01  mag=     0.8704
 Finite differences progress:
  Degree of freedom:  10/ 30
  Displacement:        2/  2
  Total:              20/ 60
 bond charge predicted
       N       E                     dE             d eps       ncg     rms          rms(c)
SOL: 390  -0.33242E+00    0.00000E+00   -0.33242E+00    85
DAV:   1    -0.386715288786E+03   -0.15484E-01   -0.63689E+00  8544   0.303E+00    0.418E-01
SOL: 391  -0.33255E+00    0.00000E+00   -0.33255E+00    81
RMM:   2    -0.386705685499E+03    0.96033E-02   -0.43547E-02  6841   0.328E-01    0.236E-01
SOL: 392  -0.33345E+00    0.00000E+00   -0.33345E+00    82
RMM:   3    -0.386704739332E+03    0.94617E-03   -0.21475E-03  7360   0.761E-02    0.787E-02
SOL: 393  -0.33399E+00    0.00000E+00   -0.33399E+00    77
RMM:   4    -0.386705488619E+03   -0.74929E-03   -0.35141E-04  6733   0.443E-02    0.936E-02
SOL: 394  -0.33382E+00    0.00000E+00   -0.33382E+00    74
RMM:   5    -0.386705792146E+03   -0.30353E-03   -0.20837E-04  6741   0.393E-02    0.707E-02
SOL: 395  -0.33332E+00    0.00000E+00   -0.33332E+00    78
RMM:   6    -0.386706009344E+03   -0.21720E-03   -0.29561E-04  7364   0.430E-02    0.125E-01
SOL: 396  -0.33379E+00    0.00000E+00   -0.33379E+00    77
RMM:   7    -0.386705750626E+03    0.25872E-03   -0.70399E-04  7595   0.713E-02    0.393E-02
SOL: 397  -0.33400E+00    0.00000E+00   -0.33400E+00    72
RMM:   8    -0.386705881603E+03   -0.13098E-03   -0.16967E-04  6801   0.401E-02    0.159E-02
SOL: 398  -0.33406E+00    0.00000E+00   -0.33406E+00    71
RMM:   9    -0.386705760396E+03    0.12121E-03   -0.13197E-04  6728   0.366E-02    0.486E-03
SOL: 399  -0.33419E+00    0.00000E+00   -0.33419E+00    70
RMM:  10    -0.386705720060E+03    0.40337E-04   -0.55753E-05  6726   0.256E-02    0.387E-03
SOL: 400  -0.33436E+00    0.00000E+00   -0.33436E+00    70
RMM:  11    -0.386705750751E+03   -0.30691E-04   -0.47498E-05  6704   0.232E-02    0.240E-03
SOL: 401  -0.33450E+00    0.00000E+00   -0.33450E+00    69
RMM:  12    -0.386705766694E+03   -0.15943E-04   -0.45514E-05  6654   0.228E-02    0.159E-03
SOL: 402  -0.33461E+00    0.00000E+00   -0.33461E+00    67
RMM:  13    -0.386705767608E+03   -0.91395E-06   -0.35017E-05  6604   0.198E-02
SOL: 403  -0.33471E+00    0.00000E+00   -0.33471E+00    66
  22 F= -.38670577E+03 E0= -.38669852E+03  d E =-.145021E-01  mag=     0.8690
 Finite differences progress:
  Degree of freedom:  11/ 30
  Displacement:        1/  2
  Total:              21/ 60
 bond charge predicted
       N       E                     dE             d eps       ncg     rms          rms(c)
SOL: 404  -0.33485E+00    0.00000E+00   -0.33485E+00    86
DAV:   1    -0.386710354919E+03   -0.45882E-02   -0.13114E+01  7872   0.430E+00    0.383E-01
SOL: 405  -0.33453E+00    0.00000E+00   -0.33453E+00    83
RMM:   2    -0.386704601488E+03    0.57534E-02   -0.65170E-02  6858   0.343E-01    0.209E-01
SOL: 406  -0.33485E+00    0.00000E+00   -0.33485E+00    80
RMM:   3    -0.386703853103E+03    0.74839E-03   -0.20488E-03  6763   0.724E-02    0.998E-02
SOL: 407  -0.33587E+00    0.00000E+00   -0.33587E+00    81
RMM:   4    -0.386704165137E+03   -0.31203E-03   -0.82205E-04  7375   0.616E-02    0.158E-01
SOL: 408  -0.33560E+00    0.00000E+00   -0.33560E+00    76
RMM:   5    -0.386704480245E+03   -0.31511E-03   -0.43174E-04  7380   0.542E-02    0.127E-01
SOL: 409  -0.33492E+00    0.00000E+00   -0.33492E+00    78
RMM:   6    -0.386704790971E+03   -0.31073E-03   -0.30076E-04  7423   0.410E-02    0.685E-02
SOL: 410  -0.33522E+00    0.00000E+00   -0.33522E+00    76
RMM:   7    -0.386704945146E+03   -0.15417E-03   -0.65541E-04  7502   0.670E-02    0.195E-02
SOL: 411  -0.33525E+00    0.00000E+00   -0.33525E+00    69
RMM:   8    -0.386704983860E+03   -0.38714E-04   -0.87852E-05  6723   0.308E-02    0.110E-02
SOL: 412  -0.33518E+00    0.00000E+00   -0.33518E+00    72
RMM:   9    -0.386705019753E+03   -0.35894E-04   -0.67110E-05  6721   0.275E-02    0.629E-03
SOL: 413  -0.33521E+00    0.00000E+00   -0.33521E+00    67
RMM:  10    -0.386705050978E+03   -0.31225E-04   -0.50533E-05  6701   0.238E-02    0.619E-03
SOL: 414  -0.33525E+00    0.00000E+00   -0.33525E+00    67
RMM:  11    -0.386705061044E+03   -0.10066E-04   -0.39486E-05  6603   0.212E-02    0.140E-03
SOL: 415  -0.33527E+00    0.00000E+00   -0.33527E+00    66
RMM:  12    -0.386705066371E+03   -0.53272E-05   -0.34521E-05  6599   0.196E-02
SOL: 416  -0.33529E+00    0.00000E+00   -0.33529E+00    63
  23 F= -.38670507E+03 E0= -.38669780E+03  d E =-.145254E-01  mag=     0.8680
 Finite differences progress:
  Degree of freedom:  11/ 30
  Displacement:        2/  2
  Total:              22/ 60
 bond charge predicted
       N       E                     dE             d eps       ncg     rms          rms(c)
SOL: 417  -0.33510E+00    0.00000E+00   -0.33510E+00    85
DAV:   1    -0.386697834463E+03    0.72266E-02   -0.65379E+00  7680   0.307E+00    0.276E-01
SOL: 418  -0.33525E+00    0.00000E+00   -0.33525E+00    81
RMM:   2    -0.386703871618E+03   -0.60372E-02   -0.38885E-02  6826   0.275E-01    0.160E-01
SOL: 419  -0.33615E+00    0.00000E+00   -0.33615E+00    80
RMM:   3    -0.386702980406E+03    0.89121E-03   -0.12288E-03  7380   0.608E-02    0.844E-02
SOL: 420  -0.33658E+00    0.00000E+00   -0.33658E+00    77
RMM:   4    -0.386704209268E+03   -0.12289E-02   -0.40819E-04  6731   0.480E-02    0.112E-01
SOL: 421  -0.33635E+00    0.00000E+00   -0.33635E+00    75
RMM:   5    -0.386704513547E+03   -0.30428E-03   -0.29435E-04  7079   0.454E-02    0.795E-02
SOL: 422  -0.33600E+00    0.00000E+00   -0.33600E+00    77
RMM:   6    -0.386704423740E+03    0.89807E-04   -0.25821E-04  6788   0.437E-02    0.975E-02
SOL: 423  -0.33640E+00    0.00000E+00   -0.33640E+00    76
RMM:   7    -0.386704356282E+03    0.67458E-04   -0.61880E-04  7502   0.661E-02    0.312E-02
SOL: 424  -0.33654E+00    0.00000E+00   -0.33654E+00    69
RMM:   8    -0.386704386601E+03   -0.30319E-04   -0.10051E-04  6698   0.320E-02    0.932E-03
SOL: 425  -0.33659E+00    0.00000E+00   -0.33659E+00    71
RMM:   9    -0.386704318508E+03    0.68093E-04   -0.76996E-05  6716   0.289E-02    0.812E-03
SOL: 426  -0.33674E+00    0.00000E+00   -0.33674E+00    69
RMM:  10    -0.386704314173E+03    0.43348E-05   -0.43108E-05  6655   0.227E-02
SOL: 427  -0.33691E+00    0.00000E+00   -0.33691E+00    69
  24 F= -.38670431E+03 E0= -.38669688E+03  d E =-.148731E-01  mag=     0.8661
 Finite differences progress:
  Degree of freedom:  12/ 30
  Displacement:        1/  2
  Total:              23/ 60
 bond charge predicted
       N       E                     dE             d eps       ncg     rms          rms(c)
SOL: 428  -0.33706E+00    0.00000E+00   -0.33706E+00    87
DAV:   1    -0.386683577574E+03    0.20741E-01   -0.13038E+01  7680   0.434E+00    0.430E-01
SOL: 429  -0.33715E+00    0.00000E+00   -0.33715E+00    82
RMM:   2    -0.386704627491E+03   -0.21050E-01   -0.62686E-02  6912   0.370E-01    0.246E-01
SOL: 430  -0.33560E+00    0.00000E+00   -0.33560E+00    82
RMM:   3    -0.386706697058E+03   -0.20696E-02   -0.27258E-03  7680   0.923E-02    0.127E-01
SOL: 431  -0.33374E+00    0.00000E+00   -0.33374E+00    82
RMM:   4    -0.386707099188E+03   -0.40213E-03   -0.10092E-03  7526   0.709E-02    0.323E-01
SOL: 432  -0.33421E+00    0.00000E+00   -0.33421E+00    79
RMM:   5    -0.386706435321E+03    0.66387E-03   -0.21267E-03  7680   0.118E-01    0.289E-01
SOL: 433  -0.33500E+00    0.00000E+00   -0.33500E+00    78
RMM:   6    -0.386705170545E+03    0.12648E-02   -0.52999E-04  7583   0.555E-02    0.474E-02
SOL: 434  -0.33476E+00    0.00000E+00   -0.33476E+00    76
RMM:   7    -0.386706257951E+03   -0.10874E-02   -0.16749E-03  7680   0.105E-01    0.876E-02
SOL: 435  -0.33457E+00    0.00000E+00   -0.33457E+00    72
RMM:   8    -0.386706246343E+03    0.11608E-04   -0.39155E-04  7624   0.536E-02    0.516E-02
SOL: 436  -0.33451E+00    0.00000E+00   -0.33451E+00    73
RMM:   9    -0.386706115372E+03    0.13097E-03   -0.90660E-05  6723   0.295E-02    0.405E-02
SOL: 437  -0.33437E+00    0.00000E+00   -0.33437E+00    72
RMM:  10    -0.386706060706E+03    0.54666E-04   -0.85474E-05  6723   0.313E-02    0.302E-02
SOL: 438  -0.33413E+00    0.00000E+00   -0.33413E+00    71
RMM:  11    -0.386706064230E+03   -0.35240E-05   -0.73820E-05  6722   0.294E-02
SOL: 439  -0.33393E+00    0.00000E+00   -0.33393E+00    69
  25 F= -.38670606E+03 E0= -.38669901E+03  d E =-.141114E-01  mag=     0.8689
 Finite differences progress:
  Degree of freedom:  12/ 30
  Displacement:        2/  2
  Total:              24/ 60
 bond charge predicted
       N       E                     dE             d eps       ncg     rms          rms(c)
SOL: 440  -0.33379E+00    0.00000E+00   -0.33379E+00    84
DAV:   1    -0.386680718299E+03    0.25342E-01   -0.64467E+00  7680   0.311E+00    0.314E-01
SOL: 441  -0.33354E+00    0.00000E+00   -0.33354E+00    83
RMM:   2    -0.386704502268E+03   -0.23784E-01   -0.55767E-02  6894   0.358E-01    0.178E-01
SOL: 442  -0.33367E+00    0.00000E+00   -0.33367E+00    80
RMM:   3    -0.386703949717E+03    0.55255E-03   -0.11895E-03  6755   0.639E-02    0.105E-01
SOL: 443  -0.33496E+00    0.00000E+00   -0.33496E+00    82
RMM:   4    -0.386703181654E+03    0.76806E-03   -0.10063E-03  7680   0.629E-02    0.167E-01
SOL: 444  -0.33467E+00    0.00000E+00   -0.33467E+00    78
RMM:   5    -0.386704181312E+03   -0.99966E-03   -0.44278E-04  7539   0.575E-02    0.143E-01
SOL: 445  -0.33391E+00    0.00000E+00   -0.33391E+00    78
RMM:   6    -0.386704496913E+03   -0.31560E-03   -0.30320E-04  7492   0.398E-02    0.357E-02
SOL: 446  -0.33412E+00    0.00000E+00   -0.33412E+00    75
RMM:   7    -0.386704643055E+03   -0.14614E-03   -0.46550E-04  7194   0.563E-02    0.175E-02
SOL: 447  -0.33419E+00    0.00000E+00   -0.33419E+00    68
RMM:   8    -0.386704652505E+03   -0.94504E-05   -0.54569E-05  6710   0.242E-02
SOL: 448  -0.33409E+00    0.00000E+00   -0.33409E+00    72
  26 F= -.38670465E+03 E0= -.38669760E+03  d E =-.141050E-01  mag=     0.8693
 Finite differences progress:
  Degree of freedom:  13/ 30
  Displacement:        1/  2
  Total:              25/ 60
 bond charge predicted
       N       E                     dE             d eps       ncg     rms          rms(c)
SOL: 449  -0.33416E+00    0.00000E+00   -0.33416E+00    87
DAV:   1    -0.386734463882E+03   -0.29821E-01   -0.12939E+01  7680   0.403E+00    0.487E-01
SOL: 450  -0.33473E+00    0.00000E+00   -0.33473E+00    86
RMM:   2    -0.386702162271E+03    0.32302E-01   -0.74500E-02  7649   0.371E-01    0.264E-01
SOL: 451  -0.33601E+00    0.00000E+00   -0.33601E+00    84
RMM:   3    -0.386702739357E+03   -0.57709E-03   -0.28207E-03  7366   0.863E-02    0.215E-01
SOL: 452  -0.33515E+00    0.00000E+00   -0.33515E+00    80
RMM:   4    -0.386704218479E+03   -0.14791E-02   -0.10150E-03  7680   0.701E-02    0.116E-01
SOL: 453  -0.33376E+00    0.00000E+00   -0.33376E+00    82
RMM:   5    -0.386705048721E+03   -0.83024E-03   -0.96093E-04  7680   0.658E-02    0.329E-01
SOL: 454  -0.33525E+00    0.00000E+00   -0.33525E+00    82
RMM:   6    -0.386703502223E+03    0.15465E-02   -0.24877E-03  7680   0.122E-01    0.563E-02
SOL: 455  -0.33551E+00    0.00000E+00   -0.33551E+00    76
RMM:   7    -0.386703785750E+03   -0.28353E-03   -0.97041E-04  7643   0.784E-02    0.723E-02
SOL: 456  -0.33534E+00    0.00000E+00   -0.33534E+00    76
RMM:   8    -0.386703921806E+03   -0.13606E-03   -0.41732E-04  7477   0.539E-02    0.110E-02
SOL: 457  -0.33544E+00    0.00000E+00   -0.33544E+00    71
RMM:   9    -0.386703812212E+03    0.10959E-03   -0.94767E-05  6693   0.295E-02    0.146E-02
SOL: 458  -0.33566E+00    0.00000E+00   -0.33566E+00    73
RMM:  10    -0.386703820081E+03   -0.78687E-05   -0.55471E-05  6708   0.243E-02
SOL: 459  -0.33578E+00    0.00000E+00   -0.33578E+00    69
  27 F= -.38670382E+03 E0= -.38669646E+03  d E =-.147139E-01  mag=     0.8671
 Finite differences progress:
  Degree of freedom:  13/ 30
  Displacement:        2/  2
  Total:              26/ 60
 bond charge predicted
       N       E                     dE             d eps       ncg     rms          rms(c)
SOL: 460  -0.33572E+00    0.00000E+00   -0.33572E+00    85
DAV:   1    -0.386672850843E+03    0.30961E-01   -0.61242E+00  8064   0.280E+00    0.536E-01
SOL: 461  -0.33461E+00    0.00000E+00   -0.33461E+00    86
RMM:   2    -0.386701178574E+03   -0.28328E-01   -0.49468E-02  7680   0.302E-01    0.283E-01
SOL: 462  -0.33258E+00    0.00000E+00   -0.33258E+00    84
RMM:   3    -0.386702555274E+03   -0.13767E-02   -0.26303E-03  7680   0.873E-02    0.305E-01
SOL: 463  -0.33345E+00    0.00000E+00   -0.33345E+00    80
RMM:   4    -0.386700814835E+03    0.17404E-02   -0.16055E-03  7680   0.102E-01    0.205E-01
SOL: 464  -0.33566E+00    0.00000E+00   -0.33566E+00    84
RMM:   5    -0.386700952279E+03   -0.13744E-03   -0.24850E-03  7680   0.945E-02    0.392E-01
SOL: 465  -0.33364E+00    0.00000E+00   -0.33364E+00    83
RMM:   6    -0.386701635713E+03   -0.68343E-03   -0.39949E-03  7680   0.144E-01    0.650E-02
SOL: 466  -0.33336E+00    0.00000E+00   -0.33336E+00    76
RMM:   7    -0.386701984834E+03   -0.34912E-03   -0.11327E-03  7680   0.785E-02    0.445E-02
SOL: 467  -0.33347E+00    0.00000E+00   -0.33347E+00    75
RMM:   8    -0.386701970674E+03    0.14160E-04   -0.32005E-04  7171   0.497E-02    0.222E-02
SOL: 468  -0.33324E+00    0.00000E+00   -0.33324E+00    73
RMM:   9    -0.386702029255E+03   -0.58581E-04   -0.99916E-05  6725   0.327E-02    0.215E-02
SOL: 469  -0.33285E+00    0.00000E+00   -0.33285E+00    75
RMM:  10    -0.386702117357E+03   -0.88102E-04   -0.67212E-05  6720   0.272E-02    0.685E-03
SOL: 470  -0.33272E+00    0.00000E+00   -0.33272E+00    70
RMM:  11    -0.386702113503E+03    0.38542E-05   -0.73652E-05  6720   0.293E-02
SOL: 471  -0.33249E+00    0.00000E+00   -0.33249E+00    70
  28 F= -.38670211E+03 E0= -.38669515E+03  d E =-.139173E-01  mag=     0.8717
 Finite differences progress:
  Degree of freedom:  14/ 30
  Displacement:        1/  2
  Total:              27/ 60
 bond charge predicted
[...]
RMM:   2    -0.386696014718E+03    0.10278E-01   -0.55795E-02  7680   0.378E-01    0.374E-01
SOL: 858  -0.32946E+00    0.00000E+00   -0.32946E+00    81
RMM:   3    -0.386705458516E+03   -0.94438E-02   -0.54088E-03  7680   0.159E-01    0.503E-01
SOL: 859  -0.32731E+00    0.00000E+00   -0.32731E+00    83
RMM:   4    -0.386706022428E+03   -0.56391E-03   -0.35224E-03  7680   0.118E-01    0.178E-01
SOL: 860  -0.32634E+00    0.00000E+00   -0.32634E+00    82
RMM:   5    -0.386707427701E+03   -0.14053E-02   -0.31040E-03  7680   0.116E-01    0.295E-01
SOL: 861  -0.32851E+00    0.00000E+00   -0.32851E+00    82
RMM:   6    -0.386706500488E+03    0.92721E-03   -0.29349E-03  7680   0.129E-01    0.750E-02
SOL: 862  -0.32849E+00    0.00000E+00   -0.32849E+00    79
RMM:   7    -0.386707171526E+03   -0.67104E-03   -0.13918E-03  7680   0.945E-02    0.850E-02
SOL: 863  -0.32840E+00    0.00000E+00   -0.32840E+00    75
RMM:   8    -0.386707262176E+03   -0.90650E-04   -0.17581E-04  6728   0.381E-02    0.968E-03
SOL: 864  -0.32861E+00    0.00000E+00   -0.32861E+00    71
RMM:   9    -0.386707181597E+03    0.80579E-04   -0.16697E-04  6724   0.364E-02    0.139E-02
SOL: 865  -0.32894E+00    0.00000E+00   -0.32894E+00    74
RMM:  10    -0.386707309993E+03   -0.12840E-03   -0.70450E-05  6723   0.272E-02    0.958E-03
SOL: 866  -0.32910E+00    0.00000E+00   -0.32910E+00    70
RMM:  11    -0.386707342125E+03   -0.32133E-04   -0.54889E-05  6723   0.250E-02    0.683E-03
SOL: 867  -0.32927E+00    0.00000E+00   -0.32927E+00    68
RMM:  12    -0.386707364936E+03   -0.22811E-04   -0.38415E-05  6624   0.211E-02    0.527E-03
SOL: 868  -0.32947E+00    0.00000E+00   -0.32947E+00    67
RMM:  13    -0.386707388488E+03   -0.23552E-04   -0.37399E-05  6607   0.211E-02    0.295E-03
SOL: 869  -0.32965E+00    0.00000E+00   -0.32965E+00    67
RMM:  14    -0.386707390972E+03   -0.24834E-05   -0.33135E-05  6564   0.194E-02
SOL: 870  -0.32976E+00    0.00000E+00   -0.32976E+00    64
  54 F= -.38670739E+03 E0= -.38670044E+03  d E =-.138966E-01  mag=     0.8768
 Finite differences progress:
  Degree of freedom:  27/ 30
  Displacement:        1/  2
  Total:              53/ 60
 bond charge predicted
       N       E                     dE             d eps       ncg     rms          rms(c)
SOL: 871  -0.32949E+00    0.00000E+00   -0.32949E+00    87
DAV:   1    -0.386713627506E+03   -0.62390E-02   -0.96897E+00  7680   0.283E+00    0.578E-01
SOL: 872  -0.33484E+00    0.00000E+00   -0.33484E+00    88
RMM:   2    -0.386696205520E+03    0.17422E-01   -0.71883E-02  7680   0.429E-01    0.298E-01
SOL: 873  -0.33688E+00    0.00000E+00   -0.33688E+00    81
RMM:   3    -0.386702871127E+03   -0.66656E-02   -0.44914E-03  7680   0.142E-01    0.523E-01
SOL: 874  -0.33508E+00    0.00000E+00   -0.33508E+00    83
RMM:   4    -0.386703534131E+03   -0.66300E-03   -0.39433E-03  7680   0.138E-01    0.274E-01
SOL: 875  -0.33335E+00    0.00000E+00   -0.33335E+00    84
RMM:   5    -0.386706529255E+03   -0.29951E-02   -0.45930E-03  7680   0.127E-01    0.562E-01
SOL: 876  -0.33686E+00    0.00000E+00   -0.33686E+00    84
RMM:   6    -0.386703387723E+03    0.31415E-02   -0.78475E-03  7680   0.205E-01    0.499E-02
SOL: 877  -0.33716E+00    0.00000E+00   -0.33716E+00    78
RMM:   7    -0.386704688732E+03   -0.13010E-02   -0.28868E-03  7680   0.127E-01    0.102E-01
SOL: 878  -0.33721E+00    0.00000E+00   -0.33721E+00    77
RMM:   8    -0.386704898649E+03   -0.20992E-03   -0.68041E-04  7680   0.717E-02    0.141E-02
SOL: 879  -0.33761E+00    0.00000E+00   -0.33761E+00    74
RMM:   9    -0.386704797241E+03    0.10141E-03   -0.19877E-04  6924   0.439E-02    0.160E-02
SOL: 880  -0.33827E+00    0.00000E+00   -0.33827E+00    75
RMM:  10    -0.386705021062E+03   -0.22382E-03   -0.12051E-04  6737   0.377E-02    0.135E-02
SOL: 881  -0.33863E+00    0.00000E+00   -0.33863E+00    71
RMM:  11    -0.386705011148E+03    0.99144E-05   -0.87677E-05  6791   0.335E-02
SOL: 882  -0.33887E+00    0.00000E+00   -0.33887E+00    69
  55 F= -.38670501E+03 E0= -.38669740E+03  d E =-.152266E-01  mag=     0.8674
 Finite differences progress:
  Degree of freedom:  27/ 30
  Displacement:        2/  2
  Total:              54/ 60
 bond charge predicted
       N       E                     dE             d eps       ncg     rms          rms(c)
SOL: 883  -0.33971E+00    0.00000E+00   -0.33971E+00    87
DAV:   1    -0.386691242645E+03    0.13778E-01   -0.48097E+00  7680   0.204E+00    0.538E-01
SOL: 884  -0.34275E+00    0.00000E+00   -0.34275E+00    86
RMM:   2    -0.386690722043E+03    0.52060E-03   -0.58517E-02  7680   0.367E-01    0.481E-01
SOL: 885  -0.34082E+00    0.00000E+00   -0.34082E+00    83
RMM:   3    -0.386697251354E+03   -0.65293E-02   -0.57403E-03  7680   0.152E-01    0.394E-01
SOL: 886  -0.33674E+00    0.00000E+00   -0.33674E+00    85
RMM:   4    -0.386698033083E+03   -0.78173E-03   -0.43918E-03  7680   0.106E-01    0.298E-01
SOL: 887  -0.33686E+00    0.00000E+00   -0.33686E+00    81
RMM:   5    -0.386697421174E+03    0.61191E-03   -0.40628E-03  7680   0.147E-01    0.198E-01
SOL: 888  -0.33740E+00    0.00000E+00   -0.33740E+00    80
RMM:   6    -0.386696662047E+03    0.75913E-03   -0.11985E-03  7680   0.716E-02    0.170E-01
SOL: 889  -0.33618E+00    0.00000E+00   -0.33618E+00    80
RMM:   7    -0.386697382239E+03   -0.72019E-03   -0.16461E-03  7680   0.102E-01    0.459E-02
SOL: 890  -0.33591E+00    0.00000E+00   -0.33591E+00    73
RMM:   8    -0.386697153658E+03    0.22858E-03   -0.23218E-04  6998   0.451E-02    0.299E-02
SOL: 891  -0.33583E+00    0.00000E+00   -0.33583E+00    75
RMM:   9    -0.386697064567E+03    0.89091E-04   -0.15976E-04  6734   0.374E-02    0.778E-03
SOL: 892  -0.33551E+00    0.00000E+00   -0.33551E+00    73
RMM:  10    -0.386696985684E+03    0.78883E-04   -0.65200E-05  6716   0.265E-02    0.121E-02
SOL: 893  -0.33519E+00    0.00000E+00   -0.33519E+00    73
RMM:  11    -0.386696998746E+03   -0.13062E-04   -0.49785E-05  6705   0.242E-02    0.288E-03
SOL: 894  -0.33490E+00    0.00000E+00   -0.33490E+00    72
RMM:  12    -0.386697011352E+03   -0.12606E-04   -0.48255E-05  6703   0.234E-02    0.367E-03
SOL: 895  -0.33466E+00    0.00000E+00   -0.33466E+00    70
RMM:  13    -0.386697027191E+03   -0.15839E-04   -0.49220E-05  6647   0.245E-02    0.467E-03
SOL: 896  -0.33440E+00    0.00000E+00   -0.33440E+00    70
RMM:  14    -0.386697033343E+03   -0.61520E-05   -0.41346E-05  6624   0.222E-02
SOL: 897  -0.33425E+00    0.00000E+00   -0.33425E+00    66
  56 F= -.38669703E+03 E0= -.38668995E+03  d E =-.141695E-01  mag=     0.8703
 Finite differences progress:
  Degree of freedom:  28/ 30
  Displacement:        1/  2
  Total:              55/ 60
 bond charge predicted
       N       E                     dE             d eps       ncg     rms          rms(c)
SOL: 898  -0.33316E+00    0.00000E+00   -0.33316E+00    88
DAV:   1    -0.386740730190E+03   -0.43703E-01   -0.96228E+00  7680   0.284E+00    0.932E-01
SOL: 899  -0.32781E+00    0.00000E+00   -0.32781E+00    89
RMM:   2    -0.386701653506E+03    0.39077E-01   -0.98512E-02  7680   0.452E-01    0.652E-01
SOL: 900  -0.32943E+00    0.00000E+00   -0.32943E+00    84
RMM:   3    -0.386698937766E+03    0.27157E-02   -0.13816E-02  7680   0.229E-01    0.826E-01
SOL: 901  -0.33253E+00    0.00000E+00   -0.33253E+00    85
RMM:   4    -0.386692171025E+03    0.67667E-02   -0.67670E-03  7680   0.178E-01    0.321E-01
SOL: 902  -0.33568E+00    0.00000E+00   -0.33568E+00    85
RMM:   5    -0.386694171502E+03   -0.20005E-02   -0.69281E-03  7680   0.175E-01    0.442E-01
SOL: 903  -0.33392E+00    0.00000E+00   -0.33392E+00    84
RMM:   6    -0.386695811895E+03   -0.16404E-02   -0.71034E-03  7680   0.201E-01    0.633E-02
SOL: 904  -0.33430E+00    0.00000E+00   -0.33430E+00    79
RMM:   7    -0.386696444867E+03   -0.63297E-03   -0.21267E-03  7680   0.104E-01    0.113E-01
SOL: 905  -0.33503E+00    0.00000E+00   -0.33503E+00    78
RMM:   8    -0.386696341610E+03    0.10326E-03   -0.37936E-04  7360   0.553E-02    0.380E-02
SOL: 906  -0.33501E+00    0.00000E+00   -0.33501E+00    78
RMM:   9    -0.386696608916E+03   -0.26731E-03   -0.36587E-04  7364   0.564E-02    0.259E-02
SOL: 907  -0.33509E+00    0.00000E+00   -0.33509E+00    73
RMM:  10    -0.386696623258E+03   -0.14341E-04   -0.93852E-05  6726   0.310E-02    0.126E-02
SOL: 908  -0.33533E+00    0.00000E+00   -0.33533E+00    73
RMM:  11    -0.386696677311E+03   -0.54053E-04   -0.84651E-05  6724   0.297E-02    0.936E-03
SOL: 909  -0.33556E+00    0.00000E+00   -0.33556E+00    72
RMM:  12    -0.386696720875E+03   -0.43565E-04   -0.61903E-05  6721   0.259E-02    0.604E-03
SOL: 910  -0.33581E+00    0.00000E+00   -0.33581E+00    72
RMM:  13    -0.386696734770E+03   -0.13895E-04   -0.53606E-05  6701   0.242E-02    0.754E-03
SOL: 911  -0.33610E+00    0.00000E+00   -0.33610E+00    71
RMM:  14    -0.386696709076E+03    0.25694E-04   -0.42146E-05  6651   0.215E-02    0.423E-03
SOL: 912  -0.33631E+00    0.00000E+00   -0.33631E+00    69
RMM:  15    -0.386696737216E+03   -0.28139E-04   -0.35685E-05  6591   0.203E-02    0.118E-03
SOL: 913  -0.33641E+00    0.00000E+00   -0.33641E+00    63
RMM:  16    -0.386696748155E+03   -0.10940E-04   -0.27552E-05  6552   0.181E-02    0.106E-03
SOL: 914  -0.33647E+00    0.00000E+00   -0.33647E+00    59
RMM:  17    -0.386696754289E+03   -0.61333E-05   -0.21951E-05  6503   0.162E-02
SOL: 915  -0.33652E+00    0.00000E+00   -0.33652E+00    59
  57 F= -.38669675E+03 E0= -.38668935E+03  d E =-.148073E-01  mag=     0.8654
 Finite differences progress:
  Degree of freedom:  28/ 30
  Displacement:        2/  2
  Total:              56/ 60
 bond charge predicted
       N       E                     dE             d eps       ncg     rms          rms(c)
SOL: 916  -0.33660E+00    0.00000E+00   -0.33660E+00    86
DAV:   1    -0.386703533567E+03   -0.67854E-02   -0.48639E+00  7680   0.202E+00    0.100E+00
SOL: 917  -0.35031E+00    0.00000E+00   -0.35031E+00    91
RMM:   2    -0.386670177305E+03    0.33356E-01   -0.10348E-01  7680   0.499E-01    0.661E-01
SOL: 918  -0.35182E+00    0.00000E+00   -0.35182E+00    83
RMM:   3    -0.386694305413E+03   -0.24128E-01   -0.15025E-02  7680   0.259E-01    0.935E-01
SOL: 919  -0.34645E+00    0.00000E+00   -0.34645E+00    87
RMM:   4    -0.386694011664E+03    0.29375E-03   -0.12029E-02  7680   0.210E-01    0.164E-01
SOL: 920  -0.34692E+00    0.00000E+00   -0.34692E+00    83
RMM:   5    -0.386696739894E+03   -0.27282E-02   -0.72240E-03  7680   0.190E-01    0.304E-01
SOL: 921  -0.35063E+00    0.00000E+00   -0.35063E+00    83
RMM:   6    -0.386696205604E+03    0.53429E-03   -0.30217E-03  7680   0.132E-01    0.113E-01
SOL: 922  -0.35068E+00    0.00000E+00   -0.35068E+00    80
RMM:   7    -0.386697124544E+03   -0.91894E-03   -0.17302E-03  7680   0.103E-01    0.509E-02
SOL: 923  -0.35147E+00    0.00000E+00   -0.35147E+00    75
RMM:   8    -0.386697199080E+03   -0.74536E-04   -0.19670E-04  6729   0.419E-02    0.273E-02
SOL: 924  -0.35232E+00    0.00000E+00   -0.35232E+00    74
RMM:   9    -0.386697339816E+03   -0.14074E-03   -0.19605E-04  6947   0.430E-02    0.181E-02
SOL: 925  -0.35345E+00    0.00000E+00   -0.35345E+00    74
RMM:  10    -0.386697536428E+03   -0.19661E-03   -0.95054E-05  6727   0.332E-02    0.214E-02
SOL: 926  -0.35429E+00    0.00000E+00   -0.35429E+00    72
RMM:  11    -0.386697569701E+03   -0.33274E-04   -0.76247E-05  6726   0.305E-02    0.176E-02
SOL: 927  -0.35524E+00    0.00000E+00   -0.35524E+00    72
RMM:  12    -0.386697605504E+03   -0.35803E-04   -0.78704E-05  6726   0.319E-02    0.809E-03
SOL: 928  -0.35615E+00    0.00000E+00   -0.35615E+00    72
RMM:  13    -0.386697631176E+03   -0.25672E-04   -0.73254E-05  6724   0.299E-02    0.421E-03
SOL: 929  -0.35679E+00    0.00000E+00   -0.35679E+00    70
RMM:  14    -0.386697644309E+03   -0.13133E-04   -0.57641E-05  6715   0.274E-02    0.401E-03
SOL: 930  -0.35717E+00    0.00000E+00   -0.35717E+00    66
RMM:  15    -0.386697637646E+03    0.66624E-05   -0.47752E-05  6687   0.254E-02
SOL: 931  -0.35742E+00    0.00000E+00   -0.35742E+00    64
  58 F= -.38669764E+03 E0= -.38668942E+03  d E =-.164333E-01  mag=     0.8447
 Finite differences progress:
  Degree of freedom:  29/ 30
  Displacement:        1/  2
  Total:              57/ 60
 bond charge predicted
       N       E                     dE             d eps       ncg     rms          rms(c)
SOL: 932  -0.35881E+00    0.00000E+00   -0.35881E+00    88
DAV:   1    -0.386679039119E+03    0.18605E-01   -0.96804E+00  7680   0.288E+00    0.915E-01
SOL: 933  -0.34673E+00    0.00000E+00   -0.34673E+00    89
RMM:   2    -0.386708731546E+03   -0.29692E-01   -0.93018E-02  7680   0.496E-01    0.439E-01
SOL: 934  -0.33692E+00    0.00000E+00   -0.33692E+00    87
RMM:   3    -0.386704102977E+03    0.46286E-02   -0.10912E-02  7680   0.206E-01    0.720E-01
SOL: 935  -0.33997E+00    0.00000E+00   -0.33997E+00    86
RMM:   4    -0.386702013775E+03    0.20892E-02   -0.10518E-02  7680   0.233E-01    0.297E-01
SOL: 936  -0.33742E+00    0.00000E+00   -0.33742E+00    85
RMM:   5    -0.386703913680E+03   -0.18999E-02   -0.92920E-03  7680   0.185E-01    0.481E-01
SOL: 937  -0.33235E+00    0.00000E+00   -0.33235E+00    85
RMM:   6    -0.386703296016E+03    0.61766E-03   -0.58394E-03  7680   0.180E-01    0.177E-01
SOL: 938  -0.32985E+00    0.00000E+00   -0.32985E+00    80
RMM:   7    -0.386703039922E+03    0.25609E-03   -0.11410E-03  7680   0.798E-02    0.676E-02
SOL: 939  -0.32817E+00    0.00000E+00   -0.32817E+00    81
RMM:   8    -0.386703144336E+03   -0.10441E-03   -0.90309E-04  7680   0.792E-02    0.567E-02
SOL: 940  -0.32555E+00    0.00000E+00   -0.32555E+00    80
RMM:   9    -0.386703592859E+03   -0.44852E-03   -0.29522E-04  7456   0.521E-02    0.592E-02
SOL: 941  -0.32191E+00    0.00000E+00   -0.32191E+00    82
RMM:  10    -0.386703675972E+03   -0.83113E-04   -0.28741E-04  7576   0.505E-02    0.124E-02
SOL: 942  -0.32035E+00    0.00000E+00   -0.32035E+00    78
RMM:  11    -0.386703893650E+03   -0.21768E-03   -0.19840E-04  7367   0.466E-02    0.123E-02
SOL: 943  -0.31893E+00    0.00000E+00   -0.31893E+00    77
RMM:  12    -0.386704079975E+03   -0.18633E-03   -0.13742E-04  7021   0.409E-02    0.164E-02
SOL: 944  -0.31777E+00    0.00000E+00   -0.31777E+00    75
RMM:  13    -0.386704283081E+03   -0.20311E-03   -0.10578E-04  6795   0.359E-02    0.965E-03
SOL: 945  -0.31700E+00    0.00000E+00   -0.31700E+00    72
RMM:  14    -0.386704440352E+03   -0.15727E-03   -0.76557E-05  6732   0.310E-02    0.500E-03
SOL: 946  -0.31662E+00    0.00000E+00   -0.31662E+00    70
RMM:  15    -0.386704525640E+03   -0.85288E-04   -0.72840E-05  6732   0.310E-02    0.340E-03
SOL: 947  -0.31633E+00    0.00000E+00   -0.31633E+00    69
RMM:  16    -0.386704557524E+03   -0.31884E-04   -0.58560E-05  6727   0.280E-02    0.362E-03
SOL: 948  -0.31618E+00    0.00000E+00   -0.31618E+00    66
RMM:  17    -0.386704557925E+03   -0.40082E-06   -0.46640E-05  6701   0.254E-02
SOL: 949  -0.31609E+00    0.00000E+00   -0.31609E+00    65
  59 F= -.38670456E+03 E0= -.38669857E+03  d E =-.119677E-01  mag=     0.8905
 Finite differences progress:
  Degree of freedom:  29/ 30
  Displacement:        2/  2
  Total:              58/ 60
 bond charge predicted
       N       E                     dE             d eps       ncg     rms          rms(c)
SOL: 950  -0.31582E+00    0.00000E+00   -0.31582E+00    86
DAV:   1    -0.386720149763E+03   -0.15592E-01   -0.48301E+00  9024   0.205E+00    0.452E-01
SOL: 951  -0.31907E+00    0.00000E+00   -0.31907E+00    86
RMM:   2    -0.386703844182E+03    0.16306E-01   -0.43353E-02  7680   0.343E-01    0.291E-01
SOL: 952  -0.32424E+00    0.00000E+00   -0.32424E+00    86
RMM:   3    -0.386700394634E+03    0.34495E-02   -0.69470E-03  7680   0.149E-01    0.520E-01
SOL: 953  -0.32297E+00    0.00000E+00   -0.32297E+00    83
RMM:   4    -0.386704965295E+03   -0.45707E-02   -0.43559E-03  7680   0.148E-01    0.333E-01
SOL: 954  -0.32185E+00    0.00000E+00   -0.32185E+00    84
RMM:   5    -0.386707058296E+03   -0.20930E-02   -0.37249E-03  7680   0.110E-01    0.350E-01
SOL: 955  -0.32500E+00    0.00000E+00   -0.32500E+00    83
RMM:   6    -0.386705935031E+03    0.11233E-02   -0.52913E-03  7680   0.167E-01    0.587E-02
SOL: 956  -0.32549E+00    0.00000E+00   -0.32549E+00    76
RMM:   7    -0.386706449640E+03   -0.51461E-03   -0.10052E-03  7600   0.790E-02    0.804E-02
SOL: 957  -0.32575E+00    0.00000E+00   -0.32575E+00    78
RMM:   8    -0.386706799275E+03   -0.34964E-03   -0.44850E-04  7504   0.584E-02    0.178E-02
SOL: 958  -0.32654E+00    0.00000E+00   -0.32654E+00    76
RMM:   9    -0.386706950509E+03   -0.15123E-03   -0.20150E-04  6883   0.418E-02    0.360E-02
SOL: 959  -0.32772E+00    0.00000E+00   -0.32772E+00    77
RMM:  10    -0.386707193829E+03   -0.24332E-03   -0.14342E-04  6730   0.378E-02    0.174E-02
SOL: 960  -0.32863E+00    0.00000E+00   -0.32863E+00    75
RMM:  11    -0.386707335680E+03   -0.14185E-03   -0.10010E-04  6724   0.326E-02    0.142E-02
SOL: 961  -0.32946E+00    0.00000E+00   -0.32946E+00    73
RMM:  12    -0.386707333620E+03    0.20600E-05   -0.89402E-05  6724   0.331E-02
SOL: 962  -0.33018E+00    0.00000E+00   -0.33018E+00    73
  60 F= -.38670733E+03 E0= -.38670028E+03  d E =-.141122E-01  mag=     0.8793
 Finite differences progress:
  Degree of freedom:  30/ 30
  Displacement:        1/  2
  Total:              59/ 60
 bond charge predicted
       N       E                     dE             d eps       ncg     rms          rms(c)
SOL: 963  -0.32988E+00    0.00000E+00   -0.32988E+00    87
DAV:   1    -0.386710996701E+03   -0.36610E-02   -0.96950E+00  7680   0.283E+00    0.598E-01
SOL: 964  -0.33551E+00    0.00000E+00   -0.33551E+00    88
RMM:   2    -0.386695311945E+03    0.15685E-01   -0.76707E-02  7680   0.432E-01    0.343E-01
SOL: 965  -0.33666E+00    0.00000E+00   -0.33666E+00    80
RMM:   3    -0.386703478785E+03   -0.81668E-02   -0.52994E-03  7680   0.154E-01    0.519E-01
SOL: 966  -0.33466E+00    0.00000E+00   -0.33466E+00    83
RMM:   4    -0.386704156078E+03   -0.67729E-03   -0.36791E-03  7680   0.128E-01    0.235E-01
SOL: 967  -0.33312E+00    0.00000E+00   -0.33312E+00    84
RMM:   5    -0.386706459904E+03   -0.23038E-02   -0.41441E-03  7680   0.124E-01    0.497E-01
SOL: 968  -0.33642E+00    0.00000E+00   -0.33642E+00    84
RMM:   6    -0.386703866889E+03    0.25930E-02   -0.61819E-03  7680   0.183E-01    0.528E-02
SOL: 969  -0.33649E+00    0.00000E+00   -0.33649E+00    79
RMM:   7    -0.386705208633E+03   -0.13417E-02   -0.28004E-03  7680   0.129E-01    0.102E-01
SOL: 970  -0.33646E+00    0.00000E+00   -0.33646E+00    76
RMM:   8    -0.386705245818E+03   -0.37185E-04   -0.39859E-04  7550   0.532E-02    0.134E-02
SOL: 971  -0.33676E+00    0.00000E+00   -0.33676E+00    73
RMM:   9    -0.386705198758E+03    0.47060E-04   -0.19117E-04  6725   0.401E-02    0.156E-02
SOL: 972  -0.33730E+00    0.00000E+00   -0.33730E+00    74
RMM:  10    -0.386705282465E+03   -0.83707E-04   -0.10212E-04  6723   0.334E-02    0.142E-02
SOL: 973  -0.33755E+00    0.00000E+00   -0.33755E+00    70
RMM:  11    -0.386705328230E+03   -0.45765E-04   -0.70144E-05  6722   0.295E-02    0.130E-02
SOL: 974  -0.33775E+00    0.00000E+00   -0.33775E+00    68
RMM:  12    -0.386705344636E+03   -0.16406E-04   -0.43683E-05  6682   0.234E-02    0.101E-02
SOL: 975  -0.33811E+00    0.00000E+00   -0.33811E+00    70
RMM:  13    -0.386705382752E+03   -0.38116E-04   -0.49217E-05  6701   0.247E-02    0.584E-03
SOL: 976  -0.33849E+00    0.00000E+00   -0.33849E+00    70
RMM:  14    -0.386705373158E+03    0.95943E-05   -0.47968E-05  6712   0.244E-02
SOL: 977  -0.33868E+00    0.00000E+00   -0.33868E+00    67
  61 F= -.38670537E+03 E0= -.38669790E+03  d E =-.149559E-01  mag=     0.8667
 Finite differences progress:
  Degree of freedom:  30/ 30
  Displacement:        2/  2
  Total:              60/ 60
 Finite differences POTIM=  2.000000000000000E-002
Job finished on bc12u23n2 at Thu Nov 26 06:51:06 CST 2020
