 vasp.5.4.4.18Apr17-6-g9f103f2a35 (build May 01 2020 14:57:12) complex          
  
 executed on             LinuxIFC date 2022.01.02  12:43:34
 running on  192 total cores
 distrk:  each k-point on   48 cores,    4 groups
 distr:  one band on NCORES_PER_BAND=  12 cores,    4 groups


--------------------------------------------------------------------------------------------------------


 INCAR:
 POTCAR:    PAW_PBE C 08Apr2002                   
 POTCAR:    PAW_PBE F 08Apr2002                   
 POTCAR:    PAW_PBE O 08Apr2002                   

 ----------------------------------------------------------------------------- 
|                                                                             |
|           W    W    AA    RRRRR   N    N  II  N    N   GGGG   !!!           |
|           W    W   A  A   R    R  NN   N  II  NN   N  G    G  !!!           |
|           W    W  A    A  R    R  N N  N  II  N N  N  G       !!!           |
|           W WW W  AAAAAA  RRRRR   N  N N  II  N  N N  G  GGG   !            |
|           WW  WW  A    A  R   R   N   NN  II  N   NN  G    G                |
|           W    W  A    A  R    R  N    N  II  N    N   GGGG   !!!           |
|                                                                             |
|      You have enabled k-point parallelism (KPAR>1).                         |
|      This developmental code was originally  written by Paul Kent at ORNL,  |
|      and carefully double checked in Vienna.                                |
|      GW as well as linear response parallelism added by Martijn Marsman     |
|      and Georg Kresse.                                                      |
|      Carefully verify results versus KPAR=1.                                |
|      Report problems to Paul Kent and Vienna.                               |
|                                                                             |
 ----------------------------------------------------------------------------- 

 POTCAR:    PAW_PBE C 08Apr2002                   
   VRHFIN =C: s2p2                                                              
   LEXCH  = PE                                                                  
   EATOM  =   147.1560 eV,   10.8157 Ry                                         
                                                                                
   TITEL  = PAW_PBE C 08Apr2002                                                 
   LULTRA =        F    use ultrasoft PP ?                                      
   IUNSCR =        1    unscreen: 0-lin 1-nonlin 2-no                           
   RPACOR =    1.200    partial core radius                                     
   POMASS =   12.011; ZVAL   =    4.000    mass and valenz                      
   RCORE  =    1.500    outmost cutoff radius                                   
   RWIGS  =    1.630; RWIGS  =    0.863    wigner-seitz radius (au A)           
   ENMAX  =  400.000; ENMIN  =  300.000 eV                                      
   ICORE  =        2    local potential                                         
   LCOR   =        T    correct aug charges                                     
   LPAW   =        T    paw PP                                                  
   EAUG   =  644.873                                                            
   DEXC   =    0.000                                                            
   RMAX   =    1.529    core radius for proj-oper                               
   RAUG   =    1.300    factor for augmentation sphere                          
   RDEP   =    1.501    radius for radial grids                                 
   RDEPT  =    1.300    core radius for aug-charge                              
                                                                                
   Atomic configuration                                                         
    4 entries                                                                   
     n  l   j            E        occ.                                          
     1  0  0.50      -273.3789   2.0000                                         
     2  0  0.50       -13.7508   2.0000                                         
     2  1  0.50        -5.2854   2.0000                                         
     3  2  1.50        -5.4423   0.0000                                         
   Description                                                                  
     l       E           TYP  RCUT    TYP  RCUT                                 
     0    -13.7508458     23  1.200                                             
     0     -8.2022199     23  1.200                                             
     1     -5.2854383     23  1.500                                             
     1     34.0145650     23  1.500                                             
     2     -5.4423304      7  1.500                                             
  local pseudopotential read in
  partial core-charges read in
  partial kinetic energy density read in
  atomic valenz-charges read in
  non local Contribution for L=           0  read in
    real space projection operators read in
  non local Contribution for L=           0  read in
    real space projection operators read in
  non local Contribution for L=           1  read in
    real space projection operators read in
  non local Contribution for L=           1  read in
    real space projection operators read in
    PAW grid and wavefunctions read in
 
   number of l-projection  operators is LMAX  =           4
   number of lm-projection operators is LMMAX =           8
 
 POTCAR:    PAW_PBE F 08Apr2002                   
   VRHFIN =F: s2p5                                                              
   LEXCH  = PE                                                                  
   EATOM  =   659.6475 eV,   48.4827 Ry                                         
                                                                                
   TITEL  = PAW_PBE F 08Apr2002                                                 
   LULTRA =        F    use ultrasoft PP ?                                      
   IUNSCR =        1    unscreen: 0-lin 1-nonlin 2-no                           
   RPACOR =    1.200    partial core radius                                     
   POMASS =   18.998; ZVAL   =    7.000    mass and valenz                      
   RCORE  =    1.520    outmost cutoff radius                                   
   RWIGS  =    1.500; RWIGS  =    0.794    wigner-seitz radius (au A)           
   ENMAX  =  400.000; ENMIN  =  300.000 eV                                      
   ICORE  =        2    local potential                                         
   LCOR   =        T    correct aug charges                                     
   LPAW   =        T    paw PP                                                  
   EAUG   =  613.614                                                            
   RMAX   =    1.555    core radius for proj-oper                               
   RAUG   =    1.300    factor for augmentation sphere                          
   RDEP   =    1.539    radius for radial grids                                 
   RDEPT  =    1.299    core radius for aug-charge                              
                                                                                
   Atomic configuration                                                         
    4 entries                                                                   
     n  l   j            E        occ.                                          
     1  0  0.50      -663.3661   2.0000                                         
     2  0  0.50       -29.8995   2.0000                                         
     2  1  0.50       -11.1114   5.0000                                         
     3  2  1.50       -10.8847   0.0000                                         
   Description                                                                  
     l       E           TYP  RCUT    TYP  RCUT                                 
     0    -29.8995018     23  1.200                                             
     0     -9.5240782     23  1.200                                             
     1    -11.1113914     23  1.520                                             
     1      1.3605826     23  1.520                                             
     2    -10.8846608      7  1.500                                             
  local pseudopotential read in
  partial core-charges read in
  partial kinetic energy density read in
  atomic valenz-charges read in
  non local Contribution for L=           0  read in
    real space projection operators read in
  non local Contribution for L=           0  read in
    real space projection operators read in
  non local Contribution for L=           1  read in
    real space projection operators read in
  non local Contribution for L=           1  read in
    real space projection operators read in
    PAW grid and wavefunctions read in
 
   number of l-projection  operators is LMAX  =           4
   number of lm-projection operators is LMMAX =           8
 
 POTCAR:    PAW_PBE O 08Apr2002                   
   VRHFIN =O: s2p4                                                              
   LEXCH  = PE                                                                  
   EATOM  =   432.3788 eV,   31.7789 Ry                                         
                                                                                
   TITEL  = PAW_PBE O 08Apr2002                                                 
   LULTRA =        F    use ultrasoft PP ?                                      
   IUNSCR =        1    unscreen: 0-lin 1-nonlin 2-no                           
   RPACOR =    1.200    partial core radius                                     
   POMASS =   16.000; ZVAL   =    6.000    mass and valenz                      
   RCORE  =    1.520    outmost cutoff radius                                   
   RWIGS  =    1.550; RWIGS  =    0.820    wigner-seitz radius (au A)           
   ENMAX  =  400.000; ENMIN  =  300.000 eV                                      
   ICORE  =        2    local potential                                         
   LCOR   =        T    correct aug charges                                     
   LPAW   =        T    paw PP                                                  
   EAUG   =  605.392                                                            
   DEXC   =    0.000                                                            
   RMAX   =    1.553    core radius for proj-oper                               
   RAUG   =    1.300    factor for augmentation sphere                          
   RDEP   =    1.550    radius for radial grids                                 
   RDEPT  =    1.329    core radius for aug-charge                              
                                                                                
   Atomic configuration                                                         
    4 entries                                                                   
     n  l   j            E        occ.                                          
     1  0  0.50      -514.6923   2.0000                                         
     2  0  0.50       -23.9615   2.0000                                         
     2  1  0.50        -9.0305   4.0000                                         
     3  2  1.50        -9.5241   0.0000                                         
   Description                                                                  
     l       E           TYP  RCUT    TYP  RCUT                                 
     0    -23.9615318     23  1.200                                             
     0     -9.5240782     23  1.200                                             
     1     -9.0304911     23  1.520                                             
     1      8.1634956     23  1.520                                             
     2     -9.5240782      7  1.500                                             
  local pseudopotential read in
  partial core-charges read in
  partial kinetic energy density read in
  kinetic energy density of atom read in
  atomic valenz-charges read in
  non local Contribution for L=           0  read in
    real space projection operators read in
  non local Contribution for L=           0  read in
    real space projection operators read in
  non local Contribution for L=           1  read in
    real space projection operators read in
  non local Contribution for L=           1  read in
    real space projection operators read in
    PAW grid and wavefunctions read in
 
   number of l-projection  operators is LMAX  =           4
   number of lm-projection operators is LMMAX =           8
 
 Optimization of the real space projectors (new method)

 maximal supplied QI-value         = 25.13
 optimisation between [QCUT,QGAM] = [ 11.81, 23.88] = [ 39.08,159.64] Ry 
 Optimized for a Real-space Cutoff    1.18 Angstroem

   l    n(q)    QCUT    max X(q) W(low)/X(q) W(high)/X(q)  e(spline) 
   0      8    11.813   115.676    0.10E-03    0.16E-03    0.35E-06
   0      8    11.813    87.132    0.10E-03    0.16E-03    0.35E-06
   1      8    11.813     4.429    0.16E-03    0.13E-04    0.22E-06
   1      8    11.813     2.733    0.13E-03    0.10E-04    0.18E-06
 Optimization of the real space projectors (new method)

 maximal supplied QI-value         = 24.76
 optimisation between [QCUT,QGAM] = [ 11.88, 24.01] = [ 39.54,161.47] Ry 
 Optimized for a Real-space Cutoff    1.18 Angstroem

   l    n(q)    QCUT    max X(q) W(low)/X(q) W(high)/X(q)  e(spline) 
   0      8    11.883    14.049    0.56E-04    0.86E-04    0.22E-06
   0      8    11.883     8.945    0.81E-04    0.11E-03    0.30E-06
   1      8    11.883     7.086    0.16E-03    0.15E-04    0.31E-06
   1      8    11.883     6.747    0.15E-03    0.14E-04    0.28E-06
 Optimization of the real space projectors (new method)

 maximal supplied QI-value         = 24.76
 optimisation between [QCUT,QGAM] = [ 11.88, 24.01] = [ 39.54,161.47] Ry 
 Optimized for a Real-space Cutoff    1.18 Angstroem

   l    n(q)    QCUT    max X(q) W(low)/X(q) W(high)/X(q)  e(spline) 
   0      8    11.883    20.381    0.86E-04    0.11E-03    0.31E-06
   0      8    11.883    15.268    0.94E-04    0.12E-03    0.33E-06
   1      8    11.883     5.964    0.19E-03    0.18E-04    0.33E-06
   1      8    11.883     5.382    0.17E-03    0.20E-04    0.29E-06
  PAW_PBE C 08Apr2002                   :
 energy of atom  1       EATOM= -147.1560
 kinetic energy error for atom=    0.0066 (will be added to EATOM!!)
  PAW_PBE F 08Apr2002                   :
 energy of atom  2       EATOM= -659.6475
 kinetic energy error for atom=    0.0296 (will be added to EATOM!!)
  PAW_PBE O 08Apr2002                   :
 energy of atom  3       EATOM= -432.3788
 kinetic energy error for atom=    0.0194 (will be added to EATOM!!)
 
 
 POSCAR: C F O                                   
  positions in direct lattice
  velocities in cartesian coordinates

 METAGGA = SCAN     LMAXTAU =  6    LMIXTAU =  F

 exchange correlation table for  LEXCH =        8
   RHO(1)=    0.500       N(1)  =     2000
   RHO(2)=  100.500       N(2)  =     4000
 


--------------------------------------------------------------------------------------------------------


 ion  position               nearest neighbor table
   1  0.511  0.477  0.552-   5 1.34   6 1.34   4 1.34   2 1.54
   2  0.490  0.477  0.477-   8 1.35   7 1.35   3 1.53   1 1.54
   3  0.513  0.539  0.439-   9 1.25  10 1.25   2 1.53
   4  0.577  0.480  0.556-   1 1.34
   5  0.489  0.421  0.581-   1 1.34
   6  0.484  0.529  0.584-   1 1.34
   7  0.516  0.422  0.448-   2 1.35
   8  0.422  0.474  0.475-   2 1.35
   9  0.569  0.543  0.413-   3 1.25
  10  0.477  0.589  0.432-   3 1.25
 
  LATTYP: Found a simple cubic cell.
 ALAT       =    20.0000000000
  
  Lattice vectors:
  
 A1 = (  20.0000000000,   0.0000000000,   0.0000000000)
 A2 = (   0.0000000000,  20.0000000000,   0.0000000000)
 A3 = (   0.0000000000,   0.0000000000,  20.0000000000)


Analysis of symmetry for initial positions (statically):
=====================================================================
 Subroutine PRICEL returns:
 Original cell was already a primitive cell.
 

 Routine SETGRP: Setting up the symmetry group for a 
 simple cubic supercell.


 Subroutine GETGRP returns: Found  1 space group operations
 (whereof  1 operations were pure point group operations)
 out of a pool of 48 trial point group operations.


The static configuration has the point symmetry C_1 .


Analysis of symmetry for dynamics (positions and initial velocities):
=====================================================================
 Subroutine PRICEL returns:
 Original cell was already a primitive cell.
 

 Routine SETGRP: Setting up the symmetry group for a 
 simple cubic supercell.


 Subroutine GETGRP returns: Found  1 space group operations
 (whereof  1 operations were pure point group operations)
 out of a pool of 48 trial point group operations.


The dynamic configuration has the point symmetry C_1 .


Analysis of constrained symmetry for selective dynamics:
=====================================================================
 Subroutine PRICEL returns:
 Original cell was already a primitive cell.
 

 Routine SETGRP: Setting up the symmetry group for a 
 simple cubic supercell.


 Subroutine GETGRP returns: Found  1 space group operations
 (whereof  1 operations were pure point group operations)
 out of a pool of 48 trial point group operations.


The constrained configuration has the point symmetry C_1 .


Analysis of structural, dynamic, and magnetic symmetry:
=====================================================================
 Subroutine PRICEL returns:
 Original cell was already a primitive cell.
 

 Routine SETGRP: Setting up the symmetry group for a 
 simple cubic supercell.


 Subroutine GETGRP returns: Found  1 space group operations
 (whereof  1 operations were pure point group operations)
 out of a pool of 48 trial point group operations.


The magnetic configuration has the point symmetry C_1 .


 Subroutine INISYM returns: Found  1 space group operations
 (whereof  1 operations are pure point group operations),
 and found     1 'primitive' translations

 
 
 KPOINTS: K-Point Grid                            

Automatic generation of k-mesh.
Space group operators:
 irot       det(A)        alpha          n_x          n_y          n_z        tau_x        tau_y        tau_z
    1     1.000000     0.000000     1.000000     0.000000     0.000000     0.000000     0.000000     0.000000
 
 Subroutine IBZKPT returns following result:
 ===========================================
 
 Found      1 irreducible k-points:
 
 Following reciprocal coordinates:
            Coordinates               Weight
  0.000000  0.000000  0.000000      1.000000
 
 Following cartesian coordinates:
            Coordinates               Weight
  0.000000  0.000000  0.000000      1.000000
 


--------------------------------------------------------------------------------------------------------




 Dimension of arrays:
   k-points           NKPTS =      1   k-points in BZ     NKDIM =      1   number of bands    NBANDS=     44
   number of dos      NEDOS =   1200   number of ions     NIONS =     10
   non local maximal  LDIM  =      4   non local SUM 2l+1 LMDIM =      8
   total plane-waves  NPLWV = ******
   max r-space proj   IRMAX =   3549   max aug-charges    IRDMAX=   6841
   dimension x,y,z NGX =   160 NGY =  160 NGZ =  160
   dimension x,y,z NGXF=   320 NGYF=  320 NGZF=  320
   support grid    NGXF=   320 NGYF=  320 NGZF=  320
   ions per type =               3   5   2
   NGX,Y,Z   is equivalent  to a cutoff of  13.30, 13.30, 13.30 a.u.
   NGXF,Y,Z  is equivalent  to a cutoff of  26.60, 26.60, 26.60 a.u.

 SYSTEM =  SiC                                     
 POSCAR =  C F O                                   

 Startparameter for this run:
   NWRITE =      2    write-flag & timer
   PREC   = accura    normal or accurate (medium, high low for compatibility)
   ISTART =      1    job   : 0-new  1-cont  2-samecut
   ICHARG =      0    charge: 1-file 2-atom 10-const
   ISPIN  =      2    spin polarized calculation?
   LNONCOLLINEAR =      F non collinear calculations
   LSORBIT =      F    spin-orbit coupling
   INIWAV =      1    electr: 0-lowe 1-rand  2-diag
   LASPH  =      T    aspherical Exc in radial PAW
   METAGGA=      F    non-selfconsistent MetaGGA calc.

 Electronic Relaxation 1
   ENCUT  =  550.0 eV  40.42 Ry    6.36 a.u.  38.24 38.24 38.24*2*pi/ulx,y,z
   ENINI  =  550.0     initial cutoff
   ENAUG  =  644.9 eV  augmentation charge cutoff
   NELM   =    100;   NELMIN=  2; NELMDL=  0     # of ELM steps 
   EDIFF  = 0.1E-04   stopping-criterion for ELM
   LREAL  =      T    real-space projection
   NLSPLINE    = F    spline interpolate recip. space projectors
   LCOMPAT=      F    compatible to vasp.4.4
   GGA_COMPAT  = T    GGA compatible to vasp.4.4-vasp.4.6
   LMAXPAW     = -100 max onsite density
   LMAXMIX     =    2 max onsite mixed and CHGCAR
   VOSKOWN=      0    Vosko Wilk Nusair interpolation
   ROPT   =   -0.00025  -0.00025  -0.00025
 Ionic relaxation
   EDIFFG = -.2E-01   stopping-criterion for IOM
   NSW    =      0    number of steps for IOM
   NBLOCK =      1;   KBLOCK =      1    inner block; outer block 
   IBRION =     -1    ionic relax: 0-MD 1-quasi-New 2-CG
   NFREE  =      1    steps in history (QN), initial steepest desc. (CG)
   ISIF   =      2    stress and relaxation
   IWAVPR =     10    prediction:  0-non 1-charg 2-wave 3-comb
   ISYM   =      2    0-nonsym 1-usesym 2-fastsym
   LCORR  =      T    Harris-Foulkes like correction to forces

   POTIM  = 0.5000    time-step for ionic-motion
   TEIN   =    0.0    initial temperature
   TEBEG  =    0.0;   TEEND  =   0.0 temperature during run
   SMASS  =  -3.00    Nose mass-parameter (am)
   estimated Nose-frequenzy (Omega)   =  0.10E-29 period in steps =****** mass=  -0.914E-26a.u.
   SCALEE = 1.0000    scale energy and forces
   NPACO  =    256;   APACO  = 16.0  distance and # of slots for P.C.
   PSTRESS=    0.0 pullay stress

  Mass of Ions in am
   POMASS =  12.01 19.00 16.00
  Ionic Valenz
   ZVAL   =   4.00  7.00  6.00
  Atomic Wigner-Seitz radii
   RWIGS  =  -1.00 -1.00 -1.00
  virtual crystal weights 
   VCA    =   1.00  1.00  1.00
   NELECT =      60.0000    total number of electrons
   NUPDOWN=      -1.0000    fix difference up-down

 DOS related values:
   EMIN   =  10.00;   EMAX   =-10.00  energy-range for DOS
   EFERMI =   0.00
   ISMEAR =     0;   SIGMA  =   0.01  broadening in eV -4-tet -1-fermi 0-gaus

 Electronic relaxation 2 (details)
   IALGO  =     68    algorithm
   LDIAG  =      T    sub-space diagonalisation (order eigenvalues)
   LSUBROT=      F    optimize rotation matrix (better conditioning)
   TURBO    =      0    0=normal 1=particle mesh
   IRESTART =      0    0=no restart 2=restart with 2 vectors
   NREBOOT  =      0    no. of reboots
   NMIN     =      0    reboot dimension
   EREF     =   0.00    reference energy to select bands
   IMIX   =      4    mixing-type and parameters
     AMIX     =   0.40;   BMIX     =  1.00
     AMIX_MAG =   1.60;   BMIX_MAG =  1.00
     AMIN     =   0.10
     WC   =   100.;   INIMIX=   1;  MIXPRE=   1;  MAXMIX= -45

 Intra band minimization:
   WEIMIN = 0.0000     energy-eigenvalue tresh-hold
   EBREAK =  0.57E-07  absolut break condition
   DEPER  =   0.30     relativ break condition  

   TIME   =   0.40     timestep for ELM

  volume/ion in A,a.u.               =     800.00      5398.67
  Fermi-wavevector in a.u.,A,eV,Ry     =   0.320451  0.605565  1.397168  0.102689
  Thomas-Fermi vector in A             =   1.207077
 
 Write flags
   LWAVE        =      T    write WAVECAR
   LDOWNSAMPLE  =      F    k-point downsampling of WAVECAR
   LCHARG       =      F    write CHGCAR
   LVTOT        =      F    write LOCPOT, total local potential
   LVHAR        =      T    write LOCPOT, Hartree potential only
   LELF         =      F    write electronic localiz. function (ELF)
   LORBIT       =     11    0 simple, 1 ext, 2 COOP (PROOUT), +10 PAW based schemes


 Dipole corrections
   LMONO  =      F    monopole corrections only (constant potential shift)
   LDIPOL =      F    correct potential (dipole corrections)
   IDIPOL =      0    1-x, 2-y, 3-z, 4-all directions 
   EPSILON=  1.0000000 bulk dielectric constant

 Exchange correlation treatment:
   GGA     =    --    GGA type
   LEXCH   =     8    internal setting for exchange type
   VOSKOWN=      0    Vosko Wilk Nusair interpolation
   LHFCALC =     F    Hartree Fock is set to
   LHFONE  =     F    Hartree Fock one center treatment
   AEXX    =    0.0000 exact exchange contribution

 Linear response parameters
   LEPSILON=     F    determine dielectric tensor
   LRPA    =     F    only Hartree local field effects (RPA)
   LNABLA  =     F    use nabla operator in PAW spheres
   LVEL    =     F    velocity operator in full k-point grid
   LINTERFAST=   F  fast interpolation
   KINTER  =     0    interpolate to denser k-point grid
   CSHIFT  =0.1000    complex shift for real part using Kramers Kronig
   OMEGAMAX=  -1.0    maximum frequency
   DEG_THRESHOLD= 0.2000000E-02 threshold for treating states as degnerate
   RTIME   =   -0.100 relaxation time in fs
  (WPLASMAI=    0.000 imaginary part of plasma frequency in eV, 0.658/RTIME)
   DFIELD  = 0.0000000 0.0000000 0.0000000 field for delta impulse in time
 
 Orbital magnetization related:
   ORBITALMAG=     F  switch on orbital magnetization
   LCHIMAG   =     F  perturbation theory with respect to B field
   DQ        =  0.001000  dq finite difference perturbation B field
   LLRAUG    =     F  two centre corrections for induced B field

 Solvation model:
   LSOL    =     T         switch on solvation model
   EB_K    = 78.400000     relative permittivity of the bulk solvent
   SIGMA_K =  0.600000     width of the dielectric cavity
   NC_K    =  0.002500     cutoff charge density
   TAU     =  0.000000     cavity surface tension
   LAMBDA_D_K    =  3.040000     Debye length in Angstroms
   LRHOB     =     F     write boundcharge  density
   LRHOION     =     F     write ioniccharge density



--------------------------------------------------------------------------------------------------------


 Static calculation
 charge density and potential will be updated during run
 spin polarized calculation
 RMM-DIIS sequential band-by-band and
  variant of blocked Davidson during initial phase
 perform sub-space diagonalisation
    before iterative eigenvector-optimisation
 modified Broyden-mixing scheme, WC =      100.0
 initial mixing is a Kerker type mixing with AMIX =  0.4000 and BMIX =      1.0000
 Hartree-type preconditioning will be used
 using additional bands           14
 real space projection scheme for non local part
 use partial core corrections
 calculate Harris-corrections to forces 
   (improved forces if not selfconsistent)
 use gradient corrections 
 use of overlap-Matrix (Vanderbilt PP)
 Gauss-broadening in eV      SIGMA  =   0.01


--------------------------------------------------------------------------------------------------------


  energy-cutoff  :      550.00
  volume of cell :     8000.00
      direct lattice vectors                 reciprocal lattice vectors
    20.000000000  0.000000000  0.000000000     0.050000000  0.000000000  0.000000000
     0.000000000 20.000000000  0.000000000     0.000000000  0.050000000  0.000000000
     0.000000000  0.000000000 20.000000000     0.000000000  0.000000000  0.050000000

  length of vectors
    20.000000000 20.000000000 20.000000000     0.050000000  0.050000000  0.050000000


 
 old parameters found on file WAVECAR:
  energy-cutoff  :      550.00
  volume of cell :     8000.00
      direct lattice vectors                 reciprocal lattice vectors
    20.000000000  0.000000000  0.000000000     0.050000000  0.000000000  0.000000000
     0.000000000 20.000000000  0.000000000     0.000000000  0.050000000  0.000000000
     0.000000000  0.000000000 20.000000000     0.000000000  0.000000000  0.050000000

  length of vectors

 
 k-points in units of 2pi/SCALE and weight: K-Point Grid                            
   0.00000000  0.00000000  0.00000000       1.000
 
 k-points in reciprocal lattice and weights: K-Point Grid                            
   0.00000000  0.00000000  0.00000000       1.000
 
 position of ions in fractional coordinates (direct lattice) 
   0.51064185  0.47691657  0.55169810
   0.48951969  0.47720825  0.47740866
   0.51285250  0.53884654  0.43891896
   0.57736513  0.48008172  0.55643161
   0.48942630  0.42065873  0.58090926
   0.48387874  0.52938648  0.58350420
   0.51578404  0.42209740  0.44831569
   0.42204452  0.47435622  0.47476133
   0.56939829  0.54310881  0.41274368
   0.47678893  0.58944360  0.43163759
 
 position of ions in cartesian coordinates  (Angst):
  10.21283698  9.53833135 11.03396198
   9.79039387  9.54416495  9.54817313
  10.25705001 10.77693083  8.77837930
  11.54730258  9.60163439 11.12863223
   9.78852604  8.41317459 11.61818513
   9.67757478 10.58772951 11.67008404
  10.31568088  8.44194802  8.96631382
   8.44089043  9.48712444  9.49522658
  11.38796579 10.86217614  8.25487355
   9.53577865 11.78887208  8.63275189
 


--------------------------------------------------------------------------------------------------------


 k-point  1 :   0.0000 0.0000 0.0000  plane waves:  234345

 maximum and minimum number of plane-waves per node :     19543    19519

 maximum number of plane-waves:    234345
 maximum index in each direction: 
   IXMAX=   38   IYMAX=   38   IZMAX=   38
   IXMIN=  -38   IYMIN=  -38   IZMIN=  -38


 real space projection operators:
  total allocation   :       2120.56 KBytes
  max/ min on nodes  :        185.31        166.75


 parallel 3D FFT for wavefunctions:
    minimum data exchange during FFTs selected (reduces bandwidth)
 parallel 3D FFT for charge:
    minimum data exchange during FFTs selected (reduces bandwidth)


 total amount of memory used by VASP MPI-rank0   198870. kBytes
=======================================================================

   base      :      30000. kBytes
   nonlr-proj:        825. kBytes
   fftplans  :      34535. kBytes
   grid      :     126622. kBytes
   one-center:          6. kBytes
   wavefun   :       6882. kBytes
 
     INWAV:  cpu time    1.6827: real time    1.7258
 Broyden mixing: mesh for mixing (old mesh)
   NGX = 77   NGY = 77   NGZ = 77
  (NGX  =320   NGY  =320   NGZ  =320)
  gives a total of 456533 points

 charge density for first step will be calculated from the start-wavefunctions


--------------------------------------------------------------------------------------------------------


 Maximum index for non-local projection operator          321
 Maximum index for augmentation-charges          248 (set IRDMAX)


--------------------------------------------------------------------------------------------------------


 initial charge from wavefunction
 First call to EWALD:  gamma=   0.089
 Maximum number of real-space cells 3x 3x 3
 Maximum number of reciprocal cells 3x 3x 3

    FEWALD:  cpu time    0.0087: real time    0.0043


--------------------------------------- Iteration      1(   1)  ---------------------------------------


    POTLOK:  cpu time   50.5761: real time   50.4972
    SETDIJ:  cpu time    0.8067: real time    0.8067
     EDDAV:  cpu time   21.8025: real time   12.4873
       DOS:  cpu time    0.0043: real time    0.0021
    CHARGE:  cpu time    3.8463: real time    3.0799
    MIXING:  cpu time    0.1535: real time    0.0771
    --------------------------------------------
      LOOP:  cpu time   77.1897: real time   66.9505

 eigenvalue-minimisations  :   160
 total energy-change (2. order) :-0.7961062E+02  (-0.2463462E-06)
 number of electron      59.9999998 magnetization       0.8562717
 augmentation part        8.0476898 magnetization       0.9032877

 Broyden mixing:
  rms(total) = 0.77971E+00    rms(broyden)= 0.77886E+00
  rms(prec ) = 0.85334E+00
  weight for this iteration     100.00

 Free energy of the ion-electron system (eV)
  ---------------------------------------------------
  alpha Z        PSCENC =         1.72117159
  Ewald energy   TEWEN  =      5735.54753436
  -Hartree energ DENC   =     -9637.66611272
  -exchange      EXHF   =         0.00000000
  -V(xc)+E(xc)   XCENC  =       341.53007790
  PAW double counting   =      5388.79128316    -5428.81259645
  entropy T*S    EENTRO =        -0.00000000
  eigenvalues    EBANDS =     -1069.60821977
  atomic energy  EATOM  =      4604.25636981
  Solvation  Ediel_sol  =       -15.37013263
  ---------------------------------------------------
  free energy    TOTEN  =       -79.61062475 eV

  energy without entropy =      -79.61062475  energy(sigma->0) =      -79.61062475


--------------------------------------------------------------------------------------------------------




--------------------------------------- Iteration      1(   2)  ---------------------------------------


    POTLOK:  cpu time   48.4318: real time   48.4255
    SETDIJ:  cpu time    0.6068: real time    0.6068
    EDDIAG:  cpu time    3.8116: real time    3.1647
  RMM-DIIS:  cpu time   41.7463: real time   23.6654
    ORTHCH:  cpu time    0.0565: real time    0.0287
       DOS:  cpu time    0.0011: real time    0.0005
    CHARGE:  cpu time    3.7922: real time    3.0203
    MIXING:  cpu time    0.1447: real time    0.0724
    --------------------------------------------
      LOOP:  cpu time   98.5910: real time   78.9844

 eigenvalue-minimisations  :   243
 total energy-change (2. order) : 0.9819988E+00  (-0.4809138E+00)
 number of electron      59.9999998 magnetization       0.7351706
 augmentation part        7.9707933 magnetization       0.7241168

 Broyden mixing:
  rms(total) = 0.29415E+00    rms(broyden)= 0.29384E+00
  rms(prec ) = 0.37388E+00
  weight for this iteration     100.00

 eigenvalues of (default mixing * dielectric matrix)
  average eigenvalue GAMMA=   0.8757
  0.8757

 Free energy of the ion-electron system (eV)
  ---------------------------------------------------
  alpha Z        PSCENC =         1.72117159
  Ewald energy   TEWEN  =      5735.54753436
  -Hartree energ DENC   =     -9682.30523224
  -exchange      EXHF   =         0.00000000
  -V(xc)+E(xc)   XCENC  =       344.11599780
  PAW double counting   =      5446.48002185    -5486.57955893
  entropy T*S    EENTRO =        -0.00000000
  eigenvalues    EBANDS =     -1039.39478016
  atomic energy  EATOM  =      4604.25636981
  Solvation  Ediel_sol  =        -2.47015008
  ---------------------------------------------------
  free energy    TOTEN  =       -78.62862599 eV

  energy without entropy =      -78.62862599  energy(sigma->0) =      -78.62862599


--------------------------------------------------------------------------------------------------------




--------------------------------------- Iteration      1(   3)  ---------------------------------------


    POTLOK:  cpu time   47.5271: real time   47.5170
    SETDIJ:  cpu time    0.7855: real time    0.7854
    EDDIAG:  cpu time    3.8072: real time    3.1603
  RMM-DIIS:  cpu time   45.2344: real time   25.3537
    ORTHCH:  cpu time    0.0568: real time    0.0289
       DOS:  cpu time    0.0012: real time    0.0006
    CHARGE:  cpu time    3.7929: real time    3.0219
    MIXING:  cpu time    0.1469: real time    0.0735
    --------------------------------------------
      LOOP:  cpu time  101.3520: real time   79.9413

 eigenvalue-minimisations  :   264
 total energy-change (2. order) :-0.4172822E-01  (-0.8739962E-01)
 number of electron      59.9999998 magnetization       0.5890457
 augmentation part        7.9498259 magnetization       0.5765078

 Broyden mixing:
  rms(total) = 0.19387E+00    rms(broyden)= 0.19384E+00
  rms(prec ) = 0.26789E+00
  weight for this iteration     100.00

 eigenvalues of (default mixing * dielectric matrix)
  average eigenvalue GAMMA=   1.0032
  1.2255  0.7809

 Free energy of the ion-electron system (eV)
  ---------------------------------------------------
  alpha Z        PSCENC =         1.72117159
  Ewald energy   TEWEN  =      5735.54753436
  -Hartree energ DENC   =     -9710.55986093
  -exchange      EXHF   =         0.00000000
  -V(xc)+E(xc)   XCENC  =       344.30118676
  PAW double counting   =      5475.16504446    -5515.32816857
  entropy T*S    EENTRO =        -0.00000000
  eigenvalues    EBANDS =     -1025.43579223
  atomic energy  EATOM  =      4604.25636981
  Solvation  Ediel_sol  =        11.66216055
  ---------------------------------------------------
  free energy    TOTEN  =       -78.67035420 eV

  energy without entropy =      -78.67035420  energy(sigma->0) =      -78.67035420


--------------------------------------------------------------------------------------------------------




--------------------------------------- Iteration      1(   4)  ---------------------------------------


    POTLOK:  cpu time   47.5776: real time   47.5668
    SETDIJ:  cpu time    0.7258: real time    0.7258
    EDDIAG:  cpu time    3.8136: real time    3.1658
  RMM-DIIS:  cpu time   46.4993: real time   26.2485
    ORTHCH:  cpu time    0.0565: real time    0.0286
       DOS:  cpu time    0.0011: real time    0.0005
    CHARGE:  cpu time    3.7971: real time    3.0240
    MIXING:  cpu time    0.1688: real time    0.0844
    --------------------------------------------
      LOOP:  cpu time  102.6400: real time   80.8446

 eigenvalue-minimisations  :   278
 total energy-change (2. order) :-0.1846106E+00  (-0.4640476E-01)
 number of electron      59.9999998 magnetization       0.3893572
 augmentation part        7.9474280 magnetization       0.3761758

 Broyden mixing:
  rms(total) = 0.10996E+00    rms(broyden)= 0.10995E+00
  rms(prec ) = 0.18213E+00
  weight for this iteration     100.00

 eigenvalues of (default mixing * dielectric matrix)
  average eigenvalue GAMMA=   1.3291
  2.1129  1.1442  0.7300

 Free energy of the ion-electron system (eV)
  ---------------------------------------------------
  alpha Z        PSCENC =         1.72117159
  Ewald energy   TEWEN  =      5735.54753436
  -Hartree energ DENC   =     -9740.30647539
  -exchange      EXHF   =         0.00000000
  -V(xc)+E(xc)   XCENC  =       344.43839907
  PAW double counting   =      5495.98381761    -5536.18363325
  entropy T*S    EENTRO =        -0.00000000
  eigenvalues    EBANDS =     -1014.66769234
  atomic energy  EATOM  =      4604.25636981
  Solvation  Ediel_sol  =        30.35554372
  ---------------------------------------------------
  free energy    TOTEN  =       -78.85496481 eV

  energy without entropy =      -78.85496481  energy(sigma->0) =      -78.85496481


--------------------------------------------------------------------------------------------------------




--------------------------------------- Iteration      1(   5)  ---------------------------------------


    POTLOK:  cpu time   48.0222: real time   48.0062
    SETDIJ:  cpu time    0.7355: real time    0.7355
    EDDIAG:  cpu time    3.8127: real time    3.1659
  RMM-DIIS:  cpu time   44.2418: real time   24.6162
    ORTHCH:  cpu time    0.0563: real time    0.0286
       DOS:  cpu time    0.0011: real time    0.0005
    CHARGE:  cpu time    3.7938: real time    3.0228
    MIXING:  cpu time    0.1544: real time    0.0772
    --------------------------------------------
      LOOP:  cpu time  100.8177: real time   79.6528

 eigenvalue-minimisations  :   261
 total energy-change (2. order) : 0.1315535E+00  (-0.3679746E-01)
 number of electron      59.9999998 magnetization       0.2760573
 augmentation part        7.9448396 magnetization       0.2683568

 Broyden mixing:
  rms(total) = 0.53336E-01    rms(broyden)= 0.53328E-01
  rms(prec ) = 0.11435E+00
  weight for this iteration     100.00

 eigenvalues of (default mixing * dielectric matrix)
  average eigenvalue GAMMA=   1.2893
  2.3277  1.3404  0.7994  0.6897

 Free energy of the ion-electron system (eV)
  ---------------------------------------------------
  alpha Z        PSCENC =         1.72117159
  Ewald energy   TEWEN  =      5735.54753436
  -Hartree energ DENC   =     -9778.85834458
  -exchange      EXHF   =         0.00000000
  -V(xc)+E(xc)   XCENC  =       345.14677386
  PAW double counting   =      5509.59770913    -5549.81737570
  entropy T*S    EENTRO =        -0.00000000
  eigenvalues    EBANDS =     -1003.94038506
  atomic energy  EATOM  =      4604.25636981
  Solvation  Ediel_sol  =        57.62313525
  ---------------------------------------------------
  free energy    TOTEN  =       -78.72341134 eV

  energy without entropy =      -78.72341134  energy(sigma->0) =      -78.72341134


--------------------------------------------------------------------------------------------------------




--------------------------------------- Iteration      1(   6)  ---------------------------------------


    POTLOK:  cpu time   47.1429: real time   47.1179
    SETDIJ:  cpu time    0.7970: real time    0.7970
    EDDIAG:  cpu time    3.8128: real time    3.1631
  RMM-DIIS:  cpu time   43.3765: real time   24.0124
    ORTHCH:  cpu time    0.0569: real time    0.0289
       DOS:  cpu time    0.0010: real time    0.0005
    CHARGE:  cpu time    3.8070: real time    3.0356
    MIXING:  cpu time    0.1586: real time    0.0793
    --------------------------------------------
      LOOP:  cpu time   99.1528: real time   78.2347

 eigenvalue-minimisations  :   255
 total energy-change (2. order) : 0.2136128E-01  (-0.2381840E-01)
 number of electron      59.9999998 magnetization       0.1291846
 augmentation part        7.9400673 magnetization       0.1250835

 Broyden mixing:
  rms(total) = 0.42927E-01    rms(broyden)= 0.42923E-01
  rms(prec ) = 0.89106E-01
  weight for this iteration     100.00

 eigenvalues of (default mixing * dielectric matrix)
  average eigenvalue GAMMA=   1.3502
  2.2028  2.2028  0.9838  0.7211  0.6407

 Free energy of the ion-electron system (eV)
  ---------------------------------------------------
  alpha Z        PSCENC =         1.72117159
  Ewald energy   TEWEN  =      5735.54753436
  -Hartree energ DENC   =     -9799.88826059
  -exchange      EXHF   =         0.00000000
  -V(xc)+E(xc)   XCENC  =       345.39042915
  PAW double counting   =      5504.40750141    -5544.61791745
  entropy T*S    EENTRO =        -0.00000000
  eigenvalues    EBANDS =     -1000.29628454
  atomic energy  EATOM  =      4604.25636981
  Solvation  Ediel_sol  =        74.77740619
  ---------------------------------------------------
  free energy    TOTEN  =       -78.70205007 eV

  energy without entropy =      -78.70205007  energy(sigma->0) =      -78.70205007


--------------------------------------------------------------------------------------------------------




--------------------------------------- Iteration      1(   7)  ---------------------------------------


    POTLOK:  cpu time   47.4903: real time   47.4708
    SETDIJ:  cpu time    0.7640: real time    0.7639
    EDDIAG:  cpu time    3.8063: real time    3.1597
  RMM-DIIS:  cpu time   50.8778: real time   28.1982
    ORTHCH:  cpu time    0.0571: real time    0.0285
       DOS:  cpu time    0.0012: real time    0.0006
    CHARGE:  cpu time    3.7994: real time    3.0275
    MIXING:  cpu time    0.1579: real time    0.0790
    --------------------------------------------
      LOOP:  cpu time  106.9540: real time   82.7283

 eigenvalue-minimisations  :   316
 total energy-change (2. order) :-0.3220609E-01  (-0.2170802E-01)
 number of electron      59.9999998 magnetization       0.0376245
 augmentation part        7.9358385 magnetization       0.0365417

 Broyden mixing:
  rms(total) = 0.28998E-01    rms(broyden)= 0.28995E-01
  rms(prec ) = 0.57335E-01
  weight for this iteration     100.00

 eigenvalues of (default mixing * dielectric matrix)
  average eigenvalue GAMMA=   1.4119
  2.9260  2.3500  1.0462  0.7660  0.7660  0.6173

 Free energy of the ion-electron system (eV)
  ---------------------------------------------------
  alpha Z        PSCENC =         1.72117159
  Ewald energy   TEWEN  =      5735.54753436
  -Hartree energ DENC   =     -9826.99635426
  -exchange      EXHF   =         0.00000000
  -V(xc)+E(xc)   XCENC  =       345.58066253
  PAW double counting   =      5491.39924713    -5531.58445288
  entropy T*S    EENTRO =        -0.00000000
  eigenvalues    EBANDS =      -996.64757142
  atomic energy  EATOM  =      4604.25636981
  Solvation  Ediel_sol  =        97.98913697
  ---------------------------------------------------
  free energy    TOTEN  =       -78.73425615 eV

  energy without entropy =      -78.73425615  energy(sigma->0) =      -78.73425615


--------------------------------------------------------------------------------------------------------




--------------------------------------- Iteration      1(   8)  ---------------------------------------


    POTLOK:  cpu time   46.6283: real time   46.6230
    SETDIJ:  cpu time    0.7249: real time    0.7249
    EDDIAG:  cpu time    3.8115: real time    3.1639
  RMM-DIIS:  cpu time   50.6378: real time   28.5277
    ORTHCH:  cpu time    0.0567: real time    0.0287
       DOS:  cpu time    0.0012: real time    0.0006
    CHARGE:  cpu time    3.8000: real time    3.0310
    MIXING:  cpu time    0.1694: real time    0.0878
    --------------------------------------------
      LOOP:  cpu time  105.8298: real time   82.1875

 eigenvalue-minimisations  :   311
 total energy-change (2. order) :-0.2928153E-01  (-0.1644223E-01)
 number of electron      59.9999998 magnetization      -0.0285150
 augmentation part        7.9343815 magnetization      -0.0291597

 Broyden mixing:
  rms(total) = 0.19253E-01    rms(broyden)= 0.19250E-01
  rms(prec ) = 0.36309E-01
  weight for this iteration     100.00

 eigenvalues of (default mixing * dielectric matrix)
  average eigenvalue GAMMA=   1.7232
  4.5980  2.6175  1.6001  1.0746  0.8231  0.7296  0.6192

 Free energy of the ion-electron system (eV)
  ---------------------------------------------------
  alpha Z        PSCENC =         1.72117159
  Ewald energy   TEWEN  =      5735.54753436
  -Hartree energ DENC   =     -9844.76681594
  -exchange      EXHF   =         0.00000000
  -V(xc)+E(xc)   XCENC  =       345.62568808
  PAW double counting   =      5480.71742666    -5520.88832217
  entropy T*S    EENTRO =        -0.00000000
  eigenvalues    EBANDS =      -994.83162339
  atomic energy  EATOM  =      4604.25636981
  Solvation  Ediel_sol  =       113.85503330
  ---------------------------------------------------
  free energy    TOTEN  =       -78.76353768 eV

  energy without entropy =      -78.76353768  energy(sigma->0) =      -78.76353768


--------------------------------------------------------------------------------------------------------




--------------------------------------- Iteration      1(   9)  ---------------------------------------


    POTLOK:  cpu time   46.1423: real time   46.1296
    SETDIJ:  cpu time    0.7105: real time    0.7105
    EDDIAG:  cpu time    3.8230: real time    3.1768
  RMM-DIIS:  cpu time   40.2569: real time   22.3843
    ORTHCH:  cpu time    0.0571: real time    0.0290
       DOS:  cpu time    0.0012: real time    0.0006
    CHARGE:  cpu time    3.8236: real time    3.0525
    MIXING:  cpu time    0.1614: real time    0.0807
    --------------------------------------------
      LOOP:  cpu time   94.9758: real time   75.5640

 eigenvalue-minimisations  :   230
 total energy-change (2. order) :-0.3361366E-01  (-0.1104844E-01)
 number of electron      59.9999998 magnetization      -0.0320200
 augmentation part        7.9327697 magnetization      -0.0325999

 Broyden mixing:
  rms(total) = 0.14250E-01    rms(broyden)= 0.14248E-01
  rms(prec ) = 0.21378E-01
  weight for this iteration     100.00

 eigenvalues of (default mixing * dielectric matrix)
  average eigenvalue GAMMA=   1.6810
  5.1231  2.6713  1.6838  1.0563  0.7889  0.7889  0.7147  0.6211

 Free energy of the ion-electron system (eV)
  ---------------------------------------------------
  alpha Z        PSCENC =         1.72117159
  Ewald energy   TEWEN  =      5735.54753436
  -Hartree energ DENC   =     -9859.27443700
  -exchange      EXHF   =         0.00000000
  -V(xc)+E(xc)   XCENC  =       345.61035970
  PAW double counting   =      5472.01809918    -5512.17966781
  entropy T*S    EENTRO =        -0.00000000
  eigenvalues    EBANDS =      -994.07329897
  atomic energy  EATOM  =      4604.25636981
  Solvation  Ediel_sol  =       127.57671778
  ---------------------------------------------------
  free energy    TOTEN  =       -78.79715135 eV

  energy without entropy =      -78.79715135  energy(sigma->0) =      -78.79715135


--------------------------------------------------------------------------------------------------------




--------------------------------------- Iteration      1(  10)  ---------------------------------------


    POTLOK:  cpu time   43.1259: real time   43.1220
    SETDIJ:  cpu time    0.8192: real time    0.8191
    EDDIAG:  cpu time    3.8276: real time    3.1804
  RMM-DIIS:  cpu time   39.4682: real time   22.0081
    ORTHCH:  cpu time    0.0569: real time    0.0290
       DOS:  cpu time    0.0011: real time    0.0006
    CHARGE:  cpu time    3.8040: real time    3.0314
    MIXING:  cpu time    0.1629: real time    0.0815
    --------------------------------------------
      LOOP:  cpu time   91.2658: real time   72.2719

 eigenvalue-minimisations  :   222
 total energy-change (2. order) :-0.1115815E-01  (-0.3609630E-02)
 number of electron      59.9999998 magnetization      -0.0298225
 augmentation part        7.9302047 magnetization      -0.0294728

 Broyden mixing:
  rms(total) = 0.88957E-02    rms(broyden)= 0.88940E-02
  rms(prec ) = 0.14276E-01
  weight for this iteration     100.00

 eigenvalues of (default mixing * dielectric matrix)
  average eigenvalue GAMMA=   1.8047
  6.0702  2.8808  2.0172  1.3340  1.0928  0.8396  0.6924  0.6924  0.6231

 Free energy of the ion-electron system (eV)
  ---------------------------------------------------
  alpha Z        PSCENC =         1.72117159
  Ewald energy   TEWEN  =      5735.54753436
  -Hartree energ DENC   =     -9861.99715931
  -exchange      EXHF   =         0.00000000
  -V(xc)+E(xc)   XCENC  =       345.58099966
  PAW double counting   =      5472.58240977    -5512.74326881
  entropy T*S    EENTRO =        -0.00000000
  eigenvalues    EBANDS =      -994.53014433
  atomic energy  EATOM  =      4604.25636981
  Solvation  Ediel_sol  =       130.77377775
  ---------------------------------------------------
  free energy    TOTEN  =       -78.80830950 eV

  energy without entropy =      -78.80830950  energy(sigma->0) =      -78.80830950


--------------------------------------------------------------------------------------------------------




--------------------------------------- Iteration      1(  11)  ---------------------------------------


    POTLOK:  cpu time   43.5617: real time   43.5436
    SETDIJ:  cpu time    0.8530: real time    0.8530
    EDDIAG:  cpu time    3.8157: real time    3.1686
  RMM-DIIS:  cpu time   40.4586: real time   22.5326
    ORTHCH:  cpu time    0.0567: real time    0.0287
       DOS:  cpu time    0.0010: real time    0.0005
    CHARGE:  cpu time    3.8056: real time    3.0349
    MIXING:  cpu time    0.1820: real time    0.0919
    --------------------------------------------
      LOOP:  cpu time   92.7342: real time   73.2538

 eigenvalue-minimisations  :   231
 total energy-change (2. order) :-0.1237295E-01  (-0.2337171E-02)
 number of electron      59.9999998 magnetization      -0.0240053
 augmentation part        7.9283375 magnetization      -0.0232780

 Broyden mixing:
  rms(total) = 0.78320E-02    rms(broyden)= 0.78310E-02
  rms(prec ) = 0.10288E-01
  weight for this iteration     100.00

 eigenvalues of (default mixing * dielectric matrix)
  average eigenvalue GAMMA=   1.9041
  7.1622  3.2314  2.3199  1.5967  0.9780  0.8816  0.8816  0.6212  0.6844  0.6844

 Free energy of the ion-electron system (eV)
  ---------------------------------------------------
  alpha Z        PSCENC =         1.72117159
  Ewald energy   TEWEN  =      5735.54753436
  -Hartree energ DENC   =     -9864.07630609
  -exchange      EXHF   =         0.00000000
  -V(xc)+E(xc)   XCENC  =       345.52726076
  PAW double counting   =      5473.33409911    -5513.48995941
  entropy T*S    EENTRO =        -0.00000000
  eigenvalues    EBANDS =      -995.49250286
  atomic energy  EATOM  =      4604.25636981
  Solvation  Ediel_sol  =       133.85165028
  ---------------------------------------------------
  free energy    TOTEN  =       -78.82068245 eV

  energy without entropy =      -78.82068245  energy(sigma->0) =      -78.82068245


--------------------------------------------------------------------------------------------------------




--------------------------------------- Iteration      1(  12)  ---------------------------------------


    POTLOK:  cpu time   42.1638: real time   42.1540
    SETDIJ:  cpu time    0.8645: real time    0.8645
    EDDIAG:  cpu time    3.8142: real time    3.1674
  RMM-DIIS:  cpu time   47.3547: real time   26.3972
    ORTHCH:  cpu time    0.0564: real time    0.0285
       DOS:  cpu time    0.0011: real time    0.0005
    CHARGE:  cpu time    3.8033: real time    3.0313
    MIXING:  cpu time    0.1705: real time    0.0853
    --------------------------------------------
      LOOP:  cpu time   98.2287: real time   75.7288

 eigenvalue-minimisations  :   283
 total energy-change (2. order) :-0.5897743E-02  (-0.1268108E-02)
 number of electron      59.9999998 magnetization      -0.0154527
 augmentation part        7.9286218 magnetization      -0.0149477

 Broyden mixing:
  rms(total) = 0.34147E-02    rms(broyden)= 0.34143E-02
  rms(prec ) = 0.53752E-02
  weight for this iteration     100.00

 eigenvalues of (default mixing * dielectric matrix)
  average eigenvalue GAMMA=   1.9546
  7.7260  3.7308  2.3750  1.7336  1.1114  1.1114  0.8562  0.8562  0.7140  0.6224
  0.6639

 Free energy of the ion-electron system (eV)
  ---------------------------------------------------
  alpha Z        PSCENC =         1.72117159
  Ewald energy   TEWEN  =      5735.54753436
  -Hartree energ DENC   =     -9864.43473916
  -exchange      EXHF   =         0.00000000
  -V(xc)+E(xc)   XCENC  =       345.48620038
  PAW double counting   =      5473.49785456    -5513.64769084
  entropy T*S    EENTRO =        -0.00000000
  eigenvalues    EBANDS =      -996.23128414
  atomic energy  EATOM  =      4604.25636981
  Solvation  Ediel_sol  =       134.97800325
  ---------------------------------------------------
  free energy    TOTEN  =       -78.82658019 eV

  energy without entropy =      -78.82658019  energy(sigma->0) =      -78.82658019


--------------------------------------------------------------------------------------------------------




--------------------------------------- Iteration      1(  13)  ---------------------------------------


    POTLOK:  cpu time   42.2407: real time   42.2299
    SETDIJ:  cpu time    0.7647: real time    0.7646
    EDDIAG:  cpu time    3.8151: real time    3.1694
  RMM-DIIS:  cpu time   36.0009: real time   20.0315
    ORTHCH:  cpu time    0.0571: real time    0.0289
       DOS:  cpu time    0.0011: real time    0.0005
    CHARGE:  cpu time    3.8143: real time    3.0433
    MIXING:  cpu time    0.1716: real time    0.0858
    --------------------------------------------
      LOOP:  cpu time   86.8655: real time   69.3540

 eigenvalue-minimisations  :   200
 total energy-change (2. order) :-0.2052049E-02  (-0.6412912E-03)
 number of electron      59.9999998 magnetization      -0.0100177
 augmentation part        7.9293602 magnetization      -0.0098199

 Broyden mixing:
  rms(total) = 0.27821E-02    rms(broyden)= 0.27811E-02
  rms(prec ) = 0.38569E-02
  weight for this iteration     100.00

 eigenvalues of (default mixing * dielectric matrix)
  average eigenvalue GAMMA=   1.9660
  8.0577  4.2216  2.3758  1.9977  1.4089  0.9777  0.9165  0.9165  0.7308  0.7308
  0.6234  0.6341

 Free energy of the ion-electron system (eV)
  ---------------------------------------------------
  alpha Z        PSCENC =         1.72117159
  Ewald energy   TEWEN  =      5735.54753436
  -Hartree energ DENC   =     -9864.30359037
  -exchange      EXHF   =         0.00000000
  -V(xc)+E(xc)   XCENC  =       345.46517657
  PAW double counting   =      5473.43193070    -5513.57655299
  entropy T*S    EENTRO =        -0.00000000
  eigenvalues    EBANDS =      -996.79323843
  atomic energy  EATOM  =      4604.25636981
  Solvation  Ediel_sol  =       135.42256651
  ---------------------------------------------------
  free energy    TOTEN  =       -78.82863224 eV

  energy without entropy =      -78.82863224  energy(sigma->0) =      -78.82863224


--------------------------------------------------------------------------------------------------------




--------------------------------------- Iteration      1(  14)  ---------------------------------------


    POTLOK:  cpu time   40.9898: real time   40.9705
    SETDIJ:  cpu time    0.7260: real time    0.7259
    EDDIAG:  cpu time    3.8234: real time    3.1770
  RMM-DIIS:  cpu time   40.0941: real time   22.9061
    ORTHCH:  cpu time    0.0569: real time    0.0289
       DOS:  cpu time    0.0011: real time    0.0005
    CHARGE:  cpu time    3.7960: real time    3.0246
    MIXING:  cpu time    0.1763: real time    0.0881
    --------------------------------------------
      LOOP:  cpu time   89.6635: real time   70.9217

 eigenvalue-minimisations  :   229
 total energy-change (2. order) :-0.1795229E-02  (-0.2244001E-03)
 number of electron      59.9999998 magnetization      -0.0049894
 augmentation part        7.9293303 magnetization      -0.0048842

 Broyden mixing:
  rms(total) = 0.19439E-02    rms(broyden)= 0.19438E-02
  rms(prec ) = 0.26141E-02
  weight for this iteration     100.00

 eigenvalues of (default mixing * dielectric matrix)
  average eigenvalue GAMMA=   1.9948
  8.2723  4.5802  2.3910  2.3910  1.6040  1.1168  1.1168  0.8882  0.8882  0.7160
  0.7160  0.6323  0.6196

 Free energy of the ion-electron system (eV)
  ---------------------------------------------------
  alpha Z        PSCENC =         1.72117159
  Ewald energy   TEWEN  =      5735.54753436
  -Hartree energ DENC   =     -9864.35694659
  -exchange      EXHF   =         0.00000000
  -V(xc)+E(xc)   XCENC  =       345.46591444
  PAW double counting   =      5473.44123627    -5513.58534918
  entropy T*S    EENTRO =        -0.00000000
  eigenvalues    EBANDS =      -996.90745614
  atomic energy  EATOM  =      4604.25636981
  Solvation  Ediel_sol  =       135.58709797
  ---------------------------------------------------
  free energy    TOTEN  =       -78.83042747 eV

  energy without entropy =      -78.83042747  energy(sigma->0) =      -78.83042747


--------------------------------------------------------------------------------------------------------




--------------------------------------- Iteration      1(  15)  ---------------------------------------


    POTLOK:  cpu time   40.0464: real time   40.0370
    SETDIJ:  cpu time    0.7514: real time    0.7514
    EDDIAG:  cpu time    3.8151: real time    3.1683
  RMM-DIIS:  cpu time   36.9216: real time   20.4852
    ORTHCH:  cpu time    0.0573: real time    0.0291
       DOS:  cpu time    0.0013: real time    0.0006
    CHARGE:  cpu time    3.8102: real time    3.0401
    MIXING:  cpu time    0.1865: real time    0.0970
    --------------------------------------------
      LOOP:  cpu time   85.5897: real time   67.6088

 eigenvalue-minimisations  :   204
 total energy-change (2. order) :-0.1024561E-02  (-0.1420397E-03)
 number of electron      59.9999998 magnetization      -0.0026312
 augmentation part        7.9288684 magnetization      -0.0025502

 Broyden mixing:
  rms(total) = 0.12381E-02    rms(broyden)= 0.12377E-02
  rms(prec ) = 0.15694E-02
  weight for this iteration     100.00

 eigenvalues of (default mixing * dielectric matrix)
  average eigenvalue GAMMA=   2.0570
  8.6762  5.2221  3.1114  2.4476  1.7423  1.2414  0.9860  0.9860  0.8679  0.8679
  0.7173  0.6864  0.6271  0.6181

 Free energy of the ion-electron system (eV)
  ---------------------------------------------------
  alpha Z        PSCENC =         1.72117159
  Ewald energy   TEWEN  =      5735.54753436
  -Hartree energ DENC   =     -9864.50496127
  -exchange      EXHF   =         0.00000000
  -V(xc)+E(xc)   XCENC  =       345.47055988
  PAW double counting   =      5473.44612314    -5513.59194544
  entropy T*S    EENTRO =        -0.00000000
  eigenvalues    EBANDS =      -996.84421590
  atomic energy  EATOM  =      4604.25636981
  Solvation  Ediel_sol  =       135.66791179
  ---------------------------------------------------
  free energy    TOTEN  =       -78.83145203 eV

  energy without entropy =      -78.83145203  energy(sigma->0) =      -78.83145203


--------------------------------------------------------------------------------------------------------




--------------------------------------- Iteration      1(  16)  ---------------------------------------


    POTLOK:  cpu time   37.9776: real time   37.9694
    SETDIJ:  cpu time    0.7729: real time    0.7729
    EDDIAG:  cpu time    3.8208: real time    3.1718
  RMM-DIIS:  cpu time   36.3014: real time   20.1155
    ORTHCH:  cpu time    0.0577: real time    0.0292
       DOS:  cpu time    0.0013: real time    0.0006
    CHARGE:  cpu time    3.8066: real time    3.0352
    MIXING:  cpu time    0.1904: real time    0.1013
    --------------------------------------------
      LOOP:  cpu time   82.9285: real time   65.1960

 eigenvalue-minimisations  :   202
 total energy-change (2. order) :-0.4549842E-03  (-0.5303778E-04)
 number of electron      59.9999998 magnetization      -0.0012877
 augmentation part        7.9288526 magnetization      -0.0012127

 Broyden mixing:
  rms(total) = 0.88415E-03    rms(broyden)= 0.88409E-03
  rms(prec ) = 0.10877E-02
  weight for this iteration     100.00

 eigenvalues of (default mixing * dielectric matrix)
  average eigenvalue GAMMA=   2.0523
  8.9458  5.5063  3.3308  2.4844  1.6887  1.4091  1.1174  1.1174  0.8751  0.8751
  0.8169  0.6883  0.6883  0.6205  0.6205

 Free energy of the ion-electron system (eV)
  ---------------------------------------------------
  alpha Z        PSCENC =         1.72117159
  Ewald energy   TEWEN  =      5735.54753436
  -Hartree energ DENC   =     -9864.51367967
  -exchange      EXHF   =         0.00000000
  -V(xc)+E(xc)   XCENC  =       345.46757330
  PAW double counting   =      5473.38010280    -5513.52630829
  entropy T*S    EENTRO =        -0.00000000
  eigenvalues    EBANDS =      -996.83784394
  atomic energy  EATOM  =      4604.25636981
  Solvation  Ediel_sol  =       135.67317302
  ---------------------------------------------------
  free energy    TOTEN  =       -78.83190701 eV

  energy without entropy =      -78.83190701  energy(sigma->0) =      -78.83190701


--------------------------------------------------------------------------------------------------------




--------------------------------------- Iteration      1(  17)  ---------------------------------------


    POTLOK:  cpu time   37.5278: real time   37.5197
    SETDIJ:  cpu time    0.8190: real time    0.8191
    EDDIAG:  cpu time    3.8142: real time    3.1684
  RMM-DIIS:  cpu time   39.2215: real time   21.7272
    ORTHCH:  cpu time    0.0562: real time    0.0286
       DOS:  cpu time    0.0012: real time    0.0006
    CHARGE:  cpu time    3.8317: real time    3.0600
    MIXING:  cpu time    0.1864: real time    0.0968
    --------------------------------------------
      LOOP:  cpu time   85.4582: real time   66.4204

 eigenvalue-minimisations  :   219
 total energy-change (2. order) :-0.2781618E-03  (-0.2059939E-04)
 number of electron      59.9999998 magnetization      -0.0004506
 augmentation part        7.9290546 magnetization      -0.0003946

 Broyden mixing:
  rms(total) = 0.44012E-03    rms(broyden)= 0.43992E-03
  rms(prec ) = 0.58501E-03
  weight for this iteration     100.00

 eigenvalues of (default mixing * dielectric matrix)
  average eigenvalue GAMMA=   2.0896
  9.2827  5.8262  3.6506  2.5414  1.8689  1.8689  1.1614  1.0728  1.0728  0.8725
  0.8725  0.7430  0.6968  0.6633  0.6197  0.6197

 Free energy of the ion-electron system (eV)
  ---------------------------------------------------
  alpha Z        PSCENC =         1.72117159
  Ewald energy   TEWEN  =      5735.54753436
  -Hartree energ DENC   =     -9864.48431174
  -exchange      EXHF   =         0.00000000
  -V(xc)+E(xc)   XCENC  =       345.46547539
  PAW double counting   =      5473.36766013    -5513.51369509
  entropy T*S    EENTRO =        -0.00000000
  eigenvalues    EBANDS =      -996.85312517
  atomic energy  EATOM  =      4604.25636981
  Solvation  Ediel_sol  =       135.66073554
  ---------------------------------------------------
  free energy    TOTEN  =       -78.83218517 eV

  energy without entropy =      -78.83218517  energy(sigma->0) =      -78.83218517


--------------------------------------------------------------------------------------------------------




--------------------------------------- Iteration      1(  18)  ---------------------------------------


    POTLOK:  cpu time   36.7485: real time   36.7421
    SETDIJ:  cpu time    0.6548: real time    0.6547
    EDDIAG:  cpu time    3.8057: real time    3.1600
  RMM-DIIS:  cpu time   37.9574: real time   20.8303
    ORTHCH:  cpu time    0.0588: real time    0.0298
       DOS:  cpu time    0.0014: real time    0.0007
    CHARGE:  cpu time    3.8106: real time    3.0392
    MIXING:  cpu time    0.1979: real time    0.1075
    --------------------------------------------
      LOOP:  cpu time   83.2349: real time   64.5642

 eigenvalue-minimisations  :   215
 total energy-change (2. order) :-0.2092068E-03  (-0.6492569E-05)
 number of electron      59.9999998 magnetization      -0.0000597
 augmentation part        7.9290629 magnetization      -0.0000315

 Broyden mixing:
  rms(total) = 0.31475E-03    rms(broyden)= 0.31471E-03
  rms(prec ) = 0.39882E-03
  weight for this iteration     100.00

 eigenvalues of (default mixing * dielectric matrix)
  average eigenvalue GAMMA=   2.0888
  9.4481  6.0693  3.8664  2.6541  2.2707  1.6678  1.3351  1.0988  1.0988  0.9346
  0.8734  0.8734  0.7216  0.7036  0.6566  0.6148  0.6232

 Free energy of the ion-electron system (eV)
  ---------------------------------------------------
  alpha Z        PSCENC =         1.72117159
  Ewald energy   TEWEN  =      5735.54753436
  -Hartree energ DENC   =     -9864.49326475
  -exchange      EXHF   =         0.00000000
  -V(xc)+E(xc)   XCENC  =       345.46661710
  PAW double counting   =      5473.41553567    -5513.56177863
  entropy T*S    EENTRO =        -0.00000000
  eigenvalues    EBANDS =      -996.83670359
  atomic energy  EATOM  =      4604.25636981
  Solvation  Ediel_sol  =       135.65212404
  ---------------------------------------------------
  free energy    TOTEN  =       -78.83239438 eV

  energy without entropy =      -78.83239438  energy(sigma->0) =      -78.83239438


--------------------------------------------------------------------------------------------------------




--------------------------------------- Iteration      1(  19)  ---------------------------------------


    POTLOK:  cpu time   36.3555: real time   36.3438
    SETDIJ:  cpu time    0.5984: real time    0.5982
    EDDIAG:  cpu time    3.8031: real time    3.1570
  RMM-DIIS:  cpu time   33.5724: real time   18.8020
    ORTHCH:  cpu time    0.0566: real time    0.0287
       DOS:  cpu time    0.0011: real time    0.0006
    CHARGE:  cpu time    3.8042: real time    3.0334
    MIXING:  cpu time    0.1991: real time    0.1090
    --------------------------------------------
      LOOP:  cpu time   78.3903: real time   62.0726

 eigenvalue-minimisations  :   178
 total energy-change (2. order) :-0.1097065E-03  (-0.2076732E-05)
 number of electron      59.9999998 magnetization       0.0001292
 augmentation part        7.9290003 magnetization       0.0001463

 Broyden mixing:
  rms(total) = 0.14048E-03    rms(broyden)= 0.14041E-03
  rms(prec ) = 0.19642E-03
  weight for this iteration     100.00

 eigenvalues of (default mixing * dielectric matrix)
  average eigenvalue GAMMA=   2.0980
  9.5605  6.3801  4.0644  2.9483  2.3654  1.6536  1.6536  1.1055  1.1055  1.1020
  0.8795  0.8795  0.7781  0.7313  0.6661  0.6554  0.6140  0.6211

 Free energy of the ion-electron system (eV)
  ---------------------------------------------------
  alpha Z        PSCENC =         1.72117159
  Ewald energy   TEWEN  =      5735.54753436
  -Hartree energ DENC   =     -9864.50046809
  -exchange      EXHF   =         0.00000000
  -V(xc)+E(xc)   XCENC  =       345.46692024
  PAW double counting   =      5473.43166836    -5513.57800886
  entropy T*S    EENTRO =        -0.00000000
  eigenvalues    EBANDS =      -996.82665695
  atomic energy  EATOM  =      4604.25636981
  Solvation  Ediel_sol  =       135.64896545
  ---------------------------------------------------
  free energy    TOTEN  =       -78.83250409 eV

  energy without entropy =      -78.83250409  energy(sigma->0) =      -78.83250409


--------------------------------------------------------------------------------------------------------




--------------------------------------- Iteration      1(  20)  ---------------------------------------


    POTLOK:  cpu time   35.0843: real time   35.0746
    SETDIJ:  cpu time    0.6151: real time    0.6150
    EDDIAG:  cpu time    3.8040: real time    3.1566
  RMM-DIIS:  cpu time   32.5374: real time   18.2397
    ORTHCH:  cpu time    0.0565: real time    0.0286
       DOS:  cpu time    0.0015: real time    0.0008
    CHARGE:  cpu time    3.8164: real time    3.0490
    MIXING:  cpu time    0.2028: real time    0.1133
    --------------------------------------------
      LOOP:  cpu time   76.1180: real time   60.2775

 eigenvalue-minimisations  :   170
 total energy-change (2. order) :-0.4948198E-04  (-0.1003287E-05)
 number of electron      59.9999998 magnetization       0.0001683
 augmentation part        7.9289954 magnetization       0.0001796

 Broyden mixing:
  rms(total) = 0.10014E-03    rms(broyden)= 0.10013E-03
  rms(prec ) = 0.13249E-03
  weight for this iteration     100.00

 eigenvalues of (default mixing * dielectric matrix)
  average eigenvalue GAMMA=   2.1127
  9.6177  6.8028  4.3189  3.3136  2.4119  1.7783  1.7783  1.1224  1.1224  1.2074
  0.8917  0.8917  0.8881  0.7299  0.7299  0.6720  0.6321  0.6156  0.6156

 Free energy of the ion-electron system (eV)
  ---------------------------------------------------
  alpha Z        PSCENC =         1.72117159
  Ewald energy   TEWEN  =      5735.54753436
  -Hartree energ DENC   =     -9864.49120168
  -exchange      EXHF   =         0.00000000
  -V(xc)+E(xc)   XCENC  =       345.46616888
  PAW double counting   =      5473.42779225    -5513.57400309
  entropy T*S    EENTRO =        -0.00000000
  eigenvalues    EBANDS =      -996.83353361
  atomic energy  EATOM  =      4604.25636981
  Solvation  Ediel_sol  =       135.64714792
  ---------------------------------------------------
  free energy    TOTEN  =       -78.83255357 eV

  energy without entropy =      -78.83255357  energy(sigma->0) =      -78.83255357


--------------------------------------------------------------------------------------------------------




--------------------------------------- Iteration      1(  21)  ---------------------------------------


    POTLOK:  cpu time   32.9762: real time   32.9693
    SETDIJ:  cpu time    0.6384: real time    0.6384
    EDDIAG:  cpu time    3.8239: real time    3.1766
  RMM-DIIS:  cpu time   32.8029: real time   18.3117
    ORTHCH:  cpu time    0.0570: real time    0.0289
       DOS:  cpu time    0.0012: real time    0.0006
    CHARGE:  cpu time    3.7969: real time    3.0252
    MIXING:  cpu time    0.2065: real time    0.1167
    --------------------------------------------
      LOOP:  cpu time   74.3031: real time   58.2674

 eigenvalue-minimisations  :   167
 total energy-change (2. order) :-0.1703782E-04  (-0.4510570E-06)
 number of electron      59.9999998 magnetization       0.0001329
 augmentation part        7.9290083 magnetization       0.0001409

 Broyden mixing:
  rms(total) = 0.45290E-04    rms(broyden)= 0.45272E-04
  rms(prec ) = 0.75384E-04
  weight for this iteration     100.00

 eigenvalues of (default mixing * dielectric matrix)
  average eigenvalue GAMMA=   2.0799
  9.6175  6.9696  4.4329  3.3979  2.4516  1.7556  1.7556  1.1349  1.1349  1.2516
  1.1009  0.8899  0.8899  0.8405  0.7205  0.7205  0.6593  0.6424  0.6164  0.6164

 Free energy of the ion-electron system (eV)
  ---------------------------------------------------
  alpha Z        PSCENC =         1.72117159
  Ewald energy   TEWEN  =      5735.54753436
  -Hartree energ DENC   =     -9864.48546765
  -exchange      EXHF   =         0.00000000
  -V(xc)+E(xc)   XCENC  =       345.46583371
  PAW double counting   =      5473.42507665    -5513.57121173
  entropy T*S    EENTRO =        -0.00000000
  eigenvalues    EBANDS =      -996.83865326
  atomic energy  EATOM  =      4604.25636981
  Solvation  Ediel_sol  =       135.64677591
  ---------------------------------------------------
  free energy    TOTEN  =       -78.83257061 eV

  energy without entropy =      -78.83257061  energy(sigma->0) =      -78.83257061


--------------------------------------------------------------------------------------------------------




--------------------------------------- Iteration      1(  22)  ---------------------------------------


    POTLOK:  cpu time   32.5359: real time   32.5275
    SETDIJ:  cpu time    0.6338: real time    0.6337
    EDDIAG:  cpu time    3.8147: real time    3.1695
  RMM-DIIS:  cpu time   31.9495: real time   17.9172
    ORTHCH:  cpu time    0.0568: real time    0.0288
       DOS:  cpu time    0.0011: real time    0.0006
    CHARGE:  cpu time    3.8257: real time    3.0538
    MIXING:  cpu time    0.2128: real time    0.1227
    --------------------------------------------
      LOOP:  cpu time   73.0303: real time   57.4537

 eigenvalue-minimisations  :   163
 total energy-change (2. order) :-0.1374979E-04  (-0.3441114E-06)
 number of electron      59.9999998 magnetization       0.0000909
 augmentation part        7.9290157 magnetization       0.0000962

 Broyden mixing:
  rms(total) = 0.34864E-04    rms(broyden)= 0.34858E-04
  rms(prec ) = 0.53313E-04
  weight for this iteration     100.00

 eigenvalues of (default mixing * dielectric matrix)
  average eigenvalue GAMMA=   2.0973
  9.6247  7.1402  4.6468  3.4909  2.5348  2.0507  2.0507  1.6584  1.1330  1.1330
  1.2007  0.9012  0.9012  0.8454  0.8077  0.7276  0.6885  0.6396  0.6396  0.6102
  0.6194

 Free energy of the ion-electron system (eV)
  ---------------------------------------------------
  alpha Z        PSCENC =         1.72117159
  Ewald energy   TEWEN  =      5735.54753436
  -Hartree energ DENC   =     -9864.48688435
  -exchange      EXHF   =         0.00000000
  -V(xc)+E(xc)   XCENC  =       345.46588034
  PAW double counting   =      5473.42440933    -5513.57056741
  entropy T*S    EENTRO =        -0.00000000
  eigenvalues    EBANDS =      -996.83821686
  atomic energy  EATOM  =      4604.25636981
  Solvation  Ediel_sol  =       135.64771883
  ---------------------------------------------------
  free energy    TOTEN  =       -78.83258436 eV

  energy without entropy =      -78.83258436  energy(sigma->0) =      -78.83258436


--------------------------------------------------------------------------------------------------------




--------------------------------------- Iteration      1(  23)  ---------------------------------------


    POTLOK:  cpu time   32.5466: real time   32.5361
    SETDIJ:  cpu time    0.6213: real time    0.6214
    EDDIAG:  cpu time    3.7991: real time    3.1527
  RMM-DIIS:  cpu time   32.1587: real time   17.9384
    ORTHCH:  cpu time    0.0575: real time    0.0292
       DOS:  cpu time    0.0010: real time    0.0005
    --------------------------------------------
      LOOP:  cpu time   69.1842: real time   54.2782

 eigenvalue-minimisations  :   165
 total energy-change (2. order) :-0.8498319E-05  (-0.2779821E-06)
 number of electron      59.9999998 magnetization       0.0000909
 augmentation part        7.9290157 magnetization       0.0000962

 Free energy of the ion-electron system (eV)
  ---------------------------------------------------
  alpha Z        PSCENC =         1.72117159
  Ewald energy   TEWEN  =      5735.54753436
  -Hartree energ DENC   =     -9864.48827312
  -exchange      EXHF   =         0.00000000
  -V(xc)+E(xc)   XCENC  =       345.46594437
  PAW double counting   =      5473.42208697    -5513.56827170
  entropy T*S    EENTRO =        -0.00000000
  eigenvalues    EBANDS =      -996.83760372
  atomic energy  EATOM  =      4604.25636981
  Solvation  Ediel_sol  =       135.64844857
  ---------------------------------------------------
  free energy    TOTEN  =       -78.83259286 eV

  energy without entropy =      -78.83259286  energy(sigma->0) =      -78.83259286


--------------------------------------------------------------------------------------------------------




 average (electrostatic) potential at core
  the test charge radii are     0.6991  0.7167  0.7215
  (the norm of the test charge is              1.0000)
       1 -67.2394       2 -65.4189       3 -62.9787       4 -91.7773       5 -91.8032
       6 -91.8025       7 -91.2797       8 -91.2629       9 -82.7308      10 -82.7161
 
 
 
 E-fermi :  -5.0614     XC(G=0):  -0.2094     alpha+bet : -0.0971


 spin component 1

 k-point     1 :       0.0000    0.0000    0.0000
  band No.  band energies     occupation 
      1     -35.5588      1.00000
      2     -34.0649      1.00000
      3     -33.2234      1.00000
      4     -33.1967      1.00000
      5     -32.5607      1.00000
      6     -27.5377      1.00000
      7     -24.5087      1.00000
      8     -20.6628      1.00000
      9     -18.0685      1.00000
     10     -16.2634      1.00000
     11     -15.8563      1.00000
     12     -15.8406      1.00000
     13     -15.0330      1.00000
     14     -14.6004      1.00000
     15     -12.3050      1.00000
     16     -12.2471      1.00000
     17     -12.1244      1.00000
     18     -11.7848      1.00000
     19     -11.5157      1.00000
     20     -11.2918      1.00000
     21     -11.0990      1.00000
     22     -10.7476      1.00000
     23     -10.7060      1.00000
     24     -10.5664      1.00000
     25      -9.9939      1.00000
     26      -9.8580      1.00000
     27      -9.4335      1.00000
     28      -6.5033      1.00000
     29      -6.1451      1.00000
     30      -5.1215      1.00000
     31      -0.7487      0.00000
     32      -0.0843      0.00000
     33       0.2287      0.00000
     34       0.2719      0.00000
     35       0.2908      0.00000
     36       0.2973      0.00000
     37       0.3235      0.00000
     38       0.3248      0.00000
     39       0.5546      0.00000
     40       0.6127      0.00000
     41       0.6568      0.00000
     42       0.6742      0.00000
     43       0.6976      0.00000
     44       0.7070      0.00000

 spin component 2

 k-point     1 :       0.0000    0.0000    0.0000
  band No.  band energies     occupation 
      1     -35.5588      1.00000
      2     -34.0649      1.00000
      3     -33.2234      1.00000
      4     -33.1967      1.00000
      5     -32.5606      1.00000
      6     -27.5377      1.00000
      7     -24.5087      1.00000
      8     -20.6628      1.00000
      9     -18.0685      1.00000
     10     -16.2634      1.00000
     11     -15.8563      1.00000
     12     -15.8406      1.00000
     13     -15.0329      1.00000
     14     -14.6004      1.00000
     15     -12.3050      1.00000
     16     -12.2471      1.00000
     17     -12.1244      1.00000
     18     -11.7848      1.00000
     19     -11.5157      1.00000
     20     -11.2918      1.00000
     21     -11.0990      1.00000
     22     -10.7476      1.00000
     23     -10.7060      1.00000
     24     -10.5664      1.00000
     25      -9.9939      1.00000
     26      -9.8580      1.00000
     27      -9.4335      1.00000
     28      -6.5033      1.00000
     29      -6.1451      1.00000
     30      -5.1215      1.00000
     31      -0.7486      0.00000
     32      -0.0818      0.00000
     33       0.2296      0.00000
     34       0.2739      0.00000
     35       0.2925      0.00000
     36       0.2995      0.00000
     37       0.3244      0.00000
     38       0.3253      0.00000
     39       0.5504      0.00000
     40       0.6083      0.00000
     41       0.6313      0.00000
     42       0.6869      0.00000
     43       0.6955      0.00000
     44       0.7012      0.00000


--------------------------------------------------------------------------------------------------------


 soft charge-density along one line, spin component           1
         0         1         2         3         4         5         6         7         8         9
 total charge-density along one line
 
 soft charge-density along one line, spin component           2
         0         1         2         3         4         5         6         7         8         9
 total charge-density along one line
 
 pseudopotential strength for first ion, spin component:           1
 10.757  14.314   0.000   0.018   0.005  -0.000  -0.045  -0.012
 14.314  19.046   0.000   0.023   0.006  -0.000  -0.057  -0.016
  0.000   0.000  -4.735  -0.000  -0.000   9.217   0.000   0.000
  0.018   0.023  -0.000  -4.737  -0.000   0.000   9.211  -0.001
  0.005   0.006  -0.000  -0.000  -4.735   0.000  -0.001   9.215
 -0.000  -0.000   9.217   0.000   0.000 -20.224  -0.000  -0.000
 -0.045  -0.057   0.000   9.211  -0.001  -0.000 -20.210   0.003
 -0.012  -0.016   0.000  -0.001   9.215  -0.000   0.003 -20.222
 pseudopotential strength for first ion, spin component:           2
 10.757  14.314   0.000   0.018   0.005  -0.000  -0.045  -0.012
 14.314  19.046   0.000   0.023   0.006  -0.000  -0.057  -0.016
  0.000   0.000  -4.735  -0.000  -0.000   9.217   0.000   0.000
  0.018   0.023  -0.000  -4.737  -0.000   0.000   9.211  -0.001
  0.005   0.006  -0.000  -0.000  -4.735   0.000  -0.001   9.215
 -0.000  -0.000   9.217   0.000   0.000 -20.224  -0.000  -0.000
 -0.045  -0.057   0.000   9.211  -0.001  -0.000 -20.210   0.003
 -0.012  -0.016   0.000  -0.001   9.215  -0.000   0.003 -20.222
 total augmentation occupancy for first ion, spin component:           1
  8.570  -4.237  -0.009   0.333   0.093  -0.002   0.083   0.023
 -4.237   2.319   0.005  -0.360  -0.103   0.002  -0.057  -0.016
 -0.009   0.005   1.407   0.002   0.002   0.161  -0.000   0.000
  0.333  -0.360   0.002   1.585   0.053  -0.000   0.129  -0.009
  0.093  -0.103   0.002   0.053   1.420   0.000  -0.009   0.158
 -0.002   0.002   0.161  -0.000   0.000   0.022   0.000   0.000
  0.083  -0.057  -0.000   0.129  -0.009   0.000   0.014  -0.002
  0.023  -0.016   0.000  -0.009   0.158   0.000  -0.002   0.022
 total augmentation occupancy for first ion, spin component:           2
  0.000  -0.000  -0.000   0.000   0.000  -0.000   0.000   0.000
 -0.000   0.000   0.000  -0.000  -0.000  -0.000  -0.000  -0.000
 -0.000   0.000  -0.000  -0.000  -0.000   0.000  -0.000   0.000
  0.000  -0.000  -0.000   0.000  -0.000   0.000  -0.000   0.000
  0.000  -0.000  -0.000  -0.000  -0.000   0.000  -0.000   0.000
 -0.000  -0.000   0.000   0.000   0.000   0.000  -0.000  -0.000
  0.000  -0.000  -0.000  -0.000  -0.000  -0.000   0.000  -0.000
  0.000  -0.000   0.000   0.000   0.000  -0.000  -0.000   0.000


------------------------ aborting loop because EDIFF is reached ----------------------------------------


 


 total charge     
 
# of ion       s       p       d       tot
------------------------------------------
    1        0.818   1.568   0.000   2.387
    2        0.834   1.616   0.000   2.450
    3        0.880   1.737   0.000   2.617
    4        1.758   4.416   0.000   6.174
    5        1.758   4.418   0.000   6.176
    6        1.758   4.417   0.000   6.174
    7        1.756   4.412   0.000   6.168
    8        1.756   4.413   0.000   6.169
    9        1.585   3.600   0.000   5.186
   10        1.585   3.598   0.000   5.183
--------------------------------------------------
tot         14.488  34.197   0.000  48.684
 


 magnetization (x)
 
# of ion       s       p       d       tot
------------------------------------------
    1       -0.000  -0.000   0.000  -0.000
    2       -0.000  -0.000   0.000  -0.000
    3       -0.000   0.000   0.000  -0.000
    4       -0.000   0.000   0.000   0.000
    5       -0.000   0.000   0.000   0.000
    6       -0.000   0.000   0.000   0.000
    7       -0.000   0.000   0.000   0.000
    8       -0.000   0.000   0.000   0.000
    9       -0.000   0.000   0.000   0.000
   10       -0.000   0.000   0.000   0.000
--------------------------------------------------
tot         -0.000   0.000   0.000   0.000
 
    CHARGE:  cpu time    0.7960: real time    0.4739
    FORLOC:  cpu time    0.1575: real time    0.0856
    FORNL :  cpu time    1.1365: real time    1.1350
    STRESS:  cpu time   62.2655: real time   54.0493
    FORCOR:  cpu time    2.6745: real time    2.6734
    FORHAR:  cpu time    0.2359: real time    0.2360
    MIXING:  cpu time    0.1604: real time    0.1597
    OFIELD:  cpu time    0.0001: real time    0.0001

  FORCE on cell =-STRESS in cart. coord.  units (eV):
  Direction    XX          YY          ZZ          XY          YZ          ZX
  --------------------------------------------------------------------------------------
  Alpha Z     1.72117     1.72117     1.72117
  Ewald    1799.48728  1909.24001  2026.81834  -109.70478  -489.25007  -191.07108
  Hartree  3046.12140  3250.18976  3568.17456   -24.00840  -465.58580   -94.61185
  E(xc)    -323.90685  -323.73920  -323.70792    -0.05422    -0.57538    -0.18969
  Local   -5615.21601 -5953.21819 -6434.66491   117.37274   966.29338   270.24110
  n-local  -251.16425  -250.73386  -248.20717     1.20545     2.39646     1.94563
  augment   103.22629   105.40633   110.19330     1.26920    -1.88729     1.22678
  Kinetic  1243.84905  1261.44805  1299.98123    12.04747    -9.35584    12.49863
  Fock        0.00000     0.00000     0.00000     0.00000     0.00000     0.00000
  -------------------------------------------------------------------------------------
  Total       4.11808     0.31407     0.30859    -1.87254     2.03547     0.03952
  in kB       0.82474     0.06290     0.06180    -0.37502     0.40765     0.00791
  external pressure =        0.32 kB  Pullay stress =        0.00 kB


 VOLUME and BASIS-vectors are now :
 -----------------------------------------------------------------------------
  energy-cutoff  :      550.00
  volume of cell :     8000.00
      direct lattice vectors                 reciprocal lattice vectors
    20.000000000  0.000000000  0.000000000     0.050000000  0.000000000  0.000000000
     0.000000000 20.000000000  0.000000000     0.000000000  0.050000000  0.000000000
     0.000000000  0.000000000 20.000000000     0.000000000  0.000000000  0.050000000

  length of vectors
    20.000000000 20.000000000 20.000000000     0.050000000  0.050000000  0.050000000


 FORCES acting on ions
    electron-ion (+dipol)            ewald-force                    non-local-force                 convergence-correction
 -----------------------------------------------------------------------------------------------
   -.129E+02 0.121E+02 -.742E+02   0.998E+01 -.110E+02 0.617E+02   0.282E+01 0.466E-01 0.967E+01   -.513E-04 -.315E-04 -.928E-04
   0.101E+02 -.146E+02 0.634E+02   -.342E+01 0.264E+02 -.625E+02   -.554E+01 -.891E+01 -.215E+01   0.222E-04 0.442E-04 -.298E-05
   -.383E+01 -.529E+02 0.914E+02   0.454E+01 0.554E+02 -.932E+02   0.124E+01 0.305E+01 -.136E+01   -.117E-03 -.289E-03 0.245E-03
   -.599E+03 0.207E+01 -.210E+03   0.657E+03 0.254E+01 0.210E+03   -.580E+02 -.279E+01 -.401E+01   -.130E-03 -.244E-04 -.203E-04
   0.150E+03 0.497E+03 -.396E+03   -.168E+03 -.545E+03 0.420E+03   0.184E+02 0.489E+02 -.255E+02   -.413E-04 -.104E-03 0.449E-04
   0.196E+03 -.420E+03 -.436E+03   -.219E+03 0.468E+03 0.460E+03   0.233E+02 -.456E+02 -.278E+02   0.156E-04 -.887E-04 0.157E-04
   -.156E+03 0.503E+03 0.345E+03   0.180E+03 -.545E+03 -.372E+03   -.220E+02 0.437E+02 0.252E+02   -.297E-03 0.436E-03 0.380E-03
   0.611E+03 0.785E+02 0.123E+03   -.666E+03 -.761E+02 -.128E+03   0.550E+02 0.610E+00 0.369E+01   0.674E-03 -.426E-04 0.914E-04
   -.404E+03 -.132E+03 0.298E+03   0.449E+03 0.140E+03 -.321E+03   -.425E+02 -.808E+01 0.220E+02   -.342E-03 -.263E-03 0.373E-03
   0.217E+03 -.442E+03 0.166E+03   -.243E+03 0.485E+03 -.175E+03   0.240E+02 -.411E+02 0.836E+01   0.909E-04 -.476E-03 0.288E-03
 -----------------------------------------------------------------------------------------------
   0.328E+01 0.101E+02 -.807E+01   -.568E-13 -.568E-13 0.284E-13   -.325E+01 -.101E+02 0.807E+01   -.177E-03 -.839E-03 0.132E-02
 
 
 POSITION                                       TOTAL-FORCE (eV/Angst)
 -----------------------------------------------------------------------------------
     10.21284      9.53833     11.03396        -0.189570      0.006045     -0.808963
      9.79039      9.54416      9.54817         0.517138      1.002029     -0.059158
     10.25705     10.77693      8.77838         1.186604      3.372797     -1.821188
     11.54730      9.60163     11.12863         0.113296     -0.009824      0.184182
      9.78853      8.41317     11.61819        -0.028002     -0.219685      0.325974
      9.67757     10.58773     11.67008         0.007010      0.070200      0.184623
     10.31568      8.44195      8.96631        -0.094245     -0.651984     -0.011589
      8.44089      9.48712      9.49523        -0.470397     -0.484228      0.151347
     11.38797     10.86218      8.25487         1.547671     -2.583700      0.492037
      9.53578     11.78887      8.63275        -2.589504     -0.501650      1.362734
 -----------------------------------------------------------------------------------
    total drift:                                0.035380      0.019284      0.001238


--------------------------------------------------------------------------------------------------------



  FREE ENERGIE OF THE ION-ELECTRON SYSTEM (eV)
  ---------------------------------------------------
  free  energy   TOTEN  =       -78.83259286 eV

  energy  without entropy=      -78.83259286  energy(sigma->0) =      -78.83259286
 


--------------------------------------------------------------------------------------------------------


    POTLOK:  cpu time   31.9016: real time   31.8898


--------------------------------------------------------------------------------------------------------


 writing wavefunctions
     LOOP+:  cpu time 2157.6218: real time 1715.9402
    4ORBIT:  cpu time    0.0000: real time    0.0000
 


 total charge     
 
# of ion       s       p       d       tot
------------------------------------------
    1        0.818   1.568   0.000   2.387
    2        0.834   1.616   0.000   2.450
    3        0.880   1.737   0.000   2.617
    4        1.758   4.416   0.000   6.174
    5        1.758   4.418   0.000   6.176
    6        1.758   4.417   0.000   6.174
    7        1.756   4.412   0.000   6.168
    8        1.756   4.413   0.000   6.169
    9        1.585   3.600   0.000   5.186
   10        1.585   3.598   0.000   5.183
--------------------------------------------------
tot         14.488  34.197   0.000  48.684
 


 magnetization (x)
 
# of ion       s       p       d       tot
------------------------------------------
    1       -0.000  -0.000   0.000  -0.000
    2       -0.000  -0.000   0.000  -0.000
    3       -0.000   0.000   0.000  -0.000
    4       -0.000   0.000   0.000   0.000
    5       -0.000   0.000   0.000   0.000
    6       -0.000   0.000   0.000   0.000
    7       -0.000   0.000   0.000   0.000
    8       -0.000   0.000   0.000   0.000
    9       -0.000   0.000   0.000   0.000
   10       -0.000   0.000   0.000   0.000
--------------------------------------------------
tot         -0.000   0.000   0.000   0.000
 

 total amount of memory used by VASP MPI-rank0   198870. kBytes
=======================================================================

   base      :      30000. kBytes
   nonlr-proj:        825. kBytes
   fftplans  :      34535. kBytes
   grid      :     126622. kBytes
   one-center:          6. kBytes
   wavefun   :       6882. kBytes
 
  
  
 General timing and accounting informations for this job:
 ========================================================
  
                  Total CPU time used (sec):     2524.168
                            User time (sec):     2256.763
                          System time (sec):      267.405
                         Elapsed time (sec):     1971.243
  
                   Maximum memory used (kb):      742084.
                   Average memory used (kb):           0.
  
                          Minor page faults:      1190211
                          Major page faults:            0
                 Voluntary context switches:        16981
