 vasp.5.4.4.18Apr17-6-g9f103f2a35 (build May 01 2020 14:57:12) complex          
  
 executed on             LinuxIFC date 2022.01.01  11:42:19
 running on   96 total cores
 distrk:  each k-point on   96 cores,    1 groups
 distr:  one band on NCORES_PER_BAND=  24 cores,    4 groups


--------------------------------------------------------------------------------------------------------


 INCAR:
 POTCAR:    PAW_PBE C 08Apr2002                   
 POTCAR:    PAW_PBE F 08Apr2002                   
 POTCAR:    PAW_PBE O 08Apr2002                   

 ----------------------------------------------------------------------------- 
|                                                                             |
|           W    W    AA    RRRRR   N    N  II  N    N   GGGG   !!!           |
|           W    W   A  A   R    R  NN   N  II  NN   N  G    G  !!!           |
|           W    W  A    A  R    R  N N  N  II  N N  N  G       !!!           |
|           W WW W  AAAAAA  RRRRR   N  N N  II  N  N N  G  GGG   !            |
|           WW  WW  A    A  R   R   N   NN  II  N   NN  G    G                |
|           W    W  A    A  R    R  N    N  II  N    N   GGGG   !!!           |
|                                                                             |
|      For optimal performance we recommend to set                            |
|        NCORE= 4 - approx SQRT( number of cores)                             |
|      NCORE specifies how many cores store one orbital (NPAR=cpu/NCORE).     |
|      This setting can  greatly improve the performance of VASP for DFT.     |
|      The default,   NCORE=1            might be grossly inefficient         |
|      on modern multi-core architectures or massively parallel machines.     |
|      Do your own testing !!!!                                               |
|      Unfortunately you need to use the default for GW and RPA calculations. |
|      (for HF NCORE is supported but not extensively tested yet)             |
|                                                                             |
 ----------------------------------------------------------------------------- 

 POTCAR:    PAW_PBE C 08Apr2002                   
   VRHFIN =C: s2p2                                                              
   LEXCH  = PE                                                                  
   EATOM  =   147.1560 eV,   10.8157 Ry                                         
                                                                                
   TITEL  = PAW_PBE C 08Apr2002                                                 
   LULTRA =        F    use ultrasoft PP ?                                      
   IUNSCR =        1    unscreen: 0-lin 1-nonlin 2-no                           
   RPACOR =    1.200    partial core radius                                     
   POMASS =   12.011; ZVAL   =    4.000    mass and valenz                      
   RCORE  =    1.500    outmost cutoff radius                                   
   RWIGS  =    1.630; RWIGS  =    0.863    wigner-seitz radius (au A)           
   ENMAX  =  400.000; ENMIN  =  300.000 eV                                      
   ICORE  =        2    local potential                                         
   LCOR   =        T    correct aug charges                                     
   LPAW   =        T    paw PP                                                  
   EAUG   =  644.873                                                            
   DEXC   =    0.000                                                            
   RMAX   =    1.529    core radius for proj-oper                               
   RAUG   =    1.300    factor for augmentation sphere                          
   RDEP   =    1.501    radius for radial grids                                 
   RDEPT  =    1.300    core radius for aug-charge                              
                                                                                
   Atomic configuration                                                         
    4 entries                                                                   
     n  l   j            E        occ.                                          
     1  0  0.50      -273.3789   2.0000                                         
     2  0  0.50       -13.7508   2.0000                                         
     2  1  0.50        -5.2854   2.0000                                         
     3  2  1.50        -5.4423   0.0000                                         
   Description                                                                  
     l       E           TYP  RCUT    TYP  RCUT                                 
     0    -13.7508458     23  1.200                                             
     0     -8.2022199     23  1.200                                             
     1     -5.2854383     23  1.500                                             
     1     34.0145650     23  1.500                                             
     2     -5.4423304      7  1.500                                             
  local pseudopotential read in
  partial core-charges read in
  partial kinetic energy density read in
  atomic valenz-charges read in
  non local Contribution for L=           0  read in
    real space projection operators read in
  non local Contribution for L=           0  read in
    real space projection operators read in
  non local Contribution for L=           1  read in
    real space projection operators read in
  non local Contribution for L=           1  read in
    real space projection operators read in
    PAW grid and wavefunctions read in
 
   number of l-projection  operators is LMAX  =           4
   number of lm-projection operators is LMMAX =           8
 
 POTCAR:    PAW_PBE F 08Apr2002                   
   VRHFIN =F: s2p5                                                              
   LEXCH  = PE                                                                  
   EATOM  =   659.6475 eV,   48.4827 Ry                                         
                                                                                
   TITEL  = PAW_PBE F 08Apr2002                                                 
   LULTRA =        F    use ultrasoft PP ?                                      
   IUNSCR =        1    unscreen: 0-lin 1-nonlin 2-no                           
   RPACOR =    1.200    partial core radius                                     
   POMASS =   18.998; ZVAL   =    7.000    mass and valenz                      
   RCORE  =    1.520    outmost cutoff radius                                   
   RWIGS  =    1.500; RWIGS  =    0.794    wigner-seitz radius (au A)           
   ENMAX  =  400.000; ENMIN  =  300.000 eV                                      
   ICORE  =        2    local potential                                         
   LCOR   =        T    correct aug charges                                     
   LPAW   =        T    paw PP                                                  
   EAUG   =  613.614                                                            
   RMAX   =    1.555    core radius for proj-oper                               
   RAUG   =    1.300    factor for augmentation sphere                          
   RDEP   =    1.539    radius for radial grids                                 
   RDEPT  =    1.299    core radius for aug-charge                              
                                                                                
   Atomic configuration                                                         
    4 entries                                                                   
     n  l   j            E        occ.                                          
     1  0  0.50      -663.3661   2.0000                                         
     2  0  0.50       -29.8995   2.0000                                         
     2  1  0.50       -11.1114   5.0000                                         
     3  2  1.50       -10.8847   0.0000                                         
   Description                                                                  
     l       E           TYP  RCUT    TYP  RCUT                                 
     0    -29.8995018     23  1.200                                             
     0     -9.5240782     23  1.200                                             
     1    -11.1113914     23  1.520                                             
     1      1.3605826     23  1.520                                             
     2    -10.8846608      7  1.500                                             
  local pseudopotential read in
  partial core-charges read in
  partial kinetic energy density read in
  atomic valenz-charges read in
  non local Contribution for L=           0  read in
    real space projection operators read in
  non local Contribution for L=           0  read in
    real space projection operators read in
  non local Contribution for L=           1  read in
    real space projection operators read in
  non local Contribution for L=           1  read in
    real space projection operators read in
    PAW grid and wavefunctions read in
 
   number of l-projection  operators is LMAX  =           4
   number of lm-projection operators is LMMAX =           8
 
 POTCAR:    PAW_PBE O 08Apr2002                   
   VRHFIN =O: s2p4                                                              
   LEXCH  = PE                                                                  
   EATOM  =   432.3788 eV,   31.7789 Ry                                         
                                                                                
   TITEL  = PAW_PBE O 08Apr2002                                                 
   LULTRA =        F    use ultrasoft PP ?                                      
   IUNSCR =        1    unscreen: 0-lin 1-nonlin 2-no                           
   RPACOR =    1.200    partial core radius                                     
   POMASS =   16.000; ZVAL   =    6.000    mass and valenz                      
   RCORE  =    1.520    outmost cutoff radius                                   
   RWIGS  =    1.550; RWIGS  =    0.820    wigner-seitz radius (au A)           
   ENMAX  =  400.000; ENMIN  =  300.000 eV                                      
   ICORE  =        2    local potential                                         
   LCOR   =        T    correct aug charges                                     
   LPAW   =        T    paw PP                                                  
   EAUG   =  605.392                                                            
   DEXC   =    0.000                                                            
   RMAX   =    1.553    core radius for proj-oper                               
   RAUG   =    1.300    factor for augmentation sphere                          
   RDEP   =    1.550    radius for radial grids                                 
   RDEPT  =    1.329    core radius for aug-charge                              
                                                                                
   Atomic configuration                                                         
    4 entries                                                                   
     n  l   j            E        occ.                                          
     1  0  0.50      -514.6923   2.0000                                         
     2  0  0.50       -23.9615   2.0000                                         
     2  1  0.50        -9.0305   4.0000                                         
     3  2  1.50        -9.5241   0.0000                                         
   Description                                                                  
     l       E           TYP  RCUT    TYP  RCUT                                 
     0    -23.9615318     23  1.200                                             
     0     -9.5240782     23  1.200                                             
     1     -9.0304911     23  1.520                                             
     1      8.1634956     23  1.520                                             
     2     -9.5240782      7  1.500                                             
  local pseudopotential read in
  partial core-charges read in
  partial kinetic energy density read in
  kinetic energy density of atom read in
  atomic valenz-charges read in
  non local Contribution for L=           0  read in
    real space projection operators read in
  non local Contribution for L=           0  read in
    real space projection operators read in
  non local Contribution for L=           1  read in
    real space projection operators read in
  non local Contribution for L=           1  read in
    real space projection operators read in
    PAW grid and wavefunctions read in
 
   number of l-projection  operators is LMAX  =           4
   number of lm-projection operators is LMMAX =           8
 
 Optimization of the real space projectors (new method)

 maximal supplied QI-value         = 25.13
 optimisation between [QCUT,QGAM] = [ 11.81, 23.88] = [ 39.08,159.64] Ry 
 Optimized for a Real-space Cutoff    1.18 Angstroem

   l    n(q)    QCUT    max X(q) W(low)/X(q) W(high)/X(q)  e(spline) 
   0      8    11.813   115.676    0.10E-03    0.16E-03    0.35E-06
   0      8    11.813    87.132    0.10E-03    0.16E-03    0.35E-06
   1      8    11.813     4.429    0.16E-03    0.13E-04    0.22E-06
   1      8    11.813     2.733    0.13E-03    0.10E-04    0.18E-06
 Optimization of the real space projectors (new method)

 maximal supplied QI-value         = 24.76
 optimisation between [QCUT,QGAM] = [ 11.88, 24.01] = [ 39.54,161.47] Ry 
 Optimized for a Real-space Cutoff    1.18 Angstroem

   l    n(q)    QCUT    max X(q) W(low)/X(q) W(high)/X(q)  e(spline) 
   0      8    11.883    14.049    0.56E-04    0.86E-04    0.22E-06
   0      8    11.883     8.945    0.81E-04    0.11E-03    0.30E-06
   1      8    11.883     7.086    0.16E-03    0.15E-04    0.31E-06
   1      8    11.883     6.747    0.15E-03    0.14E-04    0.28E-06
 Optimization of the real space projectors (new method)

 maximal supplied QI-value         = 24.76
 optimisation between [QCUT,QGAM] = [ 11.88, 24.01] = [ 39.54,161.47] Ry 
 Optimized for a Real-space Cutoff    1.18 Angstroem

   l    n(q)    QCUT    max X(q) W(low)/X(q) W(high)/X(q)  e(spline) 
   0      8    11.883    20.381    0.86E-04    0.11E-03    0.31E-06
   0      8    11.883    15.268    0.94E-04    0.12E-03    0.33E-06
   1      8    11.883     5.964    0.19E-03    0.18E-04    0.33E-06
   1      8    11.883     5.382    0.17E-03    0.20E-04    0.29E-06
  PAW_PBE C 08Apr2002                   :
 energy of atom  1       EATOM= -147.1560
 kinetic energy error for atom=    0.0066 (will be added to EATOM!!)
  PAW_PBE F 08Apr2002                   :
 energy of atom  2       EATOM= -659.6475
 kinetic energy error for atom=    0.0296 (will be added to EATOM!!)
  PAW_PBE O 08Apr2002                   :
 energy of atom  3       EATOM= -432.3788
 kinetic energy error for atom=    0.0194 (will be added to EATOM!!)
 
 
 POSCAR: C F O                                   
  positions in direct lattice
  velocities in cartesian coordinates

 METAGGA = SCAN     LMAXTAU =  6    LMIXTAU =  F

 exchange correlation table for  LEXCH =        8
   RHO(1)=    0.500       N(1)  =     2000
   RHO(2)=  100.500       N(2)  =     4000
 


--------------------------------------------------------------------------------------------------------


 ion  position               nearest neighbor table
   1  0.511  0.478  0.550-   4 1.34   6 1.35   5 1.35   2 1.53
   2  0.490  0.479  0.476-   8 1.37   7 1.37   1 1.53   3 1.56
   3  0.514  0.542  0.437-  10 1.24   9 1.25   2 1.56
   4  0.578  0.479  0.556-   1 1.34
   5  0.488  0.422  0.581-   1 1.35
   6  0.485  0.531  0.582-   1 1.35
   7  0.515  0.421  0.448-   2 1.37
   8  0.422  0.473  0.475-   2 1.37
   9  0.572  0.538  0.415-   3 1.25
  10  0.473  0.589  0.435-   3 1.24
 
  LATTYP: Found a simple cubic cell.
 ALAT       =    20.0000000000
  
  Lattice vectors:
  
 A1 = (  20.0000000000,   0.0000000000,   0.0000000000)
 A2 = (   0.0000000000,  20.0000000000,   0.0000000000)
 A3 = (   0.0000000000,   0.0000000000,  20.0000000000)


Analysis of symmetry for initial positions (statically):
=====================================================================
 Subroutine PRICEL returns:
 Original cell was already a primitive cell.
 

 Routine SETGRP: Setting up the symmetry group for a 
 simple cubic supercell.


 Subroutine GETGRP returns: Found  1 space group operations
 (whereof  1 operations were pure point group operations)
 out of a pool of 48 trial point group operations.


The static configuration has the point symmetry C_1 .


Analysis of symmetry for dynamics (positions and initial velocities):
=====================================================================
 Subroutine PRICEL returns:
 Original cell was already a primitive cell.
 

 Routine SETGRP: Setting up the symmetry group for a 
 simple cubic supercell.


 Subroutine GETGRP returns: Found  1 space group operations
 (whereof  1 operations were pure point group operations)
 out of a pool of 48 trial point group operations.


The dynamic configuration has the point symmetry C_1 .


Analysis of constrained symmetry for selective dynamics:
=====================================================================
 Subroutine PRICEL returns:
 Original cell was already a primitive cell.
 

 Routine SETGRP: Setting up the symmetry group for a 
 simple cubic supercell.


 Subroutine GETGRP returns: Found  1 space group operations
 (whereof  1 operations were pure point group operations)
 out of a pool of 48 trial point group operations.


The constrained configuration has the point symmetry C_1 .


Analysis of structural, dynamic, and magnetic symmetry:
=====================================================================
 Subroutine PRICEL returns:
 Original cell was already a primitive cell.
 

 Routine SETGRP: Setting up the symmetry group for a 
 simple cubic supercell.


 Subroutine GETGRP returns: Found  1 space group operations
 (whereof  1 operations were pure point group operations)
 out of a pool of 48 trial point group operations.


The magnetic configuration has the point symmetry C_1 .


 Subroutine INISYM returns: Found  1 space group operations
 (whereof  1 operations are pure point group operations),
 and found     1 'primitive' translations

 
 
 KPOINTS: K-Point Grid                            

Automatic generation of k-mesh.
Space group operators:
 irot       det(A)        alpha          n_x          n_y          n_z        tau_x        tau_y        tau_z
    1     1.000000     0.000000     1.000000     0.000000     0.000000     0.000000     0.000000     0.000000
 
 Subroutine IBZKPT returns following result:
 ===========================================
 
 Found      1 irreducible k-points:
 
 Following reciprocal coordinates:
            Coordinates               Weight
  0.000000  0.000000  0.000000      1.000000
 
 Following cartesian coordinates:
            Coordinates               Weight
  0.000000  0.000000  0.000000      1.000000
 


--------------------------------------------------------------------------------------------------------




 Dimension of arrays:
   k-points           NKPTS =      1   k-points in BZ     NKDIM =      1   number of bands    NBANDS=     40
   number of dos      NEDOS =   1200   number of ions     NIONS =     10
   non local maximal  LDIM  =      4   non local SUM 2l+1 LMDIM =      8
   total plane-waves  NPLWV = ******
   max r-space proj   IRMAX =   3549   max aug-charges    IRDMAX=   6841
   dimension x,y,z NGX =   160 NGY =  160 NGZ =  160
   dimension x,y,z NGXF=   320 NGYF=  320 NGZF=  320
   support grid    NGXF=   320 NGYF=  320 NGZF=  320
   ions per type =               3   5   2
   NGX,Y,Z   is equivalent  to a cutoff of  13.30, 13.30, 13.30 a.u.
   NGXF,Y,Z  is equivalent  to a cutoff of  26.60, 26.60, 26.60 a.u.

 SYSTEM =  SiC                                     
 POSCAR =  C F O                                   

 Startparameter for this run:
   NWRITE =      2    write-flag & timer
   PREC   = accura    normal or accurate (medium, high low for compatibility)
   ISTART =      1    job   : 0-new  1-cont  2-samecut
   ICHARG =      0    charge: 1-file 2-atom 10-const
   ISPIN  =      2    spin polarized calculation?
   LNONCOLLINEAR =      F non collinear calculations
   LSORBIT =      F    spin-orbit coupling
   INIWAV =      1    electr: 0-lowe 1-rand  2-diag
   LASPH  =      T    aspherical Exc in radial PAW
   METAGGA=      F    non-selfconsistent MetaGGA calc.

 Electronic Relaxation 1
   ENCUT  =  550.0 eV  40.42 Ry    6.36 a.u.  38.24 38.24 38.24*2*pi/ulx,y,z
   ENINI  =  550.0     initial cutoff
   ENAUG  =  644.9 eV  augmentation charge cutoff
   NELM   =    100;   NELMIN=  2; NELMDL=  0     # of ELM steps 
   EDIFF  = 0.1E-04   stopping-criterion for ELM
   LREAL  =      T    real-space projection
   NLSPLINE    = F    spline interpolate recip. space projectors
   LCOMPAT=      F    compatible to vasp.4.4
   GGA_COMPAT  = T    GGA compatible to vasp.4.4-vasp.4.6
   LMAXPAW     = -100 max onsite density
   LMAXMIX     =    2 max onsite mixed and CHGCAR
   VOSKOWN=      0    Vosko Wilk Nusair interpolation
   ROPT   =   -0.00025  -0.00025  -0.00025
 Ionic relaxation
   EDIFFG = -.2E-01   stopping-criterion for IOM
   NSW    =      0    number of steps for IOM
   NBLOCK =      1;   KBLOCK =      1    inner block; outer block 
   IBRION =     -1    ionic relax: 0-MD 1-quasi-New 2-CG
   NFREE  =      1    steps in history (QN), initial steepest desc. (CG)
   ISIF   =      2    stress and relaxation
   IWAVPR =     10    prediction:  0-non 1-charg 2-wave 3-comb
   ISYM   =      2    0-nonsym 1-usesym 2-fastsym
   LCORR  =      T    Harris-Foulkes like correction to forces

   POTIM  = 0.5000    time-step for ionic-motion
   TEIN   =    0.0    initial temperature
   TEBEG  =    0.0;   TEEND  =   0.0 temperature during run
   SMASS  =  -3.00    Nose mass-parameter (am)
   estimated Nose-frequenzy (Omega)   =  0.10E-29 period in steps =****** mass=  -0.914E-26a.u.
   SCALEE = 1.0000    scale energy and forces
   NPACO  =    256;   APACO  = 16.0  distance and # of slots for P.C.
   PSTRESS=    0.0 pullay stress

  Mass of Ions in am
   POMASS =  12.01 19.00 16.00
  Ionic Valenz
   ZVAL   =   4.00  7.00  6.00
  Atomic Wigner-Seitz radii
   RWIGS  =  -1.00 -1.00 -1.00
  virtual crystal weights 
   VCA    =   1.00  1.00  1.00
   NELECT =      59.0000    total number of electrons
   NUPDOWN=      -1.0000    fix difference up-down

 DOS related values:
   EMIN   =  10.00;   EMAX   =-10.00  energy-range for DOS
   EFERMI =   0.00
   ISMEAR =     0;   SIGMA  =   0.01  broadening in eV -4-tet -1-fermi 0-gaus

 Electronic relaxation 2 (details)
   IALGO  =     68    algorithm
   LDIAG  =      T    sub-space diagonalisation (order eigenvalues)
   LSUBROT=      F    optimize rotation matrix (better conditioning)
   TURBO    =      0    0=normal 1=particle mesh
   IRESTART =      0    0=no restart 2=restart with 2 vectors
   NREBOOT  =      0    no. of reboots
   NMIN     =      0    reboot dimension
   EREF     =   0.00    reference energy to select bands
   IMIX   =      4    mixing-type and parameters
     AMIX     =   0.40;   BMIX     =  1.00
     AMIX_MAG =   1.60;   BMIX_MAG =  1.00
     AMIN     =   0.10
     WC   =   100.;   INIMIX=   1;  MIXPRE=   1;  MAXMIX= -45

 Intra band minimization:
   WEIMIN = 0.0000     energy-eigenvalue tresh-hold
   EBREAK =  0.63E-07  absolut break condition
   DEPER  =   0.30     relativ break condition  

   TIME   =   0.40     timestep for ELM

  volume/ion in A,a.u.               =     800.00      5398.67
  Fermi-wavevector in a.u.,A,eV,Ry     =   0.318661  0.602182  1.381601  0.101545
  Thomas-Fermi vector in A             =   1.203700
 
 Write flags
   LWAVE        =      T    write WAVECAR
   LDOWNSAMPLE  =      F    k-point downsampling of WAVECAR
   LCHARG       =      F    write CHGCAR
   LVTOT        =      F    write LOCPOT, total local potential
   LVHAR        =      F    write LOCPOT, Hartree potential only
   LELF         =      F    write electronic localiz. function (ELF)
   LORBIT       =     11    0 simple, 1 ext, 2 COOP (PROOUT), +10 PAW based schemes


 Dipole corrections
   LMONO  =      F    monopole corrections only (constant potential shift)
   LDIPOL =      F    correct potential (dipole corrections)
   IDIPOL =      0    1-x, 2-y, 3-z, 4-all directions 
   EPSILON=  1.0000000 bulk dielectric constant

 Exchange correlation treatment:
   GGA     =    --    GGA type
   LEXCH   =     8    internal setting for exchange type
   VOSKOWN=      0    Vosko Wilk Nusair interpolation
   LHFCALC =     F    Hartree Fock is set to
   LHFONE  =     F    Hartree Fock one center treatment
   AEXX    =    0.0000 exact exchange contribution

 Linear response parameters
   LEPSILON=     F    determine dielectric tensor
   LRPA    =     F    only Hartree local field effects (RPA)
   LNABLA  =     F    use nabla operator in PAW spheres
   LVEL    =     F    velocity operator in full k-point grid
   LINTERFAST=   F  fast interpolation
   KINTER  =     0    interpolate to denser k-point grid
   CSHIFT  =0.1000    complex shift for real part using Kramers Kronig
   OMEGAMAX=  -1.0    maximum frequency
   DEG_THRESHOLD= 0.2000000E-02 threshold for treating states as degnerate
   RTIME   =   -0.100 relaxation time in fs
  (WPLASMAI=    0.000 imaginary part of plasma frequency in eV, 0.658/RTIME)
   DFIELD  = 0.0000000 0.0000000 0.0000000 field for delta impulse in time
 
 Orbital magnetization related:
   ORBITALMAG=     F  switch on orbital magnetization
   LCHIMAG   =     F  perturbation theory with respect to B field
   DQ        =  0.001000  dq finite difference perturbation B field
   LLRAUG    =     F  two centre corrections for induced B field

 Solvation model:
   LSOL    =     T         switch on solvation model
   EB_K    = 78.400000     relative permittivity of the bulk solvent
   SIGMA_K =  0.600000     width of the dielectric cavity
   NC_K    =  0.002500     cutoff charge density
   TAU     =  0.000000     cavity surface tension
   LAMBDA_D_K    =  3.040000     Debye length in Angstroms
   LRHOB     =     F     write boundcharge  density
   LRHOION     =     F     write ioniccharge density



--------------------------------------------------------------------------------------------------------


 Static calculation
 charge density and potential will be updated during run
 spin polarized calculation
 RMM-DIIS sequential band-by-band and
  variant of blocked Davidson during initial phase
 perform sub-space diagonalisation
    before iterative eigenvector-optimisation
 modified Broyden-mixing scheme, WC =      100.0
 initial mixing is a Kerker type mixing with AMIX =  0.4000 and BMIX =      1.0000
 Hartree-type preconditioning will be used
 using additional bands           10
 real space projection scheme for non local part
 use partial core corrections
 calculate Harris-corrections to forces 
   (improved forces if not selfconsistent)
 use gradient corrections 
 use of overlap-Matrix (Vanderbilt PP)
 Gauss-broadening in eV      SIGMA  =   0.01


--------------------------------------------------------------------------------------------------------


  energy-cutoff  :      550.00
  volume of cell :     8000.00
      direct lattice vectors                 reciprocal lattice vectors
    20.000000000  0.000000000  0.000000000     0.050000000  0.000000000  0.000000000
     0.000000000 20.000000000  0.000000000     0.000000000  0.050000000  0.000000000
     0.000000000  0.000000000 20.000000000     0.000000000  0.000000000  0.050000000

  length of vectors
    20.000000000 20.000000000 20.000000000     0.050000000  0.050000000  0.050000000


 
 old parameters found on file WAVECAR:
  energy-cutoff  :      550.00
  volume of cell :     8000.00
      direct lattice vectors                 reciprocal lattice vectors
    20.000000000  0.000000000  0.000000000     0.050000000  0.000000000  0.000000000
     0.000000000 20.000000000  0.000000000     0.000000000  0.050000000  0.000000000
     0.000000000  0.000000000 20.000000000     0.000000000  0.000000000  0.050000000

  length of vectors

 
 k-points in units of 2pi/SCALE and weight: K-Point Grid                            
   0.00000000  0.00000000  0.00000000       1.000
 
 k-points in reciprocal lattice and weights: K-Point Grid                            
   0.00000000  0.00000000  0.00000000       1.000
 
 position of ions in fractional coordinates (direct lattice) 
   0.51074066  0.47776092  0.54984721
   0.49007581  0.47886231  0.47601279
   0.51407995  0.54236905  0.43737931
   0.57759624  0.47932060  0.55638016
   0.48838658  0.42204076  0.58054095
   0.48510920  0.53078815  0.58238131
   0.51506754  0.42142338  0.44811717
   0.42183982  0.47255403  0.47532305
   0.57219062  0.53826826  0.41538311
   0.47261358  0.58871685  0.43496401
 
 position of ions in cartesian coordinates  (Angst):
  10.21481320  9.55521832 10.99694427
   9.80151620  9.57724611  9.52025585
  10.28159900 10.84738109  8.74758622
  11.55192473  9.58641206 11.12760319
   9.76773156  8.44081524 11.61081896
   9.70218408 10.61576295 11.64762616
  10.30135088  8.42846753  8.96234348
   8.43679633  9.45108067  9.50646106
  11.44381239 10.76536525  8.30766228
   9.45227164 11.77433708  8.69928019
 


--------------------------------------------------------------------------------------------------------


 k-point  1 :   0.0000 0.0000 0.0000  plane waves:  234345

 maximum and minimum number of plane-waves per node :      9775     9757

 maximum number of plane-waves:    234345
 maximum index in each direction: 
   IXMAX=   38   IYMAX=   38   IZMAX=   38
   IXMIN=  -38   IYMIN=  -38   IZMIN=  -38


 real space projection operators:
  total allocation   :       2121.69 KBytes
  max/ min on nodes  :        111.00         56.75


 parallel 3D FFT for wavefunctions:
    minimum data exchange during FFTs selected (reduces bandwidth)
 parallel 3D FFT for charge:
    minimum data exchange during FFTs selected (reduces bandwidth)


 total amount of memory used by VASP MPI-rank0   121024. kBytes
=======================================================================

   base      :      30000. kBytes
   nonlr-proj:        703. kBytes
   fftplans  :      18522. kBytes
   grid      :      68663. kBytes
   one-center:          6. kBytes
   wavefun   :       3130. kBytes
 
     INWAV:  cpu time    1.2696: real time    1.3220
 Broyden mixing: mesh for mixing (old mesh)
   NGX = 77   NGY = 77   NGZ = 77
  (NGX  =320   NGY  =320   NGZ  =320)
  gives a total of 456533 points

 charge density for first step will be calculated from the start-wavefunctions


--------------------------------------------------------------------------------------------------------


 Maximum index for non-local projection operator          231
 Maximum index for augmentation-charges          252 (set IRDMAX)


--------------------------------------------------------------------------------------------------------


 initial charge from wavefunction
 First call to EWALD:  gamma=   0.089
 Maximum number of real-space cells 3x 3x 3
 Maximum number of reciprocal cells 3x 3x 3

    FEWALD:  cpu time    0.0073: real time    0.0049


--------------------------------------- Iteration      1(   1)  ---------------------------------------


    POTLOK:  cpu time   28.3704: real time   32.8774
    SETDIJ:  cpu time    0.4656: real time    0.4697
     EDDAV:  cpu time   11.2674: real time    5.6860
       DOS:  cpu time    0.0191: real time    0.0167
    CHARGE:  cpu time    1.9234: real time    1.2968
    MIXING:  cpu time    0.0766: real time    0.0438
    --------------------------------------------
      LOOP:  cpu time   42.1227: real time   40.3906

 eigenvalue-minimisations  :   152
 total energy-change (2. order) :-0.7329477E+02  (-0.5132006E-06)
 number of electron      59.0000004 magnetization      -0.0001053
 augmentation part        7.7118200 magnetization       0.0004808

 Broyden mixing:
  rms(total) = 0.52566E+00    rms(broyden)= 0.52501E+00
  rms(prec ) = 0.62449E+00
  weight for this iteration     100.00

 Free energy of the ion-electron system (eV)
  ---------------------------------------------------
  alpha Z        PSCENC =         1.72117159
  Ewald energy   TEWEN  =      5730.77160818
  -Hartree energ DENC   =     -9867.04428440
  -exchange      EXHF   =         0.00000000
  -V(xc)+E(xc)   XCENC  =       345.15085427
  PAW double counting   =      5428.68981940    -5468.79453711
  entropy T*S    EENTRO =        -0.00564189
  eigenvalues    EBANDS =      -986.99772004
  atomic energy  EATOM  =      4604.25636981
  Solvation  Ediel_sol  =       138.95759096
  ---------------------------------------------------
  free energy    TOTEN  =       -73.29476924 eV

  energy without entropy =      -73.28912735  energy(sigma->0) =      -73.29194829


--------------------------------------------------------------------------------------------------------




--------------------------------------- Iteration      1(   2)  ---------------------------------------


    POTLOK:  cpu time   25.8673: real time   25.7454
    SETDIJ:  cpu time    0.4538: real time    0.4592
    EDDIAG:  cpu time    2.3117: real time    1.6651
  RMM-DIIS:  cpu time   17.9879: real time    9.4974
    ORTHCH:  cpu time    0.0296: real time    0.0151
       DOS:  cpu time    0.0011: real time    0.0006
    CHARGE:  cpu time    1.9024: real time    1.2763
    MIXING:  cpu time    0.0412: real time    0.0218
    --------------------------------------------
      LOOP:  cpu time   48.5950: real time   38.6809

 eigenvalue-minimisations  :   193
 total energy-change (2. order) : 0.8865303E+00  (-0.2458818E+00)
 number of electron      59.0000004 magnetization      -0.0037706
 augmentation part        7.8092027 magnetization       0.0259829

 Broyden mixing:
  rms(total) = 0.32631E+00    rms(broyden)= 0.32564E+00
  rms(prec ) = 0.39972E+00
  weight for this iteration     100.00

 eigenvalues of (default mixing * dielectric matrix)
  average eigenvalue GAMMA=   0.6667
  0.6667

 Free energy of the ion-electron system (eV)
  ---------------------------------------------------
  alpha Z        PSCENC =         1.72117159
  Ewald energy   TEWEN  =      5730.77160818
  -Hartree energ DENC   =     -9822.32342046
  -exchange      EXHF   =         0.00000000
  -V(xc)+E(xc)   XCENC  =       343.00659296
  PAW double counting   =      5372.28423790    -5412.17072800
  entropy T*S    EENTRO =        -0.00563600
  eigenvalues    EBANDS =     -1015.28865910
  atomic energy  EATOM  =      4604.25636981
  Solvation  Ediel_sol  =       125.34022424
  ---------------------------------------------------
  free energy    TOTEN  =       -72.40823889 eV

  energy without entropy =      -72.40260289  energy(sigma->0) =      -72.40542089


--------------------------------------------------------------------------------------------------------




--------------------------------------- Iteration      1(   3)  ---------------------------------------


    POTLOK:  cpu time   25.4466: real time   25.2993
    SETDIJ:  cpu time    0.4543: real time    0.4543
    EDDIAG:  cpu time    1.9130: real time    1.3829
  RMM-DIIS:  cpu time   17.9959: real time    9.4420
    ORTHCH:  cpu time    0.0323: real time    0.0165
       DOS:  cpu time    0.0012: real time    0.0006
    CHARGE:  cpu time    1.9090: real time    1.2814
    MIXING:  cpu time    0.0449: real time    0.0225
    --------------------------------------------
      LOOP:  cpu time   47.7972: real time   37.8996

 eigenvalue-minimisations  :   199
 total energy-change (2. order) : 0.2508148E+00  (-0.3119861E-01)
 number of electron      59.0000004 magnetization      -0.0213259
 augmentation part        7.7994555 magnetization       0.7390404

 Broyden mixing:
  rms(total) = 0.59941E+00    rms(broyden)= 0.59877E+00
  rms(prec ) = 0.64627E+00
  weight for this iteration     100.00

 eigenvalues of (default mixing * dielectric matrix)
  average eigenvalue GAMMA=   0.3475
  0.6644  0.0307

 Free energy of the ion-electron system (eV)
  ---------------------------------------------------
  alpha Z        PSCENC =         1.72117159
  Ewald energy   TEWEN  =      5730.77160818
  -Hartree energ DENC   =     -9801.04780476
  -exchange      EXHF   =         0.00000000
  -V(xc)+E(xc)   XCENC  =       343.19062986
  PAW double counting   =      5353.26332620    -5393.07265864
  entropy T*S    EENTRO =        -0.00095480
  eigenvalues    EBANDS =     -1027.22921592
  atomic energy  EATOM  =      4604.25636981
  Solvation  Ediel_sol  =       115.99010444
  ---------------------------------------------------
  free energy    TOTEN  =       -72.15742404 eV

  energy without entropy =      -72.15646924  energy(sigma->0) =      -72.15694664


--------------------------------------------------------------------------------------------------------




--------------------------------------- Iteration      1(   4)  ---------------------------------------


    POTLOK:  cpu time   24.4982: real time   24.3504
    SETDIJ:  cpu time    0.4542: real time    0.4541
    EDDIAG:  cpu time    1.8771: real time    1.3630
  RMM-DIIS:  cpu time   17.5659: real time    9.1439
    ORTHCH:  cpu time    0.0299: real time    0.0153
       DOS:  cpu time    0.0009: real time    0.0004
    CHARGE:  cpu time    1.8983: real time    1.2739
    MIXING:  cpu time    0.0392: real time    0.0196
    --------------------------------------------
      LOOP:  cpu time   46.3637: real time   36.6206

 eigenvalue-minimisations  :   195
 total energy-change (2. order) :-0.1283643E+00  (-0.1727109E-01)
 number of electron      59.0000004 magnetization      -0.1716885
 augmentation part        7.7995603 magnetization       0.6274177

 Broyden mixing:
  rms(total) = 0.55287E+00    rms(broyden)= 0.55283E+00
  rms(prec ) = 0.59831E+00
  weight for this iteration     100.00

 eigenvalues of (default mixing * dielectric matrix)
  average eigenvalue GAMMA=   0.4874
  0.6506  0.4058  0.4058

 Free energy of the ion-electron system (eV)
  ---------------------------------------------------
  alpha Z        PSCENC =         1.72117159
  Ewald energy   TEWEN  =      5730.77160818
  -Hartree energ DENC   =     -9797.75094652
  -exchange      EXHF   =         0.00000000
  -V(xc)+E(xc)   XCENC  =       343.04355763
  PAW double counting   =      5350.54548641    -5390.34411052
  entropy T*S    EENTRO =        -0.00000000
  eigenvalues    EBANDS =     -1028.83117193
  atomic energy  EATOM  =      4604.25636981
  Solvation  Ediel_sol  =       114.30224700
  ---------------------------------------------------
  free energy    TOTEN  =       -72.28578835 eV

  energy without entropy =      -72.28578835  energy(sigma->0) =      -72.28578835


--------------------------------------------------------------------------------------------------------




--------------------------------------- Iteration      1(   5)  ---------------------------------------


    POTLOK:  cpu time   25.2098: real time   25.0556
    SETDIJ:  cpu time    0.4534: real time    0.4534
    EDDIAG:  cpu time    1.8745: real time    1.3595
  RMM-DIIS:  cpu time   17.8351: real time    9.2797
    ORTHCH:  cpu time    0.0311: real time    0.0166
       DOS:  cpu time    0.0008: real time    0.0004
    CHARGE:  cpu time    1.9164: real time    1.2908
    MIXING:  cpu time    0.0400: real time    0.0200
    --------------------------------------------
      LOOP:  cpu time   47.3610: real time   37.4759

 eigenvalue-minimisations  :   194
 total energy-change (2. order) :-0.7913333E-01  (-0.7341458E-01)
 number of electron      59.0000004 magnetization      -0.2647710
 augmentation part        7.8098196 magnetization       0.5161478

 Broyden mixing:
  rms(total) = 0.26437E+00    rms(broyden)= 0.26381E+00
  rms(prec ) = 0.31144E+00
  weight for this iteration     100.00

 eigenvalues of (default mixing * dielectric matrix)
  average eigenvalue GAMMA=   0.5019
  0.5513  0.5513  0.6232  0.2817

 Free energy of the ion-electron system (eV)
  ---------------------------------------------------
  alpha Z        PSCENC =         1.72117159
  Ewald energy   TEWEN  =      5730.77160818
  -Hartree energ DENC   =     -9780.49750067
  -exchange      EXHF   =         0.00000000
  -V(xc)+E(xc)   XCENC  =       342.86926161
  PAW double counting   =      5345.03910363    -5384.82948830
  entropy T*S    EENTRO =        -0.00000000
  eigenvalues    EBANDS =     -1035.36541041
  atomic energy  EATOM  =      4604.25636981
  Solvation  Ediel_sol  =       103.66996288
  ---------------------------------------------------
  free energy    TOTEN  =       -72.36492169 eV

  energy without entropy =      -72.36492169  energy(sigma->0) =      -72.36492169


--------------------------------------------------------------------------------------------------------




--------------------------------------- Iteration      1(   6)  ---------------------------------------


    POTLOK:  cpu time   24.9972: real time   24.8438
    SETDIJ:  cpu time    0.4543: real time    0.4542
    EDDIAG:  cpu time    1.8741: real time    1.3594
  RMM-DIIS:  cpu time   17.5648: real time    9.1461
    ORTHCH:  cpu time    0.0303: real time    0.0154
       DOS:  cpu time    0.0009: real time    0.0005
    CHARGE:  cpu time    1.9215: real time    1.2909
    MIXING:  cpu time    0.0420: real time    0.0210
    --------------------------------------------
      LOOP:  cpu time   46.8851: real time   37.1313

 eigenvalue-minimisations  :   193
 total energy-change (2. order) :-0.1175381E+00  (-0.2815779E-01)
 number of electron      59.0000004 magnetization      -0.5215189
 augmentation part        7.8098006 magnetization       0.2508065

 Broyden mixing:
  rms(total) = 0.21243E+00    rms(broyden)= 0.21239E+00
  rms(prec ) = 0.26183E+00
  weight for this iteration     100.00

 eigenvalues of (default mixing * dielectric matrix)
  average eigenvalue GAMMA=   0.7998
  1.0783  1.0783  0.6309  0.6309  0.5805

 Free energy of the ion-electron system (eV)
  ---------------------------------------------------
  alpha Z        PSCENC =         1.72117159
  Ewald energy   TEWEN  =      5730.77160818
  -Hartree energ DENC   =     -9767.06361195
  -exchange      EXHF   =         0.00000000
  -V(xc)+E(xc)   XCENC  =       342.48117015
  PAW double counting   =      5337.69523148    -5377.50863142
  entropy T*S    EENTRO =        -0.00000000
  eigenvalues    EBANDS =     -1040.80275847
  atomic energy  EATOM  =      4604.25636981
  Solvation  Ediel_sol  =        95.96699083
  ---------------------------------------------------
  free energy    TOTEN  =       -72.48245981 eV

  energy without entropy =      -72.48245981  energy(sigma->0) =      -72.48245981


--------------------------------------------------------------------------------------------------------




--------------------------------------- Iteration      1(   7)  ---------------------------------------


    POTLOK:  cpu time   25.8459: real time   25.7135
    SETDIJ:  cpu time    0.4538: real time    0.4537
    EDDIAG:  cpu time    1.8720: real time    1.3576
  RMM-DIIS:  cpu time   17.9933: real time    9.4311
    ORTHCH:  cpu time    0.0301: real time    0.0153
       DOS:  cpu time    0.0008: real time    0.0004
    CHARGE:  cpu time    1.9254: real time    1.2919
    MIXING:  cpu time    0.0411: real time    0.0206
    --------------------------------------------
      LOOP:  cpu time   48.1625: real time   38.2841

 eigenvalue-minimisations  :   197
 total energy-change (2. order) :-0.2210511E+00  (-0.3954428E-01)
 number of electron      59.0000004 magnetization      -0.5338240
 augmentation part        7.8041929 magnetization       0.2296353

 Broyden mixing:
  rms(total) = 0.29483E+00    rms(broyden)= 0.29424E+00
  rms(prec ) = 0.32368E+00
  weight for this iteration     100.00

 eigenvalues of (default mixing * dielectric matrix)
  average eigenvalue GAMMA=   0.7490
  1.1380  1.1380  0.5585  0.5585  0.5506  0.5506

 Free energy of the ion-electron system (eV)
  ---------------------------------------------------
  alpha Z        PSCENC =         1.72117159
  Ewald energy   TEWEN  =      5730.77160818
  -Hartree energ DENC   =     -9727.86468405
  -exchange      EXHF   =         0.00000000
  -V(xc)+E(xc)   XCENC  =       341.46943620
  PAW double counting   =      5318.53893471    -5358.38537236
  entropy T*S    EENTRO =        -0.00000000
  eigenvalues    EBANDS =     -1055.55307323
  atomic energy  EATOM  =      4604.25636981
  Solvation  Ediel_sol  =        72.34209829
  ---------------------------------------------------
  free energy    TOTEN  =       -72.70351087 eV

  energy without entropy =      -72.70351087  energy(sigma->0) =      -72.70351087


--------------------------------------------------------------------------------------------------------




--------------------------------------- Iteration      1(   8)  ---------------------------------------


    POTLOK:  cpu time   24.0371: real time   23.8879
    SETDIJ:  cpu time    0.4544: real time    0.4542
    EDDIAG:  cpu time    1.8782: real time    1.3636
  RMM-DIIS:  cpu time   17.9736: real time    9.4184
    ORTHCH:  cpu time    0.0308: real time    0.0157
       DOS:  cpu time    0.0008: real time    0.0004
    CHARGE:  cpu time    1.9119: real time    1.2802
    MIXING:  cpu time    0.0436: real time    0.0218
    --------------------------------------------
      LOOP:  cpu time   46.3304: real time   36.4422

 eigenvalue-minimisations  :   197
 total energy-change (2. order) : 0.1443931E-01  (-0.1439324E-01)
 number of electron      59.0000004 magnetization      -0.6967918
 augmentation part        7.8083359 magnetization       0.0712273

 Broyden mixing:
  rms(total) = 0.18797E+00    rms(broyden)= 0.18776E+00
  rms(prec ) = 0.21653E+00
  weight for this iteration     100.00

 eigenvalues of (default mixing * dielectric matrix)
  average eigenvalue GAMMA=   0.8440
  1.3578  1.3578  0.7562  0.7562  0.5647  0.5647  0.5507

 Free energy of the ion-electron system (eV)
  ---------------------------------------------------
  alpha Z        PSCENC =         1.72117159
  Ewald energy   TEWEN  =      5730.77160818
  -Hartree energ DENC   =     -9726.36338088
  -exchange      EXHF   =         0.00000000
  -V(xc)+E(xc)   XCENC  =       341.48807971
  PAW double counting   =      5321.02426354    -5360.86515081
  entropy T*S    EENTRO =        -0.00000000
  eigenvalues    EBANDS =     -1055.47305744
  atomic energy  EATOM  =      4604.25636981
  Solvation  Ediel_sol  =        70.75102475
  ---------------------------------------------------
  free energy    TOTEN  =       -72.68907155 eV

  energy without entropy =      -72.68907155  energy(sigma->0) =      -72.68907155


--------------------------------------------------------------------------------------------------------




--------------------------------------- Iteration      1(   9)  ---------------------------------------


    POTLOK:  cpu time   25.6798: real time   25.5531
    SETDIJ:  cpu time    0.4542: real time    0.4542
    EDDIAG:  cpu time    1.8713: real time    1.3572
  RMM-DIIS:  cpu time   19.6645: real time   10.2821
    ORTHCH:  cpu time    0.0304: real time    0.0155
       DOS:  cpu time    0.0008: real time    0.0004
    CHARGE:  cpu time    1.9290: real time    1.2965
    MIXING:  cpu time    0.0439: real time    0.0220
    --------------------------------------------
      LOOP:  cpu time   49.6740: real time   38.9810

 eigenvalue-minimisations  :   220
 total energy-change (2. order) : 0.3790623E-01  (-0.2278545E-01)
 number of electron      59.0000004 magnetization      -0.7676408
 augmentation part        7.8145932 magnetization       0.0137277

 Broyden mixing:
  rms(total) = 0.14710E+00    rms(broyden)= 0.14703E+00
  rms(prec ) = 0.17143E+00
  weight for this iteration     100.00

 eigenvalues of (default mixing * dielectric matrix)
  average eigenvalue GAMMA=   0.9261
  2.3714  1.0692  0.8673  0.8673  0.5400  0.5400  0.5766  0.5766

 Free energy of the ion-electron system (eV)
  ---------------------------------------------------
  alpha Z        PSCENC =         1.72117159
  Ewald energy   TEWEN  =      5730.77160818
  -Hartree energ DENC   =     -9697.23094517
  -exchange      EXHF   =         0.00000000
  -V(xc)+E(xc)   XCENC  =       341.02701604
  PAW double counting   =      5317.63795552    -5357.48771622
  entropy T*S    EENTRO =        -0.00000000
  eigenvalues    EBANDS =     -1062.85543189
  atomic energy  EATOM  =      4604.25636981
  Solvation  Ediel_sol  =        49.50880682
  ---------------------------------------------------
  free energy    TOTEN  =       -72.65116532 eV

  energy without entropy =      -72.65116532  energy(sigma->0) =      -72.65116532


--------------------------------------------------------------------------------------------------------




--------------------------------------- Iteration      1(  10)  ---------------------------------------


    POTLOK:  cpu time   24.5183: real time   24.3971
    SETDIJ:  cpu time    0.4833: real time    0.4854
    EDDIAG:  cpu time    2.0573: real time    1.4999
  RMM-DIIS:  cpu time   17.8419: real time    9.2807
    ORTHCH:  cpu time    0.0304: real time    0.0155
       DOS:  cpu time    0.0008: real time    0.0004
    CHARGE:  cpu time    1.9096: real time    1.2796
    MIXING:  cpu time    0.0431: real time    0.0215
    --------------------------------------------
      LOOP:  cpu time   46.8848: real time   36.9801

 eigenvalue-minimisations  :   194
 total energy-change (2. order) : 0.1422355E+00  (-0.7287080E-02)
 number of electron      59.0000004 magnetization      -0.8430233
 augmentation part        7.8144927 magnetization      -0.0606466

 Broyden mixing:
  rms(total) = 0.11728E+00    rms(broyden)= 0.11697E+00
  rms(prec ) = 0.13624E+00
  weight for this iteration     100.00

 eigenvalues of (default mixing * dielectric matrix)
  average eigenvalue GAMMA=   0.9666
  2.0452  2.0452  0.8730  0.8730  0.5280  0.5280  0.6201  0.6201  0.5669

 Free energy of the ion-electron system (eV)
  ---------------------------------------------------
  alpha Z        PSCENC =         1.72117159
  Ewald energy   TEWEN  =      5730.77160818
  -Hartree energ DENC   =     -9685.70455986
  -exchange      EXHF   =         0.00000000
  -V(xc)+E(xc)   XCENC  =       341.08116391
  PAW double counting   =      5317.92080944    -5357.78827078
  entropy T*S    EENTRO =        -0.00000000
  eigenvalues    EBANDS =     -1064.99715716
  atomic energy  EATOM  =      4604.25636981
  Solvation  Ediel_sol  =        40.22993500
  ---------------------------------------------------
  free energy    TOTEN  =       -72.50892987 eV

  energy without entropy =      -72.50892987  energy(sigma->0) =      -72.50892987


--------------------------------------------------------------------------------------------------------




--------------------------------------- Iteration      1(  11)  ---------------------------------------


    POTLOK:  cpu time   24.7389: real time   24.6178
    SETDIJ:  cpu time    0.4557: real time    0.4556
    EDDIAG:  cpu time    1.8705: real time    1.3570
  RMM-DIIS:  cpu time   18.7834: real time    9.8722
    ORTHCH:  cpu time    0.0302: real time    0.0155
       DOS:  cpu time    0.0012: real time    0.0006
    CHARGE:  cpu time    1.9185: real time    1.2876
    MIXING:  cpu time    0.0577: real time    0.0290
    --------------------------------------------
      LOOP:  cpu time   47.8561: real time   37.6352

 eigenvalue-minimisations  :   206
 total energy-change (2. order) : 0.1412576E+00  (-0.4690834E-02)
 number of electron      59.0000004 magnetization      -0.9613465
 augmentation part        7.8150447 magnetization      -0.1788826

 Broyden mixing:
  rms(total) = 0.52559E-01    rms(broyden)= 0.52551E-01
  rms(prec ) = 0.73578E-01
  weight for this iteration     100.00

 eigenvalues of (default mixing * dielectric matrix)
  average eigenvalue GAMMA=   1.0358
  2.4864  2.4864  0.9025  0.9025  0.5255  0.5255  0.6396  0.6396  0.6807  0.5698

 Free energy of the ion-electron system (eV)
  ---------------------------------------------------
  alpha Z        PSCENC =         1.72117159
  Ewald energy   TEWEN  =      5730.77160818
  -Hartree energ DENC   =     -9675.15566268
  -exchange      EXHF   =         0.00000000
  -V(xc)+E(xc)   XCENC  =       341.29099026
  PAW double counting   =      5327.68814302    -5367.56583741
  entropy T*S    EENTRO =        -0.00000000
  eigenvalues    EBANDS =     -1063.90984245
  atomic energy  EATOM  =      4604.25636981
  Solvation  Ediel_sol  =        28.53538741
  ---------------------------------------------------
  free energy    TOTEN  =       -72.36767227 eV

  energy without entropy =      -72.36767227  energy(sigma->0) =      -72.36767227


--------------------------------------------------------------------------------------------------------




--------------------------------------- Iteration      1(  12)  ---------------------------------------


    POTLOK:  cpu time   25.1706: real time   25.0437
    SETDIJ:  cpu time    0.4556: real time    0.4555
    EDDIAG:  cpu time    1.8720: real time    1.3581
  RMM-DIIS:  cpu time   18.6622: real time    9.7169
    ORTHCH:  cpu time    0.0302: real time    0.0154
       DOS:  cpu time    0.0009: real time    0.0004
    CHARGE:  cpu time    1.9086: real time    1.2777
    MIXING:  cpu time    0.0479: real time    0.0240
    --------------------------------------------
      LOOP:  cpu time   48.1480: real time   37.8916

 eigenvalue-minimisations  :   203
 total energy-change (2. order) : 0.3720234E-01  (-0.5478193E-02)
 number of electron      59.0000004 magnetization      -1.0161189
 augmentation part        7.8180242 magnetization      -0.2319973

 Broyden mixing:
  rms(total) = 0.32455E-01    rms(broyden)= 0.32435E-01
  rms(prec ) = 0.43310E-01
  weight for this iteration     100.00

 eigenvalues of (default mixing * dielectric matrix)
  average eigenvalue GAMMA=   1.1078
  2.9331  2.9331  0.9622  0.9622  0.5280  0.5280  0.8611  0.6655  0.6655  0.5734
  0.5734

 Free energy of the ion-electron system (eV)
  ---------------------------------------------------
  alpha Z        PSCENC =         1.72117159
  Ewald energy   TEWEN  =      5730.77160818
  -Hartree energ DENC   =     -9655.32848236
  -exchange      EXHF   =         0.00000000
  -V(xc)+E(xc)   XCENC  =       341.22578050
  PAW double counting   =      5337.95763791    -5377.85157309
  entropy T*S    EENTRO =        -0.00000000
  eigenvalues    EBANDS =     -1063.88551403
  atomic energy  EATOM  =      4604.25636981
  Solvation  Ediel_sol  =         8.80253155
  ---------------------------------------------------
  free energy    TOTEN  =       -72.33046994 eV

  energy without entropy =      -72.33046994  energy(sigma->0) =      -72.33046994


--------------------------------------------------------------------------------------------------------




--------------------------------------- Iteration      1(  13)  ---------------------------------------


    POTLOK:  cpu time   24.4963: real time   24.3528
    SETDIJ:  cpu time    0.4548: real time    0.4549
    EDDIAG:  cpu time    1.8715: real time    1.3571
  RMM-DIIS:  cpu time   19.1508: real time    9.9815
    ORTHCH:  cpu time    0.0305: real time    0.0155
       DOS:  cpu time    0.0008: real time    0.0004
    CHARGE:  cpu time    1.9266: real time    1.2955
    MIXING:  cpu time    0.0486: real time    0.0243
    --------------------------------------------
      LOOP:  cpu time   47.9800: real time   37.4820

 eigenvalue-minimisations  :   216
 total energy-change (2. order) : 0.1419203E-02  (-0.2318391E-02)
 number of electron      59.0000004 magnetization      -1.0202459
 augmentation part        7.8195403 magnetization      -0.2364243

 Broyden mixing:
  rms(total) = 0.52250E-01    rms(broyden)= 0.52146E-01
  rms(prec ) = 0.57685E-01
  weight for this iteration     100.00

 eigenvalues of (default mixing * dielectric matrix)
  average eigenvalue GAMMA=   1.0676
  2.9943  2.9943  0.9894  0.9894  0.5287  0.5287  0.8552  0.6671  0.6671  0.5567
  0.5567  0.4843

 Free energy of the ion-electron system (eV)
  ---------------------------------------------------
  alpha Z        PSCENC =         1.72117159
  Ewald energy   TEWEN  =      5730.77160818
  -Hartree energ DENC   =     -9644.56481817
  -exchange      EXHF   =         0.00000000
  -V(xc)+E(xc)   XCENC  =       341.17972817
  PAW double counting   =      5341.62058638    -5381.52536272
  entropy T*S    EENTRO =        -0.00000000
  eigenvalues    EBANDS =     -1064.01294425
  atomic energy  EATOM  =      4604.25636981
  Solvation  Ediel_sol  =        -1.77538972
  ---------------------------------------------------
  free energy    TOTEN  =       -72.32905073 eV

  energy without entropy =      -72.32905073  energy(sigma->0) =      -72.32905073


--------------------------------------------------------------------------------------------------------




--------------------------------------- Iteration      1(  14)  ---------------------------------------


    POTLOK:  cpu time   23.8073: real time   23.6679
    SETDIJ:  cpu time    0.4552: real time    0.4551
    EDDIAG:  cpu time    1.8731: real time    1.3587
  RMM-DIIS:  cpu time   20.6619: real time   10.5574
    ORTHCH:  cpu time    0.0301: real time    0.0153
       DOS:  cpu time    0.0008: real time    0.0004
    CHARGE:  cpu time    1.8982: real time    1.2734
    MIXING:  cpu time    0.0503: real time    0.0252
    --------------------------------------------
      LOOP:  cpu time   48.7769: real time   37.3534

 eigenvalue-minimisations  :   237
 total energy-change (2. order) : 0.1015942E-01  (-0.1092408E-02)
 number of electron      59.0000004 magnetization      -1.0308727
 augmentation part        7.8204648 magnetization      -0.2472684

 Broyden mixing:
  rms(total) = 0.46010E-01    rms(broyden)= 0.45992E-01
  rms(prec ) = 0.50510E-01
  weight for this iteration     100.00

 eigenvalues of (default mixing * dielectric matrix)
  average eigenvalue GAMMA=   1.2468
  3.3827  3.3827  1.5904  1.5904  0.9080  0.9080  0.5272  0.5272  0.8301  0.6780
  0.6780  0.6029  0.6029

 Free energy of the ion-electron system (eV)
  ---------------------------------------------------
  alpha Z        PSCENC =         1.72117159
  Ewald energy   TEWEN  =      5730.77160818
  -Hartree energ DENC   =     -9641.91574081
  -exchange      EXHF   =         0.00000000
  -V(xc)+E(xc)   XCENC  =       341.21301187
  PAW double counting   =      5342.88674411    -5382.79759278
  entropy T*S    EENTRO =        -0.00000000
  eigenvalues    EBANDS =     -1063.48044861
  atomic energy  EATOM  =      4604.25636981
  Solvation  Ediel_sol  =        -4.97401468
  ---------------------------------------------------
  free energy    TOTEN  =       -72.31889131 eV

  energy without entropy =      -72.31889131  energy(sigma->0) =      -72.31889131


--------------------------------------------------------------------------------------------------------




--------------------------------------- Iteration      1(  15)  ---------------------------------------


    POTLOK:  cpu time   24.3086: real time   24.1759
    SETDIJ:  cpu time    0.4552: real time    0.4552
    EDDIAG:  cpu time    1.8705: real time    1.3568
  RMM-DIIS:  cpu time   17.2942: real time    8.8673
    ORTHCH:  cpu time    0.0349: real time    0.0211
       DOS:  cpu time    0.0008: real time    0.0004
    CHARGE:  cpu time    1.9219: real time    1.2974
    MIXING:  cpu time    0.0531: real time    0.0265
    --------------------------------------------
      LOOP:  cpu time   45.9391: real time   36.2007

 eigenvalue-minimisations  :   188
 total energy-change (2. order) :-0.1295210E-01  (-0.1617401E-02)
 number of electron      59.0000004 magnetization      -1.0315789
 augmentation part        7.8211352 magnetization      -0.2492993

 Broyden mixing:
  rms(total) = 0.32888E-01    rms(broyden)= 0.32871E-01
  rms(prec ) = 0.35986E-01
  weight for this iteration     100.00

 eigenvalues of (default mixing * dielectric matrix)
  average eigenvalue GAMMA=   1.3923
  5.8187  2.9546  1.8066  1.8066  0.9392  0.9392  0.5273  0.5273  0.8993  0.7160
  0.7160  0.6366  0.6366  0.5690

 Free energy of the ion-electron system (eV)
  ---------------------------------------------------
  alpha Z        PSCENC =         1.72117159
  Ewald energy   TEWEN  =      5730.77160818
  -Hartree energ DENC   =     -9636.43367960
  -exchange      EXHF   =         0.00000000
  -V(xc)+E(xc)   XCENC  =       341.23623484
  PAW double counting   =      5344.21179426    -5384.12685320
  entropy T*S    EENTRO =        -0.00000000
  eigenvalues    EBANDS =     -1062.56213807
  atomic energy  EATOM  =      4604.25636981
  Solvation  Ediel_sol  =       -11.40635122
  ---------------------------------------------------
  free energy    TOTEN  =       -72.33184341 eV

  energy without entropy =      -72.33184341  energy(sigma->0) =      -72.33184341


--------------------------------------------------------------------------------------------------------




--------------------------------------- Iteration      1(  16)  ---------------------------------------


    POTLOK:  cpu time   22.4493: real time   22.3318
    SETDIJ:  cpu time    0.4535: real time    0.4535
    EDDIAG:  cpu time    1.8707: real time    1.3569
  RMM-DIIS:  cpu time   18.4277: real time    9.7102
    ORTHCH:  cpu time    0.0302: real time    0.0155
       DOS:  cpu time    0.0009: real time    0.0004
    CHARGE:  cpu time    1.9085: real time    1.2786
    MIXING:  cpu time    0.0588: real time    0.0294
    --------------------------------------------
      LOOP:  cpu time   45.1996: real time   35.1763

 eigenvalue-minimisations  :   201
 total energy-change (2. order) :-0.3338113E-02  (-0.5848687E-03)
 number of electron      59.0000004 magnetization      -1.0279462
 augmentation part        7.8224856 magnetization      -0.2457597

 Broyden mixing:
  rms(total) = 0.66721E-02    rms(broyden)= 0.66080E-02
  rms(prec ) = 0.87931E-02
  weight for this iteration     100.00

 eigenvalues of (default mixing * dielectric matrix)
  average eigenvalue GAMMA=   1.4030
  6.5121  2.6142  2.0139  2.0139  0.9522  0.9522  0.5273  0.5273  0.8422  0.8422
  0.6740  0.6740  0.6617  0.6617  0.5760

 Free energy of the ion-electron system (eV)
  ---------------------------------------------------
  alpha Z        PSCENC =         1.72117159
  Ewald energy   TEWEN  =      5730.77160818
  -Hartree energ DENC   =     -9635.04900772
  -exchange      EXHF   =         0.00000000
  -V(xc)+E(xc)   XCENC  =       341.22949922
  PAW double counting   =      5343.72159516    -5383.63409240
  entropy T*S    EENTRO =        -0.00000000
  eigenvalues    EBANDS =     -1062.53122968
  atomic energy  EATOM  =      4604.25636981
  Solvation  Ediel_sol  =       -12.82109568
  ---------------------------------------------------
  free energy    TOTEN  =       -72.33518152 eV

  energy without entropy =      -72.33518152  energy(sigma->0) =      -72.33518152


--------------------------------------------------------------------------------------------------------




--------------------------------------- Iteration      1(  17)  ---------------------------------------


    POTLOK:  cpu time   21.9742: real time   21.8538
    SETDIJ:  cpu time    0.4542: real time    0.4541
    EDDIAG:  cpu time    1.8715: real time    1.3577
  RMM-DIIS:  cpu time   17.8548: real time    9.2884
    ORTHCH:  cpu time    0.0298: real time    0.0152
       DOS:  cpu time    0.0008: real time    0.0004
    CHARGE:  cpu time    1.9279: real time    1.2961
    MIXING:  cpu time    0.0556: real time    0.0278
    --------------------------------------------
      LOOP:  cpu time   44.1688: real time   34.2936

 eigenvalue-minimisations  :   200
 total energy-change (2. order) :-0.2548704E-02  (-0.2511339E-03)
 number of electron      59.0000004 magnetization      -1.0223698
 augmentation part        7.8224800 magnetization      -0.2403573

 Broyden mixing:
  rms(total) = 0.11038E-01    rms(broyden)= 0.11035E-01
  rms(prec ) = 0.12332E-01
  weight for this iteration     100.00

 eigenvalues of (default mixing * dielectric matrix)
  average eigenvalue GAMMA=   1.4259
  7.1250  2.8000  2.0675  2.0675  0.9939  0.9939  0.5273  0.5273  0.8771  0.8771
  0.7081  0.7081  0.6766  0.6766  0.5731  0.6145

 Free energy of the ion-electron system (eV)
  ---------------------------------------------------
  alpha Z        PSCENC =         1.72117159
  Ewald energy   TEWEN  =      5730.77160818
  -Hartree energ DENC   =     -9634.65621147
  -exchange      EXHF   =         0.00000000
  -V(xc)+E(xc)   XCENC  =       341.23050044
  PAW double counting   =      5343.02095691    -5382.93355940
  entropy T*S    EENTRO =        -0.00000000
  eigenvalues    EBANDS =     -1062.47934404
  atomic energy  EATOM  =      4604.25636981
  Solvation  Ediel_sol  =       -13.26922224
  ---------------------------------------------------
  free energy    TOTEN  =       -72.33773023 eV

  energy without entropy =      -72.33773023  energy(sigma->0) =      -72.33773023


--------------------------------------------------------------------------------------------------------




--------------------------------------- Iteration      1(  18)  ---------------------------------------


    POTLOK:  cpu time   22.2450: real time   22.1045
    SETDIJ:  cpu time    0.4521: real time    0.4849
    EDDIAG:  cpu time    1.8725: real time    1.3579
  RMM-DIIS:  cpu time   23.1886: real time   12.0562
    ORTHCH:  cpu time    0.0305: real time    0.0155
       DOS:  cpu time    0.0009: real time    0.0005
    CHARGE:  cpu time    1.9067: real time    1.2783
    MIXING:  cpu time    0.0573: real time    0.0286
    --------------------------------------------
      LOOP:  cpu time   49.7538: real time   37.3264

 eigenvalue-minimisations  :   259
 total energy-change (2. order) :-0.2220050E-02  (-0.3039917E-03)
 number of electron      59.0000004 magnetization      -1.0144299
 augmentation part        7.8222764 magnetization      -0.2323927

 Broyden mixing:
  rms(total) = 0.14332E-01    rms(broyden)= 0.14321E-01
  rms(prec ) = 0.15509E-01
  weight for this iteration     100.00

 eigenvalues of (default mixing * dielectric matrix)
  average eigenvalue GAMMA=   1.4841
  7.8098  3.1997  2.0803  2.0803  1.1805  1.1805  0.9263  0.9263  0.5273  0.5273
  0.7134  0.7134  0.7733  0.6902  0.6902  0.5800  0.6309

 Free energy of the ion-electron system (eV)
  ---------------------------------------------------
  alpha Z        PSCENC =         1.72117159
  Ewald energy   TEWEN  =      5730.77160818
  -Hartree energ DENC   =     -9634.56181302
  -exchange      EXHF   =         0.00000000
  -V(xc)+E(xc)   XCENC  =       341.23598584
  PAW double counting   =      5342.70782105    -5382.62134875
  entropy T*S    EENTRO =        -0.00000000
  eigenvalues    EBANDS =     -1062.31232355
  atomic energy  EATOM  =      4604.25636981
  Solvation  Ediel_sol  =       -13.53742143
  ---------------------------------------------------
  free energy    TOTEN  =       -72.33995028 eV

  energy without entropy =      -72.33995028  energy(sigma->0) =      -72.33995028


--------------------------------------------------------------------------------------------------------




--------------------------------------- Iteration      1(  19)  ---------------------------------------


    POTLOK:  cpu time   22.6788: real time   22.5389
    SETDIJ:  cpu time    0.4551: real time    0.4551
    EDDIAG:  cpu time    1.8761: real time    1.3610
  RMM-DIIS:  cpu time   19.6527: real time   10.1103
    ORTHCH:  cpu time    0.0301: real time    0.0153
       DOS:  cpu time    0.0009: real time    0.0004
    CHARGE:  cpu time    1.9445: real time    1.3100
    MIXING:  cpu time    0.0594: real time    0.0297
    --------------------------------------------
      LOOP:  cpu time   46.6975: real time   35.8207

 eigenvalue-minimisations  :   224
 total energy-change (2. order) :-0.2343652E-02  (-0.4272333E-03)
 number of electron      59.0000004 magnetization      -1.0091853
 augmentation part        7.8222712 magnetization      -0.2271995

 Broyden mixing:
  rms(total) = 0.15743E-01    rms(broyden)= 0.15724E-01
  rms(prec ) = 0.16913E-01
  weight for this iteration     100.00

 eigenvalues of (default mixing * dielectric matrix)
  average eigenvalue GAMMA=   1.5024
  8.1320  3.6605  2.1034  2.1034  1.3358  1.3358  0.9351  0.9351  0.5273  0.5273
  0.7841  0.7841  0.6700  0.6700  0.7614  0.6091  0.6091  0.5596

 Free energy of the ion-electron system (eV)
  ---------------------------------------------------
  alpha Z        PSCENC =         1.72117159
  Ewald energy   TEWEN  =      5730.77160818
  -Hartree energ DENC   =     -9634.49045466
  -exchange      EXHF   =         0.00000000
  -V(xc)+E(xc)   XCENC  =       341.24100504
  PAW double counting   =      5342.36596978    -5382.27855244
  entropy T*S    EENTRO =        -0.00000000
  eigenvalues    EBANDS =     -1062.15172333
  atomic energy  EATOM  =      4604.25636981
  Solvation  Ediel_sol  =       -13.77768791
  ---------------------------------------------------
  free energy    TOTEN  =       -72.34229393 eV

  energy without entropy =      -72.34229393  energy(sigma->0) =      -72.34229393


--------------------------------------------------------------------------------------------------------




--------------------------------------- Iteration      1(  20)  ---------------------------------------


    POTLOK:  cpu time   22.2084: real time   22.0768
    SETDIJ:  cpu time    0.4540: real time    0.4539
    EDDIAG:  cpu time    1.8730: real time    1.3594
  RMM-DIIS:  cpu time   19.1513: real time    9.9801
    ORTHCH:  cpu time    0.0302: real time    0.0154
       DOS:  cpu time    0.0010: real time    0.0005
    CHARGE:  cpu time    1.9073: real time    1.2771
    MIXING:  cpu time    0.0605: real time    0.0302
    --------------------------------------------
      LOOP:  cpu time   45.6855: real time   35.1934

 eigenvalue-minimisations  :   216
 total energy-change (2. order) :-0.1383413E-02  (-0.3151988E-03)
 number of electron      59.0000004 magnetization      -1.0041868
 augmentation part        7.8225626 magnetization      -0.2221755

 Broyden mixing:
  rms(total) = 0.54423E-02    rms(broyden)= 0.54401E-02
  rms(prec ) = 0.60316E-02
  weight for this iteration     100.00

 eigenvalues of (default mixing * dielectric matrix)
  average eigenvalue GAMMA=   1.6099
  8.7322  4.6586  2.2199  2.2199  1.6087  1.6087  0.9428  0.9428  0.5273  0.5273
  0.9427  0.9427  0.8137  0.6996  0.6996  0.6588  0.6588  0.5754  0.6090

 Free energy of the ion-electron system (eV)
  ---------------------------------------------------
  alpha Z        PSCENC =         1.72117159
  Ewald energy   TEWEN  =      5730.77160818
  -Hartree energ DENC   =     -9634.47947906
  -exchange      EXHF   =         0.00000000
  -V(xc)+E(xc)   XCENC  =       341.24269463
  PAW double counting   =      5342.22062893    -5382.13231804
  entropy T*S    EENTRO =        -0.00000000
  eigenvalues    EBANDS =     -1062.06902333
  atomic energy  EATOM  =      4604.25636981
  Solvation  Ediel_sol  =       -13.87533005
  ---------------------------------------------------
  free energy    TOTEN  =       -72.34367734 eV

  energy without entropy =      -72.34367734  energy(sigma->0) =      -72.34367734


--------------------------------------------------------------------------------------------------------




--------------------------------------- Iteration      1(  21)  ---------------------------------------


    POTLOK:  cpu time   22.0144: real time   21.8905
    SETDIJ:  cpu time    0.4552: real time    0.4550
    EDDIAG:  cpu time    1.8725: real time    1.3590
  RMM-DIIS:  cpu time   18.1069: real time    9.4421
    ORTHCH:  cpu time    0.0293: real time    0.0151
       DOS:  cpu time    0.0009: real time    0.0004
    CHARGE:  cpu time    1.9298: real time    1.2967
    MIXING:  cpu time    0.0771: real time    0.0386
    --------------------------------------------
      LOOP:  cpu time   44.4862: real time   34.4974

 eigenvalue-minimisations  :   194
 total energy-change (2. order) :-0.1411324E-02  (-0.1609428E-03)
 number of electron      59.0000004 magnetization      -0.9998667
 augmentation part        7.8223593 magnetization      -0.2180278

 Broyden mixing:
  rms(total) = 0.84230E-02    rms(broyden)= 0.84119E-02
  rms(prec ) = 0.90091E-02
  weight for this iteration     100.00

 eigenvalues of (default mixing * dielectric matrix)
  average eigenvalue GAMMA=   1.7413
  9.8256  6.2914  2.3160  2.3160  1.6616  1.6616  1.1533  1.1533  0.9331  0.9331
  0.5273  0.5273  0.9246  0.6994  0.6994  0.7078  0.7078  0.6400  0.5893  0.5577

 Free energy of the ion-electron system (eV)
  ---------------------------------------------------
  alpha Z        PSCENC =         1.72117159
  Ewald energy   TEWEN  =      5730.77160818
  -Hartree energ DENC   =     -9634.48617591
  -exchange      EXHF   =         0.00000000
  -V(xc)+E(xc)   XCENC  =       341.24171344
  PAW double counting   =      5341.92221383    -5381.83365318
  entropy T*S    EENTRO =        -0.00000000
  eigenvalues    EBANDS =     -1062.08827626
  atomic energy  EATOM  =      4604.25636981
  Solvation  Ediel_sol  =       -13.85006017
  ---------------------------------------------------
  free energy    TOTEN  =       -72.34508867 eV

  energy without entropy =      -72.34508867  energy(sigma->0) =      -72.34508867


--------------------------------------------------------------------------------------------------------




--------------------------------------- Iteration      1(  22)  ---------------------------------------


    POTLOK:  cpu time   21.9070: real time   21.7869
    SETDIJ:  cpu time    0.4535: real time    0.4534
    EDDIAG:  cpu time    1.8796: real time    1.3653
  RMM-DIIS:  cpu time   17.2913: real time    8.8605
    ORTHCH:  cpu time    0.0305: real time    0.0155
       DOS:  cpu time    0.0009: real time    0.0004
    CHARGE:  cpu time    1.9105: real time    1.2802
    MIXING:  cpu time    0.0658: real time    0.0329
    --------------------------------------------
      LOOP:  cpu time   43.5392: real time   33.7951

 eigenvalue-minimisations  :   189
 total energy-change (2. order) :-0.1506282E-02  (-0.1113206E-03)
 number of electron      59.0000004 magnetization      -0.9984327
 augmentation part        7.8222589 magnetization      -0.2167796

 Broyden mixing:
  rms(total) = 0.63114E-02    rms(broyden)= 0.62983E-02
  rms(prec ) = 0.67879E-02
  weight for this iteration     100.00

 eigenvalues of (default mixing * dielectric matrix)
  average eigenvalue GAMMA=   1.8067
 10.8848  7.3902  2.5169  2.5169  1.4845  1.4845  1.2658  1.2658  0.9332  0.9332
  0.5273  0.5273  1.0405  0.7023  0.7023  0.6930  0.6930  0.5801  0.6133  0.5930
  0.5930

 Free energy of the ion-electron system (eV)
  ---------------------------------------------------
  alpha Z        PSCENC =         1.72117159
  Ewald energy   TEWEN  =      5730.77160818
  -Hartree energ DENC   =     -9634.52424702
  -exchange      EXHF   =         0.00000000
  -V(xc)+E(xc)   XCENC  =       341.23954049
  PAW double counting   =      5341.86507439    -5381.77476645
  entropy T*S    EENTRO =        -0.00000000
  eigenvalues    EBANDS =     -1062.10804522
  atomic energy  EATOM  =      4604.25636981
  Solvation  Ediel_sol  =       -13.79330071
  ---------------------------------------------------
  free energy    TOTEN  =       -72.34659495 eV

  energy without entropy =      -72.34659495  energy(sigma->0) =      -72.34659495


--------------------------------------------------------------------------------------------------------




--------------------------------------- Iteration      1(  23)  ---------------------------------------


    POTLOK:  cpu time   21.1052: real time   20.9663
    SETDIJ:  cpu time    0.4578: real time    0.4578
    EDDIAG:  cpu time    1.8749: real time    1.3604
  RMM-DIIS:  cpu time   17.0024: real time    8.8567
    ORTHCH:  cpu time    0.0301: real time    0.0153
       DOS:  cpu time    0.0009: real time    0.0005
    CHARGE:  cpu time    1.9073: real time    1.2812
    MIXING:  cpu time    0.0671: real time    0.0336
    --------------------------------------------
      LOOP:  cpu time   42.4457: real time   32.9717

 eigenvalue-minimisations  :   187
 total energy-change (2. order) :-0.5745600E-03  (-0.4628834E-04)
 number of electron      59.0000004 magnetization      -0.9976780
 augmentation part        7.8222854 magnetization      -0.2160829

 Broyden mixing:
  rms(total) = 0.40796E-02    rms(broyden)= 0.40764E-02
  rms(prec ) = 0.44142E-02
  weight for this iteration     100.00

 eigenvalues of (default mixing * dielectric matrix)
  average eigenvalue GAMMA=   1.8663
 11.3302  8.2659  3.0806  2.3339  1.5056  1.5056  1.3526  1.3526  1.1850  0.9348
  0.9348  0.5273  0.5273  0.8307  0.8307  0.6979  0.6979  0.6832  0.6832  0.5700
  0.6139  0.6139

 Free energy of the ion-electron system (eV)
  ---------------------------------------------------
  alpha Z        PSCENC =         1.72117159
  Ewald energy   TEWEN  =      5730.77160818
  -Hartree energ DENC   =     -9634.54389409
  -exchange      EXHF   =         0.00000000
  -V(xc)+E(xc)   XCENC  =       341.23840024
  PAW double counting   =      5341.87352680    -5381.78227892
  entropy T*S    EENTRO =        -0.00000000
  eigenvalues    EBANDS =     -1062.12086680
  atomic energy  EATOM  =      4604.25636981
  Solvation  Ediel_sol  =       -13.76120632
  ---------------------------------------------------
  free energy    TOTEN  =       -72.34716951 eV

  energy without entropy =      -72.34716951  energy(sigma->0) =      -72.34716951


--------------------------------------------------------------------------------------------------------




--------------------------------------- Iteration      1(  24)  ---------------------------------------


    POTLOK:  cpu time   21.0542: real time   20.9225
    SETDIJ:  cpu time    0.4545: real time    0.4545
    EDDIAG:  cpu time    1.8768: real time    1.3618
  RMM-DIIS:  cpu time   16.7392: real time    8.8688
    ORTHCH:  cpu time    0.0299: real time    0.0159
       DOS:  cpu time    0.0008: real time    0.0004
    CHARGE:  cpu time    1.9004: real time    1.2752
    MIXING:  cpu time    0.0764: real time    0.0382
    --------------------------------------------
      LOOP:  cpu time   42.1323: real time   32.9373

 eigenvalue-minimisations  :   182
 total energy-change (2. order) :-0.6983080E-03  (-0.3738546E-04)
 number of electron      59.0000004 magnetization      -0.9970367
 augmentation part        7.8222647 magnetization      -0.2156139

 Broyden mixing:
  rms(total) = 0.59426E-02    rms(broyden)= 0.59325E-02
  rms(prec ) = 0.63553E-02
  weight for this iteration     100.00

 eigenvalues of (default mixing * dielectric matrix)
  average eigenvalue GAMMA=   2.0037
 14.1621  8.6050  3.5414  2.6590  1.5799  1.5799  1.4200  1.4200  1.1803  0.9352
  0.9352  0.5273  0.5273  0.9316  0.9316  0.7018  0.7018  0.6903  0.6903  0.6131
  0.5795  0.5865  0.5865

 Free energy of the ion-electron system (eV)
[...]
  Solvation  Ediel_sol  =       -13.74768489
  ---------------------------------------------------
  free energy    TOTEN  =       -72.34979788 eV

  energy without entropy =      -72.34979788  energy(sigma->0) =      -72.34979788


--------------------------------------------------------------------------------------------------------




--------------------------------------- Iteration      1(  33)  ---------------------------------------


    POTLOK:  cpu time   19.0000: real time   18.8887
    SETDIJ:  cpu time    0.4536: real time    0.4536
    EDDIAG:  cpu time    1.8842: real time    1.3636
  RMM-DIIS:  cpu time   13.6635: real time    7.3720
    ORTHCH:  cpu time    0.0303: real time    0.0154
       DOS:  cpu time    0.0012: real time    0.0006
    CHARGE:  cpu time    1.9099: real time    1.2891
    MIXING:  cpu time    0.1028: real time    0.0514
    --------------------------------------------
      LOOP:  cpu time   37.0454: real time   29.4343

 eigenvalue-minimisations  :   132
 total energy-change (2. order) :-0.3990774E-04  (-0.7103212E-06)
 number of electron      59.0000004 magnetization      -1.0000784
 augmentation part        7.8223766 magnetization      -0.2189847

 Broyden mixing:
  rms(total) = 0.94256E-04    rms(broyden)= 0.91120E-04
  rms(prec ) = 0.10174E-03
  weight for this iteration     100.00

 eigenvalues of (default mixing * dielectric matrix)
  average eigenvalue GAMMA=   2.1648
 18.9849  9.9626  6.8888  4.3238  2.5855  2.5855  1.7925  1.7925  1.4337  1.4337
  1.3864  0.5273  0.5273  0.9350  0.9350  1.1065  1.1065  1.0612  1.0612  0.8052
  0.8052  0.7008  0.7008  0.7160  0.7160  0.6744  0.6744  0.5733  0.6279  0.6279
  0.6115  0.6115

 Free energy of the ion-electron system (eV)
  ---------------------------------------------------
  alpha Z        PSCENC =         1.72117159
  Ewald energy   TEWEN  =      5730.77160818
  -Hartree energ DENC   =     -9634.62927994
  -exchange      EXHF   =         0.00000000
  -V(xc)+E(xc)   XCENC  =       341.23341160
  PAW double counting   =      5341.92542846    -5381.82906709
  entropy T*S    EENTRO =        -0.00000000
  eigenvalues    EBANDS =     -1062.05345185
  atomic energy  EATOM  =      4604.25636981
  Solvation  Ediel_sol  =       -13.74602855
  ---------------------------------------------------
  free energy    TOTEN  =       -72.34983779 eV

  energy without entropy =      -72.34983779  energy(sigma->0) =      -72.34983779


--------------------------------------------------------------------------------------------------------




--------------------------------------- Iteration      1(  34)  ---------------------------------------


    POTLOK:  cpu time   16.9563: real time   16.8512
    SETDIJ:  cpu time    0.4541: real time    0.4541
    EDDIAG:  cpu time    1.8720: real time    1.3574
  RMM-DIIS:  cpu time   13.5397: real time    7.3872
    ORTHCH:  cpu time    0.0285: real time    0.0145
       DOS:  cpu time    0.0008: real time    0.0004
    --------------------------------------------
      LOOP:  cpu time   32.8512: real time   26.0647

 eigenvalue-minimisations  :   132
 total energy-change (2. order) :-0.1947124E-05  (-0.4853637E-06)
 number of electron      59.0000004 magnetization      -1.0000784
 augmentation part        7.8223766 magnetization      -0.2189847

 Free energy of the ion-electron system (eV)
  ---------------------------------------------------
  alpha Z        PSCENC =         1.72117159
  Ewald energy   TEWEN  =      5730.77160818
  -Hartree energ DENC   =     -9634.62997834
  -exchange      EXHF   =         0.00000000
  -V(xc)+E(xc)   XCENC  =       341.23344004
  PAW double counting   =      5341.92664018    -5381.83028949
  entropy T*S    EENTRO =        -0.00000000
  eigenvalues    EBANDS =     -1062.05348195
  atomic energy  EATOM  =      4604.25636981
  Solvation  Ediel_sol  =       -13.74531975
  ---------------------------------------------------
  free energy    TOTEN  =       -72.34983974 eV

  energy without entropy =      -72.34983974  energy(sigma->0) =      -72.34983974


--------------------------------------------------------------------------------------------------------




 average (electrostatic) potential at core
  the test charge radii are     0.6991  0.7167  0.7215
  (the norm of the test charge is              1.0000)
       1 -67.9493       2 -67.0987       3 -65.8378       4 -92.1649       5 -92.1271
       6 -92.1057       7 -92.0652       8 -92.1716       9 -87.1623      10 -85.3705
 
 
 
 E-fermi :  -7.8483     XC(G=0):  -0.1982     alpha+bet : -0.0966


 spin component 1

 k-point     1 :       0.0000    0.0000    0.0000
  band No.  band energies     occupation 
      1     -35.8992      1.00000
      2     -34.7694      1.00000
      3     -33.5660      1.00000
      4     -33.4532      1.00000
      5     -33.1980      1.00000
      6     -30.1130      1.00000
      7     -27.7487      1.00000
      8     -21.6845      1.00000
      9     -18.7352      1.00000
     10     -17.0408      1.00000
     11     -16.4329      1.00000
     12     -16.2763      1.00000
     13     -15.7213      1.00000
     14     -15.2482      1.00000
     15     -14.1694      1.00000
     16     -12.7514      1.00000
     17     -12.7226      1.00000
     18     -12.6119      1.00000
     19     -12.5300      1.00000
     20     -12.4309      1.00000
     21     -11.9935      1.00000
     22     -11.8325      1.00000
     23     -11.5684      1.00000
     24     -11.4252      1.00000
     25     -11.1661      1.00000
     26     -10.9578      1.00000
     27     -10.4601      1.00000
     28      -8.9386      1.00000
     29      -7.9184      1.00000
     30      -7.6974      0.00000
     31      -2.3546      0.00000
     32      -0.2862      0.00000
     33      -0.0897      0.00000
     34       0.2105      0.00000
     35       0.2923      0.00000
     36       0.2971      0.00000
     37       0.3233      0.00000
     38       0.3247      0.00000
     39       0.3300      0.00000
     40       0.5996      0.00000

 spin component 2

 k-point     1 :       0.0000    0.0000    0.0000
  band No.  band energies     occupation 
      1     -35.9124      1.00000
      2     -34.8197      1.00000
      3     -33.5784      1.00000
      4     -33.4691      1.00000
      5     -33.2394      1.00000
      6     -31.0271      1.00000
      7     -28.2807      1.00000
      8     -21.8867      1.00000
      9     -18.9732      1.00000
     10     -17.2297      1.00000
     11     -16.4840      1.00000
     12     -16.3003      1.00000
     13     -15.8068      1.00000
     14     -15.3085      1.00000
     15     -14.6752      1.00000
     16     -13.2356      1.00000
     17     -12.8920      1.00000
     18     -12.7532      1.00000
     19     -12.5731      1.00000
     20     -12.4997      1.00000
     21     -12.1654      1.00000
     22     -12.0644      1.00000
     23     -11.6168      1.00000
     24     -11.4670      1.00000
     25     -11.1973      1.00000
     26     -10.9784      1.00000
     27     -10.9112      1.00000
     28      -9.8573      1.00000
     29      -9.2427      1.00000
     30      -8.2451      1.00000
     31      -2.5121      0.00000
     32      -0.4537      0.00000
     33      -0.0972      0.00000
     34       0.2068      0.00000
     35       0.2901      0.00000
     36       0.2914      0.00000
     37       0.3196      0.00000
     38       0.3204      0.00000
     39       0.3267      0.00000
     40       0.6074      0.00000


--------------------------------------------------------------------------------------------------------


 soft charge-density along one line, spin component           1
         0         1         2         3         4         5         6         7         8         9
 total charge-density along one line
 
 soft charge-density along one line, spin component           2
         0         1         2         3         4         5         6         7         8         9
 total charge-density along one line
 
 pseudopotential strength for first ion, spin component:           1
 10.796  14.367  -0.000   0.014   0.004   0.001  -0.035  -0.010
 14.367  19.118  -0.000   0.018   0.005   0.001  -0.045  -0.013
 -0.000  -0.000  -4.771   0.000   0.000   9.288   0.000  -0.000
  0.014   0.018   0.000  -4.776  -0.001   0.000   9.290   0.000
  0.004   0.005   0.000  -0.001  -4.772  -0.000   0.000   9.289
  0.001   0.001   9.288   0.000  -0.000 -20.370  -0.000  -0.000
 -0.035  -0.045   0.000   9.290   0.000  -0.000 -20.370   0.000
 -0.010  -0.013  -0.000   0.000   9.289  -0.000   0.000 -20.370
 pseudopotential strength for first ion, spin component:           2
 10.802  14.374  -0.000   0.013   0.004   0.001  -0.032  -0.009
 14.374  19.128  -0.000   0.017   0.004   0.001  -0.040  -0.011
 -0.000  -0.000  -4.774  -0.000   0.000   9.292   0.000  -0.000
  0.013   0.017  -0.000  -4.778  -0.001   0.000   9.291  -0.001
  0.004   0.004   0.000  -0.001  -4.774  -0.000  -0.001   9.293
  0.001   0.001   9.292   0.000  -0.000 -20.376  -0.000   0.000
 -0.032  -0.040   0.000   9.291  -0.001  -0.000 -20.367   0.003
 -0.009  -0.011  -0.000  -0.001   9.293   0.000   0.003 -20.376
 total augmentation occupancy for first ion, spin component:           1
  8.328  -4.077   0.012   0.273   0.089   0.002   0.076   0.024
 -4.077   2.213  -0.007  -0.303  -0.094  -0.001  -0.053  -0.016
  0.012  -0.007   1.391  -0.002  -0.003   0.154  -0.000  -0.001
  0.273  -0.303  -0.002   1.560   0.047  -0.000   0.132  -0.006
  0.089  -0.094  -0.003   0.047   1.410  -0.001  -0.006   0.153
  0.002  -0.001   0.154  -0.000  -0.001   0.021   0.000  -0.000
  0.076  -0.053  -0.000   0.132  -0.006   0.000   0.014  -0.002
  0.024  -0.016  -0.001  -0.006   0.153  -0.000  -0.002   0.021
 total augmentation occupancy for first ion, spin component:           2
  0.005  -0.000   0.002  -0.003  -0.000   0.000   0.000   0.000
 -0.000  -0.006  -0.000   0.010   0.003  -0.000  -0.000  -0.000
  0.002  -0.000   0.000  -0.003  -0.000   0.000  -0.000  -0.000
 -0.003   0.010  -0.003  -0.015  -0.006  -0.000   0.000   0.000
 -0.000   0.003  -0.000  -0.006  -0.002  -0.000   0.000   0.000
  0.000  -0.000   0.000  -0.000  -0.000   0.000  -0.000  -0.000
  0.000  -0.000  -0.000   0.000   0.000  -0.000   0.000   0.000
  0.000  -0.000  -0.000   0.000   0.000  -0.000   0.000   0.000


------------------------ aborting loop because EDIFF is reached ----------------------------------------


 


 total charge     
 
# of ion       s       p       d       tot
------------------------------------------
    1        0.814   1.553   0.000   2.367
    2        0.831   1.554   0.000   2.385
    3        0.883   1.732   0.000   2.615
    4        1.759   4.406   0.000   6.165
    5        1.759   4.400   0.000   6.158
    6        1.759   4.406   0.000   6.165
    7        1.758   4.382   0.000   6.140
    8        1.759   4.373   0.000   6.132
    9        1.612   3.412   0.000   5.023
   10        1.599   3.522   0.000   5.120
--------------------------------------------------
tot         14.533  33.738   0.000  48.271
 


 magnetization (x)
 
# of ion       s       p       d       tot
------------------------------------------
    1       -0.003  -0.008   0.000  -0.011
    2       -0.018  -0.091   0.000  -0.109
    3        0.013   0.022   0.000   0.035
    4       -0.000  -0.003   0.000  -0.003
    5       -0.000  -0.009   0.000  -0.009
    6        0.000   0.000   0.000   0.000
    7       -0.000  -0.014   0.000  -0.015
    8       -0.000  -0.034   0.000  -0.034
    9       -0.012  -0.551   0.000  -0.563
   10       -0.000  -0.099   0.000  -0.100
--------------------------------------------------
tot         -0.021  -0.788   0.000  -0.809
 
    CHARGE:  cpu time    0.4358: real time    0.2261
    FORLOC:  cpu time    0.0928: real time    0.0469
    FORNL :  cpu time    0.5607: real time    0.4789
    STRESS:  cpu time   30.4108: real time   22.6007
    FORCOR:  cpu time    1.5747: real time    1.4912
    FORHAR:  cpu time    0.1227: real time    0.1266
    MIXING:  cpu time    0.0452: real time    0.0452
    OFIELD:  cpu time    0.0005: real time    0.0023

  FORCE on cell =-STRESS in cart. coord.  units (eV):
  Direction    XX          YY          ZZ          XY          YZ          ZX
  --------------------------------------------------------------------------------------
  Alpha Z     1.72117     1.72117     1.72117
  Ewald    1851.09199  1887.67788  1992.00010  -131.26322  -436.78035  -178.25333
  Hartree  3010.41124  3163.55019  3460.66362   -37.08958  -397.00369   -67.92595
  E(xc)    -319.98832  -320.61554  -319.59512     0.10045    -0.01477    -0.03297
  Local   -5632.21638 -5840.08188 -6297.04852   149.19020   837.91679   228.42398
  n-local  -250.00448  -245.07562  -246.14926     1.25751    -0.33862     1.46926
  augment   103.08875   103.56650   110.05377     1.40268    -0.86634     1.36100
  Kinetic  1232.63384  1246.11686  1299.12784    17.75359    -2.27333    15.83909
  Fock        0.00000     0.00000     0.00000     0.00000     0.00000     0.00000
  -------------------------------------------------------------------------------------
  Total      -3.26219    -3.14044     0.77360     1.35162     0.63968     0.88108
  in kB      -0.65333    -0.62894     0.15493     0.27069     0.12811     0.17646
  external pressure =       -0.38 kB  Pullay stress =        0.00 kB


 VOLUME and BASIS-vectors are now :
 -----------------------------------------------------------------------------
  energy-cutoff  :      550.00
  volume of cell :     8000.00
      direct lattice vectors                 reciprocal lattice vectors
    20.000000000  0.000000000  0.000000000     0.050000000  0.000000000  0.000000000
     0.000000000 20.000000000  0.000000000     0.000000000  0.050000000  0.000000000
     0.000000000  0.000000000 20.000000000     0.000000000  0.000000000  0.050000000

  length of vectors
    20.000000000 20.000000000 20.000000000     0.050000000  0.050000000  0.050000000


 FORCES acting on ions
    electron-ion (+dipol)            ewald-force                    non-local-force                 convergence-correction
 -----------------------------------------------------------------------------------------------
   -.127E+02 0.106E+02 -.628E+02   0.103E+02 -.105E+02 0.559E+02   0.245E+01 0.795E-01 0.842E+01   -.612E-03 0.157E-03 -.358E-03
   0.586E+01 -.336E+02 0.843E+02   -.192E+01 0.386E+02 -.796E+02   -.523E+01 -.728E+01 -.393E+01   -.761E-03 0.330E-03 0.115E-03
   -.195E+02 -.865E+02 0.118E+03   0.146E+02 0.886E+02 -.117E+03   0.232E+01 0.203E+01 -.133E+01   -.334E-02 0.257E-03 0.128E-02
   -.596E+03 0.115E+02 -.211E+03   0.655E+03 -.108E+02 0.218E+03   -.585E+02 -.111E+01 -.748E+01   -.939E-03 0.832E-04 0.348E-03
   0.157E+03 0.486E+03 -.398E+03   -.176E+03 -.535E+03 0.426E+03   0.188E+02 0.479E+02 -.280E+02   -.344E-03 0.509E-03 -.376E-03
   0.184E+03 -.425E+03 -.430E+03   -.208E+03 0.472E+03 0.459E+03   0.219E+02 -.457E+02 -.297E+02   -.503E-03 0.181E-03 -.492E-03
   -.149E+03 0.497E+03 0.343E+03   0.168E+03 -.545E+03 -.366E+03   -.192E+02 0.473E+02 0.235E+02   -.147E-02 0.413E-03 0.697E-03
   0.602E+03 0.867E+02 0.123E+03   -.659E+03 -.910E+02 -.124E+03   0.562E+02 0.595E+01 0.127E+01   0.656E-03 0.826E-03 -.408E-04
   -.405E+03 -.121E+03 0.291E+03   0.457E+03 0.117E+03 -.311E+03   -.505E+02 0.266E+01 0.198E+02   -.133E-02 0.205E-03 0.497E-03
   0.221E+03 -.433E+03 0.160E+03   -.261E+03 0.475E+03 -.162E+03   0.370E+02 -.413E+02 0.237E+01   -.150E-02 0.353E-03 0.522E-03
 -----------------------------------------------------------------------------------------------
   -.521E+01 -.105E+02 0.151E+02   0.114E-12 0.000E+00 -.114E-12   0.521E+01 0.105E+02 -.151E+02   -.101E-01 0.331E-02 0.219E-02
 
 
 POSITION                                       TOTAL-FORCE (eV/Angst)
 -----------------------------------------------------------------------------------
     10.21481      9.55522     10.99694         0.465816      0.328039      1.464708
      9.80152      9.57725      9.52026        -0.931867     -2.503985     -0.003782
     10.28160     10.84738      8.74759        -1.890474      3.163509     -0.636982
     11.55192      9.58641     11.12760        -0.241712     -0.006369     -0.302306
      9.76773      8.44082     11.61082         0.023150      0.336004     -0.591457
      9.70218     10.61576     11.64763         0.011869     -0.166350     -0.318882
     10.30135      8.42847      8.96234        -0.176558      0.827235      0.150968
      8.43680      9.45108      9.50646         1.211175      0.584153     -0.280319
     11.44381     10.76537      8.30766         0.722057     -0.944720      0.140172
      9.45227     11.77434      8.69928         0.806544     -1.617517      0.377881
 -----------------------------------------------------------------------------------
    total drift:                               -0.008998     -0.012442      0.005258


--------------------------------------------------------------------------------------------------------



  FREE ENERGIE OF THE ION-ELECTRON SYSTEM (eV)
  ---------------------------------------------------
  free  energy   TOTEN  =       -72.34983974 eV

  energy  without entropy=      -72.34983974  energy(sigma->0) =      -72.34983974
 


--------------------------------------------------------------------------------------------------------


    POTLOK:  cpu time   17.5390: real time   17.5248


--------------------------------------------------------------------------------------------------------


 writing wavefunctions
     LOOP+:  cpu time 1560.4286: real time 1231.7336
    4ORBIT:  cpu time    0.0000: real time    0.0000
 


 total charge     
 
# of ion       s       p       d       tot
------------------------------------------
    1        0.814   1.553   0.000   2.367
    2        0.831   1.554   0.000   2.385
    3        0.883   1.732   0.000   2.615
    4        1.759   4.406   0.000   6.165
    5        1.759   4.400   0.000   6.158
    6        1.759   4.406   0.000   6.165
    7        1.758   4.382   0.000   6.140
    8        1.759   4.373   0.000   6.132
    9        1.612   3.412   0.000   5.023
   10        1.599   3.522   0.000   5.120
--------------------------------------------------
tot         14.533  33.738   0.000  48.271
 


 magnetization (x)
 
# of ion       s       p       d       tot
------------------------------------------
    1       -0.003  -0.008   0.000  -0.011
    2       -0.018  -0.091   0.000  -0.109
    3        0.013   0.022   0.000   0.035
    4       -0.000  -0.003   0.000  -0.003
    5       -0.000  -0.009   0.000  -0.009
    6        0.000   0.000   0.000   0.000
    7       -0.000  -0.014   0.000  -0.015
    8       -0.000  -0.034   0.000  -0.034
    9       -0.012  -0.551   0.000  -0.563
   10       -0.000  -0.099   0.000  -0.100
--------------------------------------------------
tot         -0.021  -0.788   0.000  -0.809
 

 total amount of memory used by VASP MPI-rank0   121024. kBytes
=======================================================================

   base      :      30000. kBytes
   nonlr-proj:        703. kBytes
   fftplans  :      18522. kBytes
   grid      :      68663. kBytes
   one-center:          6. kBytes
   wavefun   :       3130. kBytes
 
  
  
 General timing and accounting informations for this job:
 ========================================================
  
                  Total CPU time used (sec):     1569.751
                            User time (sec):     1477.791
                          System time (sec):       91.960
                         Elapsed time (sec):     1241.192
  
                   Maximum memory used (kb):      460096.
                   Average memory used (kb):           0.
  
                          Minor page faults:      1536035
                          Major page faults:           23
                 Voluntary context switches:        19961
