 vasp.5.4.4.18Apr17-6-g9f103f2a35 (build May 01 2020 14:57:12) complex          
  
 executed on             LinuxIFC date 2021.01.11  12:01:41
 running on   96 total cores
 distrk:  each k-point on   24 cores,    4 groups
 distr:  one band on NCORES_PER_BAND=   6 cores,    4 groups


--------------------------------------------------------------------------------------------------------


 INCAR:
 POTCAR:    PAW_PBE B 06Sep2000                   
 POTCAR:    PAW_PBE N 08Apr2002                   

 ----------------------------------------------------------------------------- 
|                                                                             |
|           W    W    AA    RRRRR   N    N  II  N    N   GGGG   !!!           |
|           W    W   A  A   R    R  NN   N  II  NN   N  G    G  !!!           |
|           W    W  A    A  R    R  N N  N  II  N N  N  G       !!!           |
|           W WW W  AAAAAA  RRRRR   N  N N  II  N  N N  G  GGG   !            |
|           WW  WW  A    A  R   R   N   NN  II  N   NN  G    G                |
|           W    W  A    A  R    R  N    N  II  N    N   GGGG   !!!           |
|                                                                             |
|      You have enabled k-point parallelism (KPAR>1).                         |
|      This developmental code was originally  written by Paul Kent at ORNL,  |
|      and carefully double checked in Vienna.                                |
|      GW as well as linear response parallelism added by Martijn Marsman     |
|      and Georg Kresse.                                                      |
|      Carefully verify results versus KPAR=1.                                |
|      Report problems to Paul Kent and Vienna.                               |
|                                                                             |
 ----------------------------------------------------------------------------- 

 POTCAR:    PAW_PBE B 06Sep2000                   
   VRHFIN =B: s2p1                                                              
   LEXCH  = PE                                                                  
   EATOM  =    71.1703 eV,    5.2309 Ry                                         
                                                                                
   TITEL  = PAW_PBE B 06Sep2000                                                 
   LULTRA =        F    use ultrasoft PP ?                                      
   IUNSCR =        1    unscreen: 0-lin 1-nonlin 2-no                           
   RPACOR =    1.200    partial core radius                                     
   POMASS =   10.811; ZVAL   =    3.000    mass and valenz                      
   RCORE  =    1.700    outmost cutoff radius                                   
   RWIGS  =    1.710; RWIGS  =    0.905    wigner-seitz radius (au A)           
   ENMAX  =  318.614; ENMIN  =  238.960 eV                                      
   ICORE  =        2    local potential                                         
   LCOR   =        T    correct aug charges                                     
   LPAW   =        T    paw PP                                                  
   EAUG   =  535.514                                                            
   DEXC   =    0.000                                                            
   RMAX   =    1.732    core radius for proj-oper                               
   RAUG   =    1.300    factor for augmentation sphere                          
   RDEP   =    1.757    radius for radial grids                                 
   RDEPT  =    1.436    core radius for aug-charge                              
                                                                                
   Atomic configuration                                                         
    4 entries                                                                   
     n  l   j            E        occ.                                          
     1  0  0.50      -180.5896   2.0000                                         
     2  0  0.50        -9.4431   2.0000                                         
     2  1  0.50        -3.6068   1.0000                                         
     3  2  1.50        -4.0817   0.0000                                         
   Description                                                                  
     l       E           TYP  RCUT    TYP  RCUT                                 
     0     -9.4430752     23  1.500                                             
     0      0.8675899     23  1.500                                             
     1     -3.6067955     23  1.700                                             
     1      6.1086146     23  1.700                                             
     2     -4.0817478      7  1.700                                             
  local pseudopotential read in
  partial core-charges read in
  partial kinetic energy density read in
  atomic valenz-charges read in
  non local Contribution for L=           0  read in
    real space projection operators read in
  non local Contribution for L=           0  read in
    real space projection operators read in
  non local Contribution for L=           1  read in
    real space projection operators read in
  non local Contribution for L=           1  read in
    real space projection operators read in
    PAW grid and wavefunctions read in
 
   number of l-projection  operators is LMAX  =           4
   number of lm-projection operators is LMMAX =           8
 
 POTCAR:    PAW_PBE N 08Apr2002                   
   VRHFIN =N: s2p3                                                              
   LEXCH  = PE                                                                  
   EATOM  =   264.5486 eV,   19.4438 Ry                                         
                                                                                
   TITEL  = PAW_PBE N 08Apr2002                                                 
   LULTRA =        F    use ultrasoft PP ?                                      
   IUNSCR =        1    unscreen: 0-lin 1-nonlin 2-no                           
   RPACOR =    1.200    partial core radius                                     
   POMASS =   14.001; ZVAL   =    5.000    mass and valenz                      
   RCORE  =    1.500    outmost cutoff radius                                   
   RWIGS  =    1.400; RWIGS  =    0.741    wigner-seitz radius (au A)           
   ENMAX  =  400.000; ENMIN  =  300.000 eV                                      
   ICORE  =        2    local potential                                         
   LCOR   =        T    correct aug charges                                     
   LPAW   =        T    paw PP                                                  
   EAUG   =  627.112                                                            
   DEXC   =    0.000                                                            
   RMAX   =    1.529    core radius for proj-oper                               
   RAUG   =    1.300    factor for augmentation sphere                          
   RDEP   =    1.514    radius for radial grids                                 
   RDEPT  =    1.338    core radius for aug-charge                              
                                                                                
   Atomic configuration                                                         
    4 entries                                                                   
     n  l   j            E        occ.                                          
     1  0  0.50      -384.7179   2.0000                                         
     2  0  0.50       -18.5828   2.0000                                         
     2  1  0.50        -7.0898   3.0000                                         
     3  2  1.50        -6.8029   0.0000                                         
   Description                                                                  
     l       E           TYP  RCUT    TYP  RCUT                                 
     0    -18.5828119     23  1.200                                             
     0    -13.5018863     23  1.200                                             
     1     -7.0897853     23  1.500                                             
     1      9.5240782     23  1.500                                             
     2     -6.8029130      7  1.500                                             
  local pseudopotential read in
  partial core-charges read in
  partial kinetic energy density read in
  atomic valenz-charges read in
  non local Contribution for L=           0  read in
    real space projection operators read in
  non local Contribution for L=           0  read in
    real space projection operators read in
  non local Contribution for L=           1  read in
    real space projection operators read in
  non local Contribution for L=           1  read in
    real space projection operators read in
    PAW grid and wavefunctions read in
 
   number of l-projection  operators is LMAX  =           4
   number of lm-projection operators is LMMAX =           8
 
 Optimization of the real space projectors (new method)

 maximal supplied QI-value         = 22.11
 optimisation between [QCUT,QGAM] = [ 11.94, 23.88] = [ 39.92,159.67] Ry 
 Optimized for a Real-space Cutoff    1.18 Angstroem

   l    n(q)    QCUT    max X(q) W(low)/X(q) W(high)/X(q)  e(spline) 
   0      8    11.939    53.033    0.11E-03    0.34E-03    0.60E-07
   0      8    11.939    34.740    0.11E-03    0.34E-03    0.59E-07
   1      8    11.939    30.949    0.22E-03    0.20E-03    0.17E-06
   1      8    11.939    19.518    0.20E-03    0.18E-03    0.16E-06
 Optimization of the real space projectors (new method)

 maximal supplied QI-value         = 25.13
 optimisation between [QCUT,QGAM] = [ 11.81, 23.88] = [ 39.08,159.64] Ry 
 Optimized for a Real-space Cutoff    1.41 Angstroem

   l    n(q)    QCUT    max X(q) W(low)/X(q) W(high)/X(q)  e(spline) 
   0     10    11.813    79.467    0.48E-04    0.30E-04    0.67E-06
   0     10    11.813    66.151    0.47E-04    0.30E-04    0.67E-06
   1     10    11.813    20.169    0.11E-03    0.17E-03    0.11E-05
   1     10    11.813    14.454    0.11E-03    0.17E-03    0.11E-05
  PAW_PBE B 06Sep2000                   :
 energy of atom  1       EATOM=  -71.1703
 kinetic energy error for atom=    0.0009 (will be added to EATOM!!)
  PAW_PBE N 08Apr2002                   :
 energy of atom  2       EATOM= -264.5486
 kinetic energy error for atom=    0.0116 (will be added to EATOM!!)
 
 
 POSCAR: B N                                     
  positions in direct lattice
  velocities in cartesian coordinates

 METAGGA = SCAN     LMAXTAU =  6    LMIXTAU =  F

 exchange correlation table for  LEXCH =        8
   RHO(1)=    0.500       N(1)  =     2000
   RHO(2)=  100.500       N(2)  =     4000
 


--------------------------------------------------------------------------------------------------------


 ion  position               nearest neighbor table
   1  0.167  0.084  0.500-  16 1.45  20 1.45  19 1.45
   2  0.167  0.334  0.500-  21 1.41  17 1.45  16 1.46
   3  0.167  0.583  0.500-  22 1.41  17 1.45  18 1.46
   4  0.167  0.833  0.500-  23 1.45  18 1.45  19 1.45
   5  0.417  0.083  0.500-  23 1.45  20 1.45  24 1.45
   6  0.417  0.334  0.500-  21 1.41  31 1.45  20 1.46
   7  0.417  0.833  0.500-  22 1.41  26 1.45  23 1.46
   8  0.667  0.083  0.500-  26 1.44  27 1.45  24 1.45
   9  0.667  0.333  0.500-  31 1.44  24 1.45  28 1.45
  10  0.666  0.583  0.500-  25 1.41  31 1.45  29 1.46
  11  0.666  0.833  0.500-  25 1.41  26 1.45  30 1.46
  12  0.917  0.083  0.500-  16 1.45  30 1.45  27 1.45
  13  0.917  0.333  0.500-  17 1.44  27 1.45  28 1.45
  14  0.917  0.583  0.500-  18 1.45  29 1.45  28 1.45
  15  0.916  0.833  0.500-  30 1.45  29 1.45  19 1.45
  16  0.083  0.166  0.500-  12 1.45   1 1.45   2 1.46
  17  0.082  0.416  0.500-  13 1.44   3 1.45   2 1.45
  18  0.083  0.667  0.500-  14 1.45   4 1.45   3 1.46
  19  0.083  0.917  0.500-   1 1.45  15 1.45   4 1.45
  20  0.333  0.166  0.500-   5 1.45   1 1.45   6 1.46
  21  0.328  0.407  0.500-   6 1.41   2 1.41
  22  0.329  0.671  0.500-   3 1.41   7 1.41
  23  0.333  0.917  0.500-   5 1.45   4 1.45   7 1.46
  24  0.583  0.167  0.500-   9 1.45   8 1.45   5 1.45
  25  0.593  0.672  0.500-  10 1.41  11 1.41
  26  0.584  0.918  0.500-   8 1.44   7 1.45  11 1.45
  27  0.833  0.167  0.500-   8 1.45  13 1.45  12 1.45
  28  0.833  0.417  0.500-   9 1.45  13 1.45  14 1.45
  29  0.834  0.667  0.500-  14 1.45  15 1.45  10 1.46
  30  0.834  0.917  0.500-  12 1.45  15 1.45  11 1.46
  31  0.584  0.416  0.500-   9 1.44  10 1.45   6 1.45
 
  LATTYP: Found a hexagonal cell.
 ALAT       =    10.0487671536
 C/A-ratio  =     3.4944251219
  
  Lattice vectors:
  
 A1 = (   5.0243667045,  -8.7024973730,   0.0000000000)
 A2 = (   5.0243667045,   8.7024973730,   0.0000000000)
 A3 = (   0.0000000000,   0.0000000000,  35.1146643856)


Analysis of symmetry for initial positions (statically):
=====================================================================
 Subroutine PRICEL returns:
 Original cell was already a primitive cell.
 

 Routine SETGRP: Setting up the symmetry group for a 
 hexagonal supercell.


 Subroutine GETGRP returns: Found  4 space group operations
 (whereof  4 operations were pure point group operations)
 out of a pool of 24 trial point group operations.


The static configuration has the point symmetry C_2v.


Analysis of symmetry for dynamics (positions and initial velocities):
=====================================================================
 Subroutine PRICEL returns:
 Original cell was already a primitive cell.
 

 Routine SETGRP: Setting up the symmetry group for a 
 hexagonal supercell.


 Subroutine GETGRP returns: Found  4 space group operations
 (whereof  4 operations were pure point group operations)
 out of a pool of 24 trial point group operations.


The dynamic configuration has the point symmetry C_2v.


Analysis of constrained symmetry for selective dynamics:
=====================================================================
 Subroutine PRICEL returns:
 Original cell was already a primitive cell.
 

 Routine SETGRP: Setting up the symmetry group for a 
 hexagonal supercell.


 Subroutine GETGRP returns: Found  4 space group operations
 (whereof  4 operations were pure point group operations)
 out of a pool of 24 trial point group operations.


The constrained configuration has the point symmetry C_2v.


Analysis of structural, dynamic, and magnetic symmetry:
=====================================================================
 Subroutine PRICEL returns:
 Original cell was already a primitive cell.
 

 Routine SETGRP: Setting up the symmetry group for a 
 hexagonal supercell.


 Subroutine GETGRP returns: Found  4 space group operations
 (whereof  4 operations were pure point group operations)
 out of a pool of 24 trial point group operations.


The magnetic configuration has the point symmetry C_2v.


 Subroutine INISYM returns: Found  4 space group operations
 (whereof  4 operations are pure point group operations),
 and found     1 'primitive' translations

 
 
 KPOINTS: K-Point Grid                            

Automatic generation of k-mesh.
Space group operators:
 irot       det(A)        alpha          n_x          n_y          n_z        tau_x        tau_y        tau_z
    1     1.000000     0.000000     1.000000     0.000000     0.000000     0.000000     0.000000     0.000000
    2    -1.000000   180.000000     0.000000     0.000000     1.000000     0.000000     0.000000     0.000000
    3     1.000000   180.000000     0.000000     1.000000     0.000000     0.000000     0.000000     0.000000
    4    -1.000000   180.000000     1.000000     0.000000     0.000000     0.000000     0.000000     0.000000
 
 Subroutine IBZKPT returns following result:
 ===========================================
 
 Found     14 irreducible k-points:
 
 Following reciprocal coordinates:
            Coordinates               Weight
  0.125000  0.125000  0.000000     16.000000
  0.250000 -0.125000  0.000000     32.000000
  0.375000  0.125000  0.000000     32.000000
  0.500000 -0.375000  0.000000     32.000000
  0.125000  0.500000  0.000000     32.000000
 -0.375000  0.125000  0.000000     32.000000
 -0.250000  0.375000  0.000000     32.000000
  0.125000  0.250000  0.000000     32.000000
 -0.125000  0.125000  0.000000     16.000000
  0.000000  0.125000  0.000000     32.000000
  0.375000  0.375000  0.000000     16.000000
 -0.250000 -0.375000  0.000000     32.000000
 -0.375000  0.375000  0.000000     16.000000
  0.000000  0.375000  0.000000     32.000000
 
 Following cartesian coordinates:
            Coordinates               Weight
  0.024879  0.000000  0.000000     16.000000
  0.012439 -0.021546  0.000000     32.000000
  0.049758 -0.014364  0.000000     32.000000
  0.012439 -0.050273  0.000000     32.000000
  0.062197  0.021546  0.000000     32.000000
 -0.024879  0.028727  0.000000     32.000000
  0.012439  0.035909  0.000000     32.000000
  0.037318  0.007182  0.000000     32.000000
  0.000000  0.014364  0.000000     16.000000
  0.012439  0.007182  0.000000     32.000000
  0.074636  0.000000  0.000000     16.000000
 -0.062197 -0.007182  0.000000     32.000000
  0.000000  0.043091  0.000000     16.000000
  0.037318  0.021546  0.000000     32.000000
 


--------------------------------------------------------------------------------------------------------




 Dimension of arrays:
   k-points           NKPTS =     14   k-points in BZ     NKDIM =     14   number of bands    NBANDS=     96
   number of dos      NEDOS =   1200   number of ions     NIONS =     31
   non local maximal  LDIM  =      4   non local SUM 2l+1 LMDIM =      8
   total plane-waves  NPLWV = ******
   max r-space proj   IRMAX =   6598   max aug-charges    IRDMAX=   8974
   dimension x,y,z NGX =    80 NGY =   80 NGZ =  270
   dimension x,y,z NGXF=   160 NGYF=  160 NGZF=  540
   support grid    NGXF=   160 NGYF=  160 NGZF=  540
   ions per type =              15  16
   NGX,Y,Z   is equivalent  to a cutoff of  13.24, 13.24, 12.78 a.u.
   NGXF,Y,Z  is equivalent  to a cutoff of  26.47, 26.47, 25.57 a.u.

 SYSTEM =  SiC                                     
 POSCAR =  B N                                     

 Startparameter for this run:
   NWRITE =      2    write-flag & timer
   PREC   = accura    normal or accurate (medium, high low for compatibility)
   ISTART =      1    job   : 0-new  1-cont  2-samecut
   ICHARG =      0    charge: 1-file 2-atom 10-const
   ISPIN  =      2    spin polarized calculation?
   LNONCOLLINEAR =      F non collinear calculations
   LSORBIT =      F    spin-orbit coupling
   INIWAV =      1    electr: 0-lowe 1-rand  2-diag
   LASPH  =      T    aspherical Exc in radial PAW
   METAGGA=      F    non-selfconsistent MetaGGA calc.

 Electronic Relaxation 1
   ENCUT  =  550.0 eV  40.42 Ry    6.36 a.u.  19.22 19.22 67.15*2*pi/ulx,y,z
   ENINI  =  550.0     initial cutoff
   ENAUG  =  627.1 eV  augmentation charge cutoff
   NELM   =    100;   NELMIN=  2; NELMDL=  0     # of ELM steps 
   EDIFF  = 0.1E-04   stopping-criterion for ELM
   LREAL  =      T    real-space projection
   NLSPLINE    = F    spline interpolate recip. space projectors
   LCOMPAT=      F    compatible to vasp.4.4
   GGA_COMPAT  = T    GGA compatible to vasp.4.4-vasp.4.6
   LMAXPAW     = -100 max onsite density
   LMAXMIX     =    2 max onsite mixed and CHGCAR
   VOSKOWN=      0    Vosko Wilk Nusair interpolation
   ROPT   =   -0.00025  -0.00025
 Ionic relaxation
   EDIFFG = -.2E-01   stopping-criterion for IOM
   NSW    =    500    number of steps for IOM
   NBLOCK =      1;   KBLOCK =    500    inner block; outer block 
   IBRION =      2    ionic relax: 0-MD 1-quasi-New 2-CG
   NFREE  =      1    steps in history (QN), initial steepest desc. (CG)
   ISIF   =      2    stress and relaxation
   IWAVPR =     11    prediction:  0-non 1-charg 2-wave 3-comb
   ISYM   =      2    0-nonsym 1-usesym 2-fastsym
   LCORR  =      T    Harris-Foulkes like correction to forces

   POTIM  = 0.5000    time-step for ionic-motion
   TEIN   =    0.0    initial temperature
   TEBEG  =    0.0;   TEEND  =   0.0 temperature during run
   SMASS  =  -3.00    Nose mass-parameter (am)
   estimated Nose-frequenzy (Omega)   =  0.10E-29 period in steps =****** mass=  -0.231E-26a.u.
   SCALEE = 1.0000    scale energy and forces
   NPACO  =    256;   APACO  = 16.0  distance and # of slots for P.C.
   PSTRESS=    0.0 pullay stress

  Mass of Ions in am
   POMASS =  10.81 14.00
  Ionic Valenz
   ZVAL   =   3.00  5.00
  Atomic Wigner-Seitz radii
   RWIGS  =  -1.00 -1.00
  virtual crystal weights 
   VCA    =   1.00  1.00
   NELECT =     125.0000    total number of electrons
   NUPDOWN=      -1.0000    fix difference up-down

 DOS related values:
   EMIN   =  10.00;   EMAX   =-10.00  energy-range for DOS
   EFERMI =   0.00
   ISMEAR =     0;   SIGMA  =   0.05  broadening in eV -4-tet -1-fermi 0-gaus

 Electronic relaxation 2 (details)
   IALGO  =     68    algorithm
   LDIAG  =      T    sub-space diagonalisation (order eigenvalues)
   LSUBROT=      F    optimize rotation matrix (better conditioning)
   TURBO    =      0    0=normal 1=particle mesh
   IRESTART =      0    0=no restart 2=restart with 2 vectors
   NREBOOT  =      0    no. of reboots
   NMIN     =      0    reboot dimension
   EREF     =   0.00    reference energy to select bands
   IMIX   =      4    mixing-type and parameters
     AMIX     =   0.40;   BMIX     =  1.00
     AMIX_MAG =   1.60;   BMIX_MAG =  1.00
     AMIN     =   0.10
     WC   =   100.;   INIMIX=   1;  MIXPRE=   1;  MAXMIX= -45

 Intra band minimization:
   WEIMIN = 0.0010     energy-eigenvalue tresh-hold
   EBREAK =  0.26E-07  absolut break condition
   DEPER  =   0.30     relativ break condition  

   TIME   =   0.40     timestep for ELM

  volume/ion in A,a.u.               =      99.06       668.46
  Fermi-wavevector in a.u.,A,eV,Ry     =   0.563158  1.064214  4.315046  0.317147
  Thomas-Fermi vector in A             =   1.600181
 
 Write flags
   LWAVE        =      T    write WAVECAR
   LDOWNSAMPLE  =      F    k-point downsampling of WAVECAR
   LCHARG       =      F    write CHGCAR
   LVTOT        =      F    write LOCPOT, total local potential
   LVHAR        =      T    write LOCPOT, Hartree potential only
   LELF         =      F    write electronic localiz. function (ELF)
   LORBIT       =     11    0 simple, 1 ext, 2 COOP (PROOUT), +10 PAW based schemes


 Dipole corrections
   LMONO  =      F    monopole corrections only (constant potential shift)
   LDIPOL =      F    correct potential (dipole corrections)
   IDIPOL =      0    1-x, 2-y, 3-z, 4-all directions 
   EPSILON=  1.0000000 bulk dielectric constant

 Exchange correlation treatment:
   GGA     =    --    GGA type
   LEXCH   =     8    internal setting for exchange type
   VOSKOWN=      0    Vosko Wilk Nusair interpolation
   LHFCALC =     F    Hartree Fock is set to
   LHFONE  =     F    Hartree Fock one center treatment
   AEXX    =    0.0000 exact exchange contribution

 Linear response parameters
   LEPSILON=     F    determine dielectric tensor
   LRPA    =     F    only Hartree local field effects (RPA)
   LNABLA  =     F    use nabla operator in PAW spheres
   LVEL    =     F    velocity operator in full k-point grid
   LINTERFAST=   F  fast interpolation
   KINTER  =     0    interpolate to denser k-point grid
   CSHIFT  =0.1000    complex shift for real part using Kramers Kronig
   OMEGAMAX=  -1.0    maximum frequency
   DEG_THRESHOLD= 0.2000000E-02 threshold for treating states as degnerate
   RTIME   =   -0.100 relaxation time in fs
  (WPLASMAI=    0.000 imaginary part of plasma frequency in eV, 0.658/RTIME)
   DFIELD  = 0.0000000 0.0000000 0.0000000 field for delta impulse in time
 
 Orbital magnetization related:
   ORBITALMAG=     F  switch on orbital magnetization
   LCHIMAG   =     F  perturbation theory with respect to B field
   DQ        =  0.001000  dq finite difference perturbation B field
   LLRAUG    =     F  two centre corrections for induced B field

 Solvation model:
   LSOL    =     T         switch on solvation model
   EB_K    = 78.400000     relative permittivity of the bulk solvent
   SIGMA_K =  0.600000     width of the dielectric cavity
   NC_K    =  0.002500     cutoff charge density
   TAU     =  0.000000     cavity surface tension
   LAMBDA_D_K    =  3.040000     Debye length in Angstroms
   LRHOB     =     F     write boundcharge  density
   LRHOION     =     F     write ioniccharge density



--------------------------------------------------------------------------------------------------------


 conjugate gradient relaxation of ions
   using selective dynamics as specified on POSCAR
 charge density and potential will be updated during run
 spin polarized calculation
 RMM-DIIS sequential band-by-band and
  variant of blocked Davidson during initial phase
 perform sub-space diagonalisation
    before iterative eigenvector-optimisation
 modified Broyden-mixing scheme, WC =      100.0
 initial mixing is a Kerker type mixing with AMIX =  0.4000 and BMIX =      1.0000
 Hartree-type preconditioning will be used
 using additional bands           33
 real space projection scheme for non local part
 use partial core corrections
 calculate Harris-corrections to forces 
   (improved forces if not selfconsistent)
 use gradient corrections 
 use of overlap-Matrix (Vanderbilt PP)
 Gauss-broadening in eV      SIGMA  =   0.05


--------------------------------------------------------------------------------------------------------


  energy-cutoff  :      550.00
  volume of cell :     3070.74
      direct lattice vectors                 reciprocal lattice vectors
     5.024366704 -8.702497373  0.000000000     0.099515029 -0.057454772  0.000000000
     5.024366704  8.702497373  0.000000000     0.099515029  0.057454772  0.000000000
     0.000000000  0.000000000 35.114664386     0.000000000  0.000000000  0.028478131

  length of vectors
    10.048767154 10.048767154 35.114664386     0.114909929  0.114909929  0.028478131


 
 old parameters found on file WAVECAR:
  energy-cutoff  :      550.00
  volume of cell :     3070.74
      direct lattice vectors                 reciprocal lattice vectors
     5.024366704 -8.702497373  0.000000000     0.099515029 -0.057454772  0.000000000
     5.024366704  8.702497373  0.000000000     0.099515029  0.057454772  0.000000000
     0.000000000  0.000000000 35.114664386     0.000000000  0.000000000  0.028478131

  length of vectors

 
 k-points in units of 2pi/SCALE and weight: K-Point Grid                            
   0.02487876  0.00000000  0.00000000       0.042
   0.01243938 -0.02154554  0.00000000       0.083
   0.04975751 -0.01436369  0.00000000       0.083
   0.01243938 -0.05027293  0.00000000       0.083
   0.06219689  0.02154554  0.00000000       0.083
  -0.02487876  0.02872739  0.00000000       0.083
   0.01243938  0.03590923  0.00000000       0.083
   0.03731814  0.00718185  0.00000000       0.083
   0.00000000  0.01436369  0.00000000       0.042
   0.01243938  0.00718185  0.00000000       0.083
   0.07463627  0.00000000  0.00000000       0.042
  -0.06219689 -0.00718185  0.00000000       0.083
   0.00000000  0.04309108  0.00000000       0.042
   0.03731814  0.02154554  0.00000000       0.083
 
 k-points in reciprocal lattice and weights: K-Point Grid                            
   0.12500000  0.12500000  0.00000000       0.042
   0.25000000 -0.12500000  0.00000000       0.083
   0.37500000  0.12500000  0.00000000       0.083
   0.50000000 -0.37500000  0.00000000       0.083
   0.12500000  0.50000000  0.00000000       0.083
  -0.37500000  0.12500000  0.00000000       0.083
  -0.25000000  0.37500000  0.00000000       0.083
   0.12500000  0.25000000  0.00000000       0.083
  -0.12500000  0.12500000  0.00000000       0.042
   0.00000000  0.12500000  0.00000000       0.083
   0.37500000  0.37500000  0.00000000       0.042
  -0.25000000 -0.37500000  0.00000000       0.083
  -0.37500000  0.37500000  0.00000000       0.042
   0.00000000  0.37500000  0.00000000       0.083
 
 position of ions in fractional coordinates (direct lattice) 
   0.16680731  0.08356160  0.50000000
   0.16688722  0.33423893  0.50000000
   0.16689842  0.58258603  0.50000000
   0.16681394  0.83318706  0.50000000
   0.41656823  0.08325056  0.50000000
   0.41740614  0.33424742  0.50000000
   0.41741496  0.83310257  0.50000000
   0.66673839  0.08342053  0.50000000
   0.66673537  0.33326563  0.50000000
   0.66575358  0.58259486  0.50000000
   0.66576207  0.83311377  0.50000000
   0.91674246  0.08325854  0.50000000
   0.91658047  0.33326261  0.50000000
   0.91675044  0.58343277  0.50000000
   0.91643940  0.83319369  0.50000000
   0.08297220  0.16617419  0.50000000
   0.08233069  0.41613424  0.50000000
   0.08298498  0.66673905  0.50000000
   0.08335565  0.91664535  0.50000000
   0.33325774  0.16617472  0.50000000
   0.32849774  0.40693874  0.50000000
   0.32851183  0.67148916  0.50000000
   0.33326195  0.91701602  0.50000000
   0.58330175  0.16662575  0.50000000
   0.59306226  0.67150326  0.50000000
   0.58386676  0.91767031  0.50000000
   0.83337726  0.16662374  0.50000000
   0.83337525  0.41669925  0.50000000
   0.83382628  0.66674326  0.50000000
   0.83382681  0.91702880  0.50000000
   0.58385987  0.41614113  0.50000000
 
 position of ions in cartesian coordinates  (Angst):
   1.25794522 -0.72444552 17.55733219
   2.51784157  1.45637779 17.55733219
   3.76568476  3.61752033 17.55733219
   5.02437172  5.79911029 17.55733219
   2.51127288 -2.90069616 17.55733219
   3.77658311 -0.72368849 17.55733219
   6.28305868  3.61752033 17.55733219
   3.76907348 -5.07632215 17.55733219
   5.02437172 -2.90201953 17.55733219
   6.27216034 -0.72368849 17.55733219
   7.53090187  1.45637779 17.55733219
   5.02437172 -7.25339161 17.55733219
   6.27966996 -5.07632215 17.55733219
   7.53747056 -2.90069616 17.55733219
   8.79079822 -0.72444552 17.55733219
   1.25180283  0.72406515 17.55733219
   2.50447061  2.90492449 17.55733219
   3.76688844  5.08011820 17.55733219
   5.02437172  7.25170136 17.55733219
   2.50933183 -1.45403957 17.55733219
   3.69510255  0.68263264 17.55733219
   5.02437172  2.98475931 17.55733219
   6.28185500  5.08011820 17.55733219
   3.76791073 -3.62612180 17.55733219
   6.35364090  0.68263264 17.55733219
   7.54427283  2.90492449 17.55733219
   5.02437172 -5.80242069 17.55733219
   6.28083271 -3.62612180 17.55733219
   7.53941161 -1.45403957 17.55733219
   8.79694061  0.72406515 17.55733219
   5.02437172 -1.45957188 17.55733219
 


--------------------------------------------------------------------------------------------------------


 k-point  1 :   0.1250 0.1250 0.0000  plane waves:   89921
 k-point  2 :   0.2500-0.1250 0.0000  plane waves:   89921
 k-point  3 :   0.3750 0.1250 0.0000  plane waves:   89970
 k-point  4 :   0.5000-0.3750 0.0000  plane waves:   89970
 k-point  5 :   0.1250 0.5000 0.0000  plane waves:   89970
 k-point  6 :  -0.3750 0.1250 0.0000  plane waves:   89943
 k-point  7 :  -0.2500 0.3750 0.0000  plane waves:   89943
 k-point  8 :   0.1250 0.2500 0.0000  plane waves:   89943
 k-point  9 :  -0.1250 0.1250 0.0000  plane waves:   89893
 k-point 10 :   0.0000 0.1250 0.0000  plane waves:   89893
 k-point 11 :   0.3750 0.3750 0.0000  plane waves:   89957
 k-point 12 :  -0.2500-0.3750 0.0000  plane waves:   89957
 k-point 13 :  -0.3750 0.3750 0.0000  plane waves:   89980
 k-point 14 :   0.0000 0.3750 0.0000  plane waves:   89980

 maximum and minimum number of plane-waves per node :     15049    14933

 maximum number of plane-waves:     89980
 maximum index in each direction: 
   IXMAX=   19   IYMAX=   19   IZMAX=   67
   IXMIN=  -19   IYMIN=  -19   IZMIN=  -67


 real space projection operators:
  total allocation   :       9853.06 KBytes
  max/ min on nodes  :       1715.25       1594.88


 parallel 3D FFT for wavefunctions:
    minimum data exchange during FFTs selected (reduces bandwidth)
 parallel 3D FFT for charge:
    minimum data exchange during FFTs selected (reduces bandwidth)


 total amount of memory used by VASP MPI-rank0   328885. kBytes
=======================================================================

   base      :      30000. kBytes
   nonlr-proj:       5573. kBytes
   fftplans  :      29100. kBytes
   grid      :     101821. kBytes
   one-center:         36. kBytes
   wavefun   :     162355. kBytes
 
     INWAV:  cpu time   19.9572: real time   20.4897
 Broyden mixing: mesh for mixing (old mesh)
   NGX = 39   NGY = 39   NGZ =135
  (NGX  =160   NGY  =160   NGZ  =540)
  gives a total of 205335 points

 charge density for first step will be calculated from the start-wavefunctions


--------------------------------------------------------------------------------------------------------


 Maximum index for non-local projection operator         1233
 Maximum index for augmentation-charges          481 (set IRDMAX)


--------------------------------------------------------------------------------------------------------


 initial charge from wavefunction
 First call to EWALD:  gamma=   0.122
 Maximum number of real-space cells 4x 4x 1
 Maximum number of reciprocal cells 2x 2x 6

    FEWALD:  cpu time    0.0341: real time    0.0372


--------------------------------------- Iteration      1(   1)  ---------------------------------------


    POTLOK:  cpu time   42.1242: real time   42.1582
    SETDIJ:  cpu time    0.9291: real time    0.9346
     EDDAV:  cpu time  187.2658: real time  101.1480
       DOS:  cpu time    0.1213: real time    0.1271
    CHARGE:  cpu time   24.0363: real time   22.2103
    MIXING:  cpu time    0.1322: real time    0.1850
    --------------------------------------------
      LOOP:  cpu time  254.6089: real time  166.7634

 eigenvalue-minimisations  :  5904
 total energy-change (2. order) :-0.2961865E+03  (-0.6071064E+00)
 number of electron     124.9999988 magnetization       2.9952369
 augmentation part        3.5947498 magnetization       0.3619894

 Broyden mixing:
  rms(total) = 0.25736E+00    rms(broyden)= 0.25718E+00
  rms(prec ) = 0.26045E+00
  weight for this iteration     100.00

 Free energy of the ion-electron system (eV)
  ---------------------------------------------------
  alpha Z        PSCENC =        28.03727721
  Ewald energy   TEWEN  =     38964.97901323
  -Hartree energ DENC   =    -43457.40341056
  -exchange      EXHF   =         0.00000000
  -V(xc)+E(xc)   XCENC  =       541.30391604
  PAW double counting   =     13980.09163981   -14036.05204786
  entropy T*S    EENTRO =        -0.00101821
  eigenvalues    EBANDS =     -1710.37803097
  atomic energy  EATOM  =      5300.13209638
  Solvation  Ediel_sol  =        93.10406524
  ---------------------------------------------------
  free energy    TOTEN  =      -296.18649969 eV

  energy without entropy =     -296.18548148  energy(sigma->0) =     -296.18599059


--------------------------------------------------------------------------------------------------------




--------------------------------------- Iteration      1(   2)  ---------------------------------------


    POTLOK:  cpu time   35.2289: real time   35.2474
    SETDIJ:  cpu time    0.8660: real time    0.8660
    EDDIAG:  cpu time   27.1318: real time   22.1927
  RMM-DIIS:  cpu time  236.3677: real time  128.2986
    ORTHCH:  cpu time    0.3602: real time    0.2182
       DOS:  cpu time    0.0043: real time    0.0021
    CHARGE:  cpu time   25.0097: real time   22.7088
    MIXING:  cpu time    0.0720: real time    0.0745
    --------------------------------------------
      LOOP:  cpu time  325.0406: real time  209.6084

 eigenvalue-minimisations  :  5376
 total energy-change (2. order) : 0.5194009E-01  (-0.2525698E-01)
 number of electron     124.9999988 magnetization       2.9955638
 augmentation part        3.5716374 magnetization       0.3685607

 Broyden mixing:
  rms(total) = 0.13867E+00    rms(broyden)= 0.13866E+00
  rms(prec ) = 0.13990E+00
  weight for this iteration     100.00

 eigenvalues of (default mixing * dielectric matrix)
  average eigenvalue GAMMA=   0.9423
  0.9423

 Free energy of the ion-electron system (eV)
  ---------------------------------------------------
  alpha Z        PSCENC =        28.03727721
  Ewald energy   TEWEN  =     38964.97901323
  -Hartree energ DENC   =    -43463.89925218
  -exchange      EXHF   =         0.00000000
  -V(xc)+E(xc)   XCENC  =       541.97148106
  PAW double counting   =     14389.78435596   -14445.55906466
  entropy T*S    EENTRO =        -0.00115591
  eigenvalues    EBANDS =     -1704.12693785
  atomic energy  EATOM  =      5300.13209638
  Solvation  Ediel_sol  =        92.54762715
  ---------------------------------------------------
  free energy    TOTEN  =      -296.13455961 eV

  energy without entropy =     -296.13340369  energy(sigma->0) =     -296.13398165


--------------------------------------------------------------------------------------------------------




--------------------------------------- Iteration      1(   3)  ---------------------------------------


    POTLOK:  cpu time   35.0426: real time   35.0579
    SETDIJ:  cpu time    0.6883: real time    0.6885
    EDDIAG:  cpu time   27.2945: real time   22.3080
  RMM-DIIS:  cpu time  235.7189: real time  127.3412
    ORTHCH:  cpu time    0.3629: real time    0.1818
       DOS:  cpu time    0.0072: real time    0.0036
    CHARGE:  cpu time   24.1160: real time   22.1976
    MIXING:  cpu time    0.0859: real time    0.0859
    --------------------------------------------
      LOOP:  cpu time  323.3164: real time  207.8645

 eigenvalue-minimisations  :  5376
 total energy-change (2. order) : 0.3011768E-02  (-0.7943699E-02)
 number of electron     124.9999988 magnetization       2.9958449
 augmentation part        3.5573334 magnetization       0.3713932

 Broyden mixing:
  rms(total) = 0.75102E-01    rms(broyden)= 0.75100E-01
  rms(prec ) = 0.75351E-01
  weight for this iteration     100.00

 eigenvalues of (default mixing * dielectric matrix)
  average eigenvalue GAMMA=   1.2891
  1.9438  0.6344

 Free energy of the ion-electron system (eV)
  ---------------------------------------------------
  alpha Z        PSCENC =        28.03727721
  Ewald energy   TEWEN  =     38964.97901323
  -Hartree energ DENC   =    -43467.02277028
  -exchange      EXHF   =         0.00000000
  -V(xc)+E(xc)   XCENC  =       542.18376036
  PAW double counting   =     14724.54604505   -14780.15662507
  entropy T*S    EENTRO =        -0.00125647
  eigenvalues    EBANDS =     -1701.31421288
  atomic energy  EATOM  =      5300.13209638
  Solvation  Ediel_sol  =        92.48512463
  ---------------------------------------------------
  free energy    TOTEN  =      -296.13154784 eV

  energy without entropy =     -296.13029137  energy(sigma->0) =     -296.13091960


--------------------------------------------------------------------------------------------------------




--------------------------------------- Iteration      1(   4)  ---------------------------------------


    POTLOK:  cpu time   34.0215: real time   34.0142
    SETDIJ:  cpu time    0.5410: real time    0.5411
    EDDIAG:  cpu time   27.1574: real time   22.1720
  RMM-DIIS:  cpu time  234.5697: real time  126.8569
    ORTHCH:  cpu time    0.3627: real time    0.1817
       DOS:  cpu time    0.0060: real time    0.0030
    CHARGE:  cpu time   24.4273: real time   22.4838
    MIXING:  cpu time    0.1012: real time    0.1012
    --------------------------------------------
      LOOP:  cpu time  321.1870: real time  206.3540

 eigenvalue-minimisations  :  5376
 total energy-change (2. order) :-0.7419992E-02  (-0.1427154E-02)
 number of electron     124.9999988 magnetization       2.9962102
 augmentation part        3.5543497 magnetization       0.3725383

 Broyden mixing:
  rms(total) = 0.27432E-01    rms(broyden)= 0.27430E-01
  rms(prec ) = 0.27709E-01
  weight for this iteration     100.00

 eigenvalues of (default mixing * dielectric matrix)
  average eigenvalue GAMMA=   1.3827
  2.3171  1.1847  0.6464

 Free energy of the ion-electron system (eV)
  ---------------------------------------------------
  alpha Z        PSCENC =        28.03727721
  Ewald energy   TEWEN  =     38964.97901323
  -Hartree energ DENC   =    -43467.42634290
  -exchange      EXHF   =         0.00000000
  -V(xc)+E(xc)   XCENC  =       542.19337347
  PAW double counting   =     14900.76378553   -14956.28244341
  entropy T*S    EENTRO =        -0.00130000
  eigenvalues    EBANDS =     -1701.16407417
  atomic energy  EATOM  =      5300.13209638
  Solvation  Ediel_sol  =        92.62964683
  ---------------------------------------------------
  free energy    TOTEN  =      -296.13896783 eV

  energy without entropy =     -296.13766783  energy(sigma->0) =     -296.13831783


--------------------------------------------------------------------------------------------------------




--------------------------------------- Iteration      1(   5)  ---------------------------------------


    POTLOK:  cpu time   33.9339: real time   33.9280
    SETDIJ:  cpu time    0.7839: real time    0.7839
    EDDIAG:  cpu time   27.0900: real time   22.1065
  RMM-DIIS:  cpu time  236.1698: real time  127.3969
    ORTHCH:  cpu time    0.3633: real time    0.1820
       DOS:  cpu time    0.0083: real time    0.0041
    CHARGE:  cpu time   24.1812: real time   22.2313
    MIXING:  cpu time    0.0860: real time    0.0860
    --------------------------------------------
      LOOP:  cpu time  322.6163: real time  206.7188

 eigenvalue-minimisations  :  5378
 total energy-change (2. order) :-0.7555089E-03  (-0.4646351E-03)
 number of electron     124.9999988 magnetization       2.9964037
 augmentation part        3.5595751 magnetization       0.3728967

 Broyden mixing:
  rms(total) = 0.59495E-02    rms(broyden)= 0.59470E-02
  rms(prec ) = 0.60627E-02
  weight for this iteration     100.00

 eigenvalues of (default mixing * dielectric matrix)
  average eigenvalue GAMMA=   1.3413
  2.4583  1.3385  0.9265  0.6418

 Free energy of the ion-electron system (eV)
  ---------------------------------------------------
  alpha Z        PSCENC =        28.03727721
  Ewald energy   TEWEN  =     38964.97901323
  -Hartree energ DENC   =    -43466.21605576
  -exchange      EXHF   =         0.00000000
  -V(xc)+E(xc)   XCENC  =       542.12436991
  PAW double counting   =     14974.63982020   -15030.11387105
  entropy T*S    EENTRO =        -0.00129867
  eigenvalues    EBANDS =     -1702.64734042
  atomic energy  EATOM  =      5300.13209638
  Solvation  Ediel_sol  =        92.92626563
  ---------------------------------------------------
  free energy    TOTEN  =      -296.13972334 eV

  energy without entropy =     -296.13842467  energy(sigma->0) =     -296.13907401


--------------------------------------------------------------------------------------------------------




--------------------------------------- Iteration      1(   6)  ---------------------------------------


    POTLOK:  cpu time   31.7208: real time   31.7107
    SETDIJ:  cpu time    0.5600: real time    0.5600
    EDDIAG:  cpu time   27.1290: real time   22.1442
  RMM-DIIS:  cpu time  236.9783: real time  128.0311
    ORTHCH:  cpu time    0.3648: real time    0.1828
       DOS:  cpu time    0.0067: real time    0.0034
    CHARGE:  cpu time   24.5239: real time   22.5380
    MIXING:  cpu time    0.0876: real time    0.0876
    --------------------------------------------
      LOOP:  cpu time  321.3712: real time  205.2578

 eigenvalue-minimisations  :  5412
 total energy-change (2. order) :-0.2020569E-04  (-0.3415692E-04)
 number of electron     124.9999988 magnetization       2.9965984
 augmentation part        3.5599427 magnetization       0.3732936

 Broyden mixing:
  rms(total) = 0.36156E-02    rms(broyden)= 0.36152E-02
  rms(prec ) = 0.36777E-02
  weight for this iteration     100.00

 eigenvalues of (default mixing * dielectric matrix)
  average eigenvalue GAMMA=   1.2574
  2.4338  1.2235  1.2235  0.6388  0.7671

 Free energy of the ion-electron system (eV)
  ---------------------------------------------------
  alpha Z        PSCENC =        28.03727721
  Ewald energy   TEWEN  =     38964.97901323
  -Hartree energ DENC   =    -43466.39959684
  -exchange      EXHF   =         0.00000000
  -V(xc)+E(xc)   XCENC  =       542.16094821
  PAW double counting   =     14979.33737855   -15034.80873873
  entropy T*S    EENTRO =        -0.00130838
  eigenvalues    EBANDS =     -1702.54702445
  atomic energy  EATOM  =      5300.13209638
  Solvation  Ediel_sol  =        92.97021127
  ---------------------------------------------------
  free energy    TOTEN  =      -296.13974355 eV

  energy without entropy =     -296.13843516  energy(sigma->0) =     -296.13908935


--------------------------------------------------------------------------------------------------------




--------------------------------------- Iteration      1(   7)  ---------------------------------------


    POTLOK:  cpu time   30.8370: real time   30.8304
    SETDIJ:  cpu time    0.7634: real time    0.7635
    EDDIAG:  cpu time   27.1182: real time   22.1319
  RMM-DIIS:  cpu time  236.8591: real time  128.6707
    ORTHCH:  cpu time    0.3627: real time    0.2152
       DOS:  cpu time    0.0037: real time    0.0019
    CHARGE:  cpu time   24.4948: real time   22.3677
    MIXING:  cpu time    0.0655: real time    0.0654
    --------------------------------------------
      LOOP:  cpu time  320.5043: real time  205.0467

 eigenvalue-minimisations  :  5373
 total energy-change (2. order) :-0.1649604E-03  (-0.8690946E-05)
 number of electron     124.9999988 magnetization       2.9969283
 augmentation part        3.5597446 magnetization       0.3736509

 Broyden mixing:
  rms(total) = 0.21534E-02    rms(broyden)= 0.21533E-02
  rms(prec ) = 0.21870E-02
  weight for this iteration     100.00

 eigenvalues of (default mixing * dielectric matrix)
  average eigenvalue GAMMA=   1.3797
  2.4860  2.1494  1.2945  1.0198  0.6306  0.6976

 Free energy of the ion-electron system (eV)
  ---------------------------------------------------
  alpha Z        PSCENC =        28.03727721
  Ewald energy   TEWEN  =     38964.97901323
  -Hartree energ DENC   =    -43466.57405392
  -exchange      EXHF   =         0.00000000
  -V(xc)+E(xc)   XCENC  =       542.16849611
  PAW double counting   =     14977.31726922   -15032.79005575
  entropy T*S    EENTRO =        -0.00131326
  eigenvalues    EBANDS =     -1702.42050597
  atomic energy  EATOM  =      5300.13209638
  Solvation  Ediel_sol  =        93.01186825
  ---------------------------------------------------
  free energy    TOTEN  =      -296.13990851 eV

  energy without entropy =     -296.13859524  energy(sigma->0) =     -296.13925188


--------------------------------------------------------------------------------------------------------




--------------------------------------- Iteration      1(   8)  ---------------------------------------


    POTLOK:  cpu time   31.1708: real time   31.1814
    SETDIJ:  cpu time    0.7915: real time    0.7915
    EDDIAG:  cpu time   27.1063: real time   22.1215
  RMM-DIIS:  cpu time  226.7857: real time  122.6406
    ORTHCH:  cpu time    0.3599: real time    0.2193
       DOS:  cpu time    0.0037: real time    0.0018
    CHARGE:  cpu time   24.2862: real time   22.3230
    MIXING:  cpu time    0.0886: real time    0.0886
    --------------------------------------------
      LOOP:  cpu time  310.5927: real time  199.3678

 eigenvalue-minimisations  :  5070
 total energy-change (2. order) :-0.1274162E-04  (-0.6225457E-05)
 number of electron     124.9999988 magnetization       2.9970836
 augmentation part        3.5596821 magnetization       0.3738071

 Broyden mixing:
  rms(total) = 0.89283E-03    rms(broyden)= 0.89264E-03
  rms(prec ) = 0.92395E-03
  weight for this iteration     100.00

 eigenvalues of (default mixing * dielectric matrix)
  average eigenvalue GAMMA=   1.3221
  2.5882  2.2693  1.2389  0.9056  0.9056  0.6284  0.7185

 Free energy of the ion-electron system (eV)
  ---------------------------------------------------
  alpha Z        PSCENC =        28.03727721
  Ewald energy   TEWEN  =     38964.97901323
  -Hartree energ DENC   =    -43466.73358599
  -exchange      EXHF   =         0.00000000
  -V(xc)+E(xc)   XCENC  =       542.17262007
  PAW double counting   =     14976.07193219   -15031.54520213
  entropy T*S    EENTRO =        -0.00131414
  eigenvalues    EBANDS =     -1702.34408116
  atomic energy  EATOM  =      5300.13209638
  Solvation  Ediel_sol  =        93.09132308
  ---------------------------------------------------
  free energy    TOTEN  =      -296.13992125 eV

  energy without entropy =     -296.13860711  energy(sigma->0) =     -296.13926418


--------------------------------------------------------------------------------------------------------




--------------------------------------- Iteration      1(   9)  ---------------------------------------


    POTLOK:  cpu time   29.2707: real time   29.2822
    SETDIJ:  cpu time    0.6635: real time    0.6636
    EDDIAG:  cpu time   27.1100: real time   22.1258
  RMM-DIIS:  cpu time  184.8294: real time   99.7624
    ORTHCH:  cpu time    0.3629: real time    0.1819
       DOS:  cpu time    0.0077: real time    0.0039
    --------------------------------------------
      LOOP:  cpu time  242.2443: real time  152.0197

 eigenvalue-minimisations  :  3631
 total energy-change (2. order) : 0.1871305E-05  (-0.9820867E-06)
 number of electron     124.9999988 magnetization       2.9970836
 augmentation part        3.5596821 magnetization       0.3738071

 Free energy of the ion-electron system (eV)
  ---------------------------------------------------
  alpha Z        PSCENC =        28.03727721
  Ewald energy   TEWEN  =     38964.97901323
  -Hartree energ DENC   =    -43466.77239802
  -exchange      EXHF   =         0.00000000
  -V(xc)+E(xc)   XCENC  =       542.17199491
  PAW double counting   =     14975.62620332   -15031.09957546
  entropy T*S    EENTRO =        -0.00131376
  eigenvalues    EBANDS =     -1702.33871238
  atomic energy  EATOM  =      5300.13209638
  Solvation  Ediel_sol  =        93.12549520
  ---------------------------------------------------
  free energy    TOTEN  =      -296.13991938 eV

  energy without entropy =     -296.13860561  energy(sigma->0) =     -296.13926249


--------------------------------------------------------------------------------------------------------




 average (electrostatic) potential at core
  the test charge radii are     0.7672  0.7089
  (the norm of the test charge is              1.0000)
       1 -38.6846       2 -38.5220       3 -38.5218       4 -38.6846       5 -38.7162
       6 -38.5219       7 -38.5218       8 -38.7706       9 -38.7706      10 -38.5218
      11 -38.5220      12 -38.7162      13 -38.7706      14 -38.7162      15 -38.6846
      16 -76.2913      17 -76.3757      18 -76.2911      19 -76.4533      20 -76.2911
      21 -75.9615      22 -75.9599      23 -76.2911      24 -76.4384      25 -75.9614
      26 -76.3757      27 -76.4385      28 -76.4384      29 -76.2911      30 -76.2913
      31 -76.3757
 
 
 
 E-fermi :  -6.1112     XC(G=0):  -1.2072     alpha+bet : -0.9949


 spin component 1

 k-point     1 :       0.1250    0.1250    0.0000
  band No.  band energies     occupation 
      1     -24.8780      1.00000
      2     -24.2131      1.00000
      3     -24.0394      1.00000
      4     -23.7469      1.00000
      5     -23.5988      1.00000
      6     -23.3801      1.00000
      7     -22.9713      1.00000
      8     -22.4454      1.00000
      9     -22.2050      1.00000
     10     -22.0976      1.00000
     11     -22.0057      1.00000
     12     -21.8356      1.00000
     13     -21.6731      1.00000
     14     -21.5673      1.00000
     15     -21.4174      1.00000
     16     -21.3261      1.00000
     17     -15.3589      1.00000
     18     -15.2539      1.00000
     19     -15.0344      1.00000
     20     -14.4958      1.00000
     21     -14.3792      1.00000
     22     -14.1852      1.00000
     23     -13.9925      1.00000
     24     -13.7463      1.00000
     25     -13.3660      1.00000
     26     -12.9612      1.00000
     27     -12.6525      1.00000
     28     -12.5596      1.00000
     29     -12.3340      1.00000
     30     -11.9944      1.00000
     31     -11.8350      1.00000
     32     -11.7405      1.00000
     33     -11.5163      1.00000
     34     -11.4909      1.00000
     35     -11.3039      1.00000
     36     -10.9173      1.00000
     37     -10.7019      1.00000
     38     -10.6201      1.00000
     39     -10.5792      1.00000
     40     -10.3890      1.00000
     41     -10.3703      1.00000
     42     -10.2962      1.00000
     43      -9.9821      1.00000
     44      -9.8165      1.00000
     45      -9.7811      1.00000
     46      -9.6436      1.00000
     47      -9.4930      1.00000
     48      -9.4441      1.00000
     49      -9.1313      1.00000
     50      -9.0788      1.00000
     51      -8.7395      1.00000
     52      -8.4259      1.00000
     53      -8.3029      1.00000
     54      -8.1601      1.00000
     55      -7.8245      1.00000
     56      -7.6798      1.00000
     57      -7.4286      1.00000
     58      -7.2619      1.00000
     59      -7.1472      1.00000
     60      -7.0592      1.00000
     61      -6.8827      1.00000
     62      -6.6081      1.00000
     63      -6.5564      1.00000
     64      -6.4269      1.00000
     65      -0.7564      0.00000
     66      -0.6916      0.00000
     67      -0.5483      0.00000
     68      -0.4685      0.00000
     69      -0.3582      0.00000
     70      -0.2060      0.00000
     71      -0.1116      0.00000
     72      -0.0549      0.00000
     73       0.2234      0.00000
     74       0.2309      0.00000
     75       0.3029      0.00000
     76       0.4652      0.00000
     77       0.5205      0.00000
     78       0.5400      0.00000
     79       0.8346      0.00000
     80       0.9389      0.00000
     81       0.9808      0.00000
     82       1.0855      0.00000
     83       1.1031      0.00000
     84       1.1850      0.00000
     85       1.1860      0.00000
     86       1.1905      0.00000
     87       1.2616      0.00000
     88       1.4420      0.00000
     89       1.4451      0.00000
     90       1.5442      0.00000
     91       1.5486      0.00000
     92       1.7385      0.00000
     93       1.7614      0.00000
     94       1.8697      0.00000
     95       1.8960      0.00000
     96       1.9807      0.00000

 k-point     2 :       0.2500   -0.1250    0.0000
  band No.  band energies     occupation 
      1     -24.8780      1.00000
      2     -24.2133      1.00000
      3     -24.0392      1.00000
      4     -23.7469      1.00000
      5     -23.5986      1.00000
      6     -23.3803      1.00000
      7     -22.9713      1.00000
      8     -22.4456      1.00000
      9     -22.2048      1.00000
     10     -22.0975      1.00000
     11     -22.0058      1.00000
     12     -21.8355      1.00000
     13     -21.6732      1.00000
     14     -21.5670      1.00000
     15     -21.4177      1.00000
     16     -21.3260      1.00000
     17     -15.3587      1.00000
     18     -15.2540      1.00000
     19     -15.0344      1.00000
     20     -14.4958      1.00000
     21     -14.3793      1.00000
     22     -14.1851      1.00000
     23     -13.9926      1.00000
     24     -13.7463      1.00000
     25     -13.3659      1.00000
     26     -12.9611      1.00000
     27     -12.6527      1.00000
     28     -12.5596      1.00000
     29     -12.3339      1.00000
     30     -11.9944      1.00000
     31     -11.8350      1.00000
     32     -11.7404      1.00000
     33     -11.5163      1.00000
     34     -11.4909      1.00000
     35     -11.3040      1.00000
     36     -10.9174      1.00000
     37     -10.7018      1.00000
     38     -10.6201      1.00000
     39     -10.5794      1.00000
     40     -10.3889      1.00000
     41     -10.3703      1.00000
     42     -10.2961      1.00000
     43      -9.9821      1.00000
     44      -9.8164      1.00000
     45      -9.7809      1.00000
     46      -9.6438      1.00000
     47      -9.4929      1.00000
     48      -9.4442      1.00000
     49      -9.1313      1.00000
     50      -9.0787      1.00000
     51      -8.7395      1.00000
     52      -8.4260      1.00000
     53      -8.3028      1.00000
     54      -8.1602      1.00000
     55      -7.8245      1.00000
     56      -7.6798      1.00000
     57      -7.4286      1.00000
     58      -7.2620      1.00000
     59      -7.1470      1.00000
     60      -7.0594      1.00000
     61      -6.8825      1.00000
     62      -6.6082      1.00000
     63      -6.5559      1.00000
     64      -6.4274      1.00000
     65      -0.7564      0.00000
     66      -0.6915      0.00000
     67      -0.5482      0.00000
     68      -0.4686      0.00000
     69      -0.3582      0.00000
     70      -0.2061      0.00000
     71      -0.1116      0.00000
     72      -0.0549      0.00000
     73       0.2234      0.00000
     74       0.2309      0.00000
     75       0.3028      0.00000
     76       0.4649      0.00000
     77       0.5208      0.00000
     78       0.5400      0.00000
     79       0.8346      0.00000
     80       0.9389      0.00000
     81       0.9809      0.00000
     82       1.0862      0.00000
     83       1.1024      0.00000
     84       1.1852      0.00000
     85       1.1858      0.00000
     86       1.1905      0.00000
     87       1.2615      0.00000
     88       1.4421      0.00000
     89       1.4449      0.00000
     90       1.5443      0.00000
     91       1.5486      0.00000
     92       1.7390      0.00000
     93       1.7612      0.00000
     94       1.8695      0.00000
     95       1.8957      0.00000
     96       1.9806      0.00000

 k-point     3 :       0.3750    0.1250    0.0000
  band No.  band energies     occupation 
      1     -24.7233      1.00000
      2     -24.5224      1.00000
      3     -24.1711      1.00000
      4     -23.7551      1.00000
      5     -23.2576      1.00000
      6     -22.9768      1.00000
      7     -22.9010      1.00000
      8     -22.6813      1.00000
      9     -22.5040      1.00000
     10     -22.2773      1.00000
     11     -22.1259      1.00000
     12     -21.8129      1.00000
     13     -21.6586      1.00000
     14     -21.5250      1.00000
     15     -21.3295      1.00000
     16     -21.1802      1.00000
     17     -15.1459      1.00000
     18     -14.9909      1.00000
     19     -14.8028      1.00000
     20     -14.7138      1.00000
     21     -14.5531      1.00000
     22     -14.3936      1.00000
     23     -14.1093      1.00000
     24     -13.6481      1.00000
     25     -13.5703      1.00000
     26     -13.3598      1.00000
     27     -12.8321      1.00000
     28     -12.7349      1.00000
     29     -12.4310      1.00000
     30     -11.8548      1.00000
     31     -11.6076      1.00000
     32     -11.3434      1.00000
     33     -11.2749      1.00000
     34     -11.1613      1.00000
     35     -11.0136      1.00000
     36     -10.9988      1.00000
     37     -10.8511      1.00000
     38     -10.7646      1.00000
     39     -10.5712      1.00000
     40     -10.4873      1.00000
     41     -10.3822      1.00000
     42     -10.2722      1.00000
     43     -10.1147      1.00000
     44     -10.0046      1.00000
     45      -9.7238      1.00000
     46      -9.4586      1.00000
     47      -9.3012      1.00000
     48      -9.1856      1.00000
     49      -8.9516      1.00000
     50      -8.8632      1.00000
     51      -8.7828      1.00000
     52      -8.5317      1.00000
     53      -8.4054      1.00000
     54      -8.3370      1.00000
     55      -8.2192      1.00000
     56      -7.9715      1.00000
     57      -7.6722      1.00000
     58      -7.3493      1.00000
     59      -7.0916      1.00000
     60      -6.8799      1.00000
     61      -6.8390      1.00000
     62      -6.6251      1.00000
     63      -6.4573      1.00000
     64      -6.4221      1.00000
     65      -0.7602      0.00000
     66      -0.6613      0.00000
     67      -0.5586      0.00000
     68      -0.4398      0.00000
     69      -0.2630      0.00000
     70      -0.1814      0.00000
     71       0.0182      0.00000
     72       0.1928      0.00000
     73       0.2552      0.00000
     74       0.3169      0.00000
     75       0.3812      0.00000
     76       0.4363      0.00000
     77       0.5040      0.00000
     78       0.5350      0.00000
     79       0.6167      0.00000
     80       0.7777      0.00000
     81       0.7927      0.00000
     82       0.8641      0.00000
     83       0.9171      0.00000
     84       0.9999      0.00000
     85       1.0554      0.00000
     86       1.1379      0.00000
     87       1.1720      0.00000
     88       1.2637      0.00000
     89       1.2960      0.00000
     90       1.3616      0.00000
     91       1.3791      0.00000
     92       1.4590      0.00000
     93       1.5435      0.00000
     94       1.6069      0.00000
     95       1.8204      0.00000
     96       2.0416      0.00000

 k-point     4 :       0.5000   -0.3750    0.0000
  band No.  band energies     occupation 
      1     -24.7232      1.00000
      2     -24.5226      1.00000
      3     -24.1710      1.00000
      4     -23.7550      1.00000
      5     -23.2576      1.00000
      6     -22.9769      1.00000
      7     -22.9011      1.00000
      8     -22.6813      1.00000
      9     -22.5041      1.00000
     10     -22.2775      1.00000
     11     -22.1256      1.00000
     12     -21.8128      1.00000
     13     -21.6585      1.00000
     14     -21.5250      1.00000
     15     -21.3296      1.00000
     16     -21.1801      1.00000
     17     -15.1458      1.00000
     18     -14.9908      1.00000
     19     -14.8029      1.00000
     20     -14.7139      1.00000
     21     -14.5532      1.00000
     22     -14.3938      1.00000
     23     -14.1093      1.00000
     24     -13.6482      1.00000
     25     -13.5702      1.00000
     26     -13.3597      1.00000
     27     -12.8321      1.00000
     28     -12.7348      1.00000
     29     -12.4308      1.00000
     30     -11.8548      1.00000
     31     -11.6077      1.00000
     32     -11.3438      1.00000
     33     -11.2748      1.00000
     34     -11.1614      1.00000
     35     -11.0137      1.00000
     36     -10.9987      1.00000
     37     -10.8510      1.00000
     38     -10.7646      1.00000
     39     -10.5712      1.00000
     40     -10.4871      1.00000
     41     -10.3822      1.00000
     42     -10.2720      1.00000
     43     -10.1149      1.00000
     44     -10.0045      1.00000
     45      -9.7238      1.00000
     46      -9.4586      1.00000
     47      -9.3012      1.00000
     48      -9.1858      1.00000
     49      -8.9516      1.00000
     50      -8.8631      1.00000
     51      -8.7829      1.00000
     52      -8.5318      1.00000
     53      -8.4052      1.00000
     54      -8.3371      1.00000
     55      -8.2193      1.00000
     56      -7.9715      1.00000
     57      -7.6721      1.00000
     58      -7.3494      1.00000
     59      -7.0917      1.00000
     60      -6.8796      1.00000
     61      -6.8384      1.00000
     62      -6.6251      1.00000
     63      -6.4578      1.00000
     64      -6.4221      1.00000
     65      -0.7602      0.00000
     66      -0.6613      0.00000
     67      -0.5586      0.00000
     68      -0.4398      0.00000
     69      -0.2629      0.00000
     70      -0.1815      0.00000
     71       0.0183      0.00000
     72       0.1928      0.00000
     73       0.2552      0.00000
     74       0.3170      0.00000
     75       0.3811      0.00000
     76       0.4364      0.00000
     77       0.5040      0.00000
     78       0.5350      0.00000
     79       0.6167      0.00000
     80       0.7778      0.00000
     81       0.7927      0.00000
     82       0.8641      0.00000
     83       0.9171      0.00000
     84       0.9999      0.00000
     85       1.0554      0.00000
     86       1.1379      0.00000
     87       1.1721      0.00000
     88       1.2637      0.00000
     89       1.2959      0.00000
     90       1.3616      0.00000
     91       1.3791      0.00000
     92       1.4591      0.00000
     93       1.5436      0.00000
     94       1.6070      0.00000
     95       1.8203      0.00000
     96       2.0419      0.00000

 k-point     5 :       0.1250    0.5000    0.0000
  band No.  band energies     occupation 
      1     -24.7233      1.00000
      2     -24.5224      1.00000
      3     -24.1711      1.00000
      4     -23.7551      1.00000
      5     -23.2575      1.00000
      6     -22.9769      1.00000
      7     -22.9011      1.00000
      8     -22.6813      1.00000
      9     -22.5039      1.00000
     10     -22.2774      1.00000
     11     -22.1259      1.00000
     12     -21.8129      1.00000
     13     -21.6586      1.00000
     14     -21.5249      1.00000
     15     -21.3295      1.00000
     16     -21.1802      1.00000
     17     -15.1459      1.00000
     18     -14.9910      1.00000
     19     -14.8028      1.00000
     20     -14.7139      1.00000
     21     -14.5532      1.00000
     22     -14.3935      1.00000
     23     -14.1092      1.00000
     24     -13.6481      1.00000
     25     -13.5704      1.00000
     26     -13.3598      1.00000
     27     -12.8321      1.00000
     28     -12.7349      1.00000
     29     -12.4310      1.00000
     30     -11.8547      1.00000
     31     -11.6076      1.00000
     32     -11.3436      1.00000
     33     -11.2749      1.00000
     34     -11.1615      1.00000
     35     -11.0136      1.00000
     36     -10.9986      1.00000
     37     -10.8511      1.00000
     38     -10.7645      1.00000
     39     -10.5712      1.00000
     40     -10.4873      1.00000
     41     -10.3823      1.00000
     42     -10.2722      1.00000
     43     -10.1147      1.00000
     44     -10.0046      1.00000
     45      -9.7237      1.00000
     46      -9.4585      1.00000
     47      -9.3012      1.00000
     48      -9.1858      1.00000
     49      -8.9516      1.00000
     50      -8.8631      1.00000
     51      -8.7829      1.00000
     52      -8.5318      1.00000
     53      -8.4053      1.00000
     54      -8.3369      1.00000
     55      -8.2192      1.00000
     56      -7.9715      1.00000
     57      -7.6722      1.00000
     58      -7.3493      1.00000
     59      -7.0916      1.00000
     60      -6.8799      1.00000
     61      -6.8390      1.00000
     62      -6.6250      1.00000
     63      -6.4573      1.00000
     64      -6.4221      1.00000
     65      -0.7602      0.00000
     66      -0.6612      0.00000
     67      -0.5586      0.00000
     68      -0.4398      0.00000
     69      -0.2630      0.00000
     70      -0.1814      0.00000
     71       0.0183      0.00000
     72       0.1928      0.00000
     73       0.2551      0.00000
     74       0.3170      0.00000
     75       0.3812      0.00000
     76       0.4363      0.00000
     77       0.5040      0.00000
     78       0.5350      0.00000
     79       0.6167      0.00000
     80       0.7778      0.00000
     81       0.7927      0.00000
     82       0.8640      0.00000
     83       0.9171      0.00000
     84       0.9999      0.00000
     85       1.0554      0.00000
     86       1.1379      0.00000
     87       1.1721      0.00000
     88       1.2637      0.00000
     89       1.2959      0.00000
     90       1.3616      0.00000
     91       1.3790      0.00000
     92       1.4590      0.00000
     93       1.5436      0.00000
     94       1.6070      0.00000
     95       1.8203      0.00000
     96       2.0427      0.00000

 k-point     6 :      -0.3750    0.1250    0.0000
  band No.  band energies     occupation 
      1     -24.8106      1.00000
      2     -24.3792      1.00000
      3     -24.1293      1.00000
      4     -23.7406      1.00000
      5     -23.4519      1.00000
      6     -23.1414      1.00000
      7     -22.8373      1.00000
      8     -22.6719      1.00000
      9     -22.3734      1.00000
     10     -22.1394      1.00000
     11     -22.1124      1.00000
     12     -21.8095      1.00000
     13     -21.6446      1.00000
     14     -21.5522      1.00000
     15     -21.3731      1.00000
     16     -21.2350      1.00000
     17     -15.2667      1.00000
     18     -15.0545      1.00000
     19     -14.9094      1.00000
     20     -14.6567      1.00000
     21     -14.5569      1.00000
     22     -14.2511      1.00000
     23     -14.0665      1.00000
     24     -13.7078      1.00000
     25     -13.2956      1.00000
     26     -13.1342      1.00000
     27     -13.0207      1.00000
     28     -12.6815      1.00000
     29     -12.2807      1.00000
     30     -11.9596      1.00000
     31     -11.7156      1.00000
     32     -11.4796      1.00000
     33     -11.3980      1.00000
     34     -11.3461      1.00000
     35     -11.1389      1.00000
     36     -10.9054      1.00000
     37     -10.8105      1.00000
     38     -10.6630      1.00000
     39     -10.5279      1.00000
     40     -10.5152      1.00000
     41     -10.3686      1.00000
     42     -10.1184      1.00000
     43     -10.0607      1.00000
     44      -9.9801      1.00000
     45      -9.8092      1.00000
     46      -9.5791      1.00000
     47      -9.5302      1.00000
     48      -9.1166      1.00000
     49      -9.0901      1.00000
     50      -8.8448      1.00000
     51      -8.7348      1.00000
     52      -8.5035      1.00000
     53      -8.4397      1.00000
     54      -8.3005      1.00000
     55      -8.0907      1.00000
     56      -7.7533      1.00000
     57      -7.6200      1.00000
     58      -7.3139      1.00000
     59      -7.1039      1.00000
     60      -6.9310      1.00000
     61      -6.7247      1.00000
     62      -6.7086      1.00000
     63      -6.5034      1.00000
     64      -6.4448      1.00000
     65      -0.6854      0.00000
     66      -0.6337      0.00000
     67      -0.6278      0.00000
     68      -0.4676      0.00000
     69      -0.3519      0.00000
     70      -0.1119      0.00000
     71       0.0104      0.00000
     72       0.0688      0.00000
     73       0.1236      0.00000
     74       0.2095      0.00000
     75       0.3514      0.00000
     76       0.3733      0.00000
     77       0.4340      0.00000
     78       0.6943      0.00000
     79       0.7379      0.00000
     80       0.8141      0.00000
     81       0.9560      0.00000
     82       0.9765      0.00000
     83       1.0618      0.00000
     84       1.0824      0.00000
     85       1.0899      0.00000
     86       1.1251      0.00000
     87       1.1778      0.00000
     88       1.2512      0.00000
     89       1.3242      0.00000
     90       1.4220      0.00000
     91       1.5952      0.00000
     92       1.6123      0.00000
     93       1.6629      0.00000
     94       1.6793      0.00000
     95       1.7987      0.00000
     96       1.9990      0.00000

 k-point     7 :      -0.2500    0.3750    0.0000
  band No.  band energies     occupation 
      1     -24.8105      1.00000
      2     -24.3792      1.00000
      3     -24.1293      1.00000
      4     -23.7405      1.00000
      5     -23.4520      1.00000
      6     -23.1414      1.00000
      7     -22.8373      1.00000
      8     -22.6719      1.00000
      9     -22.3737      1.00000
     10     -22.1393      1.00000
     11     -22.1123      1.00000
     12     -21.8094      1.00000
     13     -21.6446      1.00000
     14     -21.5522      1.00000
     15     -21.3732      1.00000
     16     -21.2350      1.00000
     17     -15.2667      1.00000
     18     -15.0545      1.00000
     19     -14.9094      1.00000
     20     -14.6567      1.00000
     21     -14.5569      1.00000
     22     -14.2512      1.00000
     23     -14.0667      1.00000
     24     -13.7077      1.00000
     25     -13.2957      1.00000
     26     -13.1340      1.00000
     27     -13.0207      1.00000
     28     -12.6814      1.00000
     29     -12.2806      1.00000
     30     -11.9596      1.00000
     31     -11.7157      1.00000
     32     -11.4795      1.00000
     33     -11.3980      1.00000
     34     -11.3464      1.00000
     35     -11.1389      1.00000
     36     -10.9054      1.00000
     37     -10.8106      1.00000
     38     -10.6630      1.00000
     39     -10.5279      1.00000
     40     -10.5151      1.00000
     41     -10.3684      1.00000
     42     -10.1186      1.00000
     43     -10.0606      1.00000
     44      -9.9800      1.00000
     45      -9.8093      1.00000
     46      -9.5792      1.00000
     47      -9.5303      1.00000
     48      -9.1166      1.00000
     49      -9.0900      1.00000
     50      -8.8448      1.00000
     51      -8.7349      1.00000
     52      -8.5035      1.00000
     53      -8.4397      1.00000
     54      -8.3005      1.00000
     55      -8.0909      1.00000
     56      -7.7532      1.00000
     57      -7.6199      1.00000
     58      -7.3139      1.00000
     59      -7.1041      1.00000
     60      -6.9307      1.00000
     61      -6.7248      1.00000
     62      -6.7084      1.00000
     63      -6.5034      1.00000
     64      -6.4450      1.00000
     65      -0.6854      0.00000
     66      -0.6337      0.00000
     67      -0.6278      0.00000
     68      -0.4677      0.00000
     69      -0.3518      0.00000
     70      -0.1120      0.00000
     71       0.0104      0.00000
     72       0.0688      0.00000
     73       0.1236      0.00000
     74       0.2095      0.00000
     75       0.3514      0.00000
     76       0.3734      0.00000
     77       0.4339      0.00000
     78       0.6943      0.00000
     79       0.7380      0.00000
     80       0.8141      0.00000
     81       0.9560      0.00000
     82       0.9765      0.00000
     83       1.0618      0.00000
     84       1.0824      0.00000
     85       1.0899      0.00000
     86       1.1253      0.00000
     87       1.1777      0.00000
     88       1.2511      0.00000
     89       1.3242      0.00000
     90       1.4220      0.00000
     91       1.5952      0.00000
     92       1.6122      0.00000
     93       1.6630      0.00000
     94       1.6793      0.00000
     95       1.7987      0.00000
     96       1.9982      0.00000

 k-point     8 :       0.1250    0.2500    0.0000
  band No.  band energies     occupation 
      1     -24.8106      1.00000
      2     -24.3791      1.00000
      3     -24.1294      1.00000
      4     -23.7406      1.00000
      5     -23.4521      1.00000
      6     -23.1412      1.00000
      7     -22.8374      1.00000
      8     -22.6717      1.00000
      9     -22.3736      1.00000
     10     -22.1394      1.00000
     11     -22.1123      1.00000
     12     -21.8095      1.00000
     13     -21.6447      1.00000
     14     -21.5523      1.00000
     15     -21.3730      1.00000
     16     -21.2350      1.00000
     17     -15.2668      1.00000
     18     -15.0544      1.00000
     19     -14.9094      1.00000
     20     -14.6567      1.00000
     21     -14.5567      1.00000
     22     -14.2512      1.00000
     23     -14.0666      1.00000
     24     -13.7078      1.00000
     25     -13.2956      1.00000
     26     -13.1342      1.00000
     27     -13.0207      1.00000
     28     -12.6814      1.00000
     29     -12.2808      1.00000
     30     -11.9597      1.00000
     31     -11.7156      1.00000
     32     -11.4794      1.00000
     33     -11.3980      1.00000
     34     -11.3463      1.00000
     35     -11.1388      1.00000
     36     -10.9052      1.00000
     37     -10.8105      1.00000
     38     -10.6632      1.00000
     39     -10.5280      1.00000
     40     -10.5152      1.00000
     41     -10.3684      1.00000
     42     -10.1185      1.00000
     43     -10.0606      1.00000
     44      -9.9800      1.00000
     45      -9.8091      1.00000
     46      -9.5792      1.00000
     47      -9.5303      1.00000
     48      -9.1165      1.00000
     49      -9.0900      1.00000
     50      -8.8449      1.00000
     51      -8.7350      1.00000
     52      -8.5033      1.00000
     53      -8.4396      1.00000
     54      -8.3005      1.00000
     55      -8.0908      1.00000
     56      -7.7532      1.00000
     57      -7.6200      1.00000
     58      -7.3138      1.00000
     59      -7.1040      1.00000
     60      -6.9309      1.00000
     61      -6.7248      1.00000
     62      -6.7090      1.00000
     63      -6.5034      1.00000
     64      -6.4445      1.00000
     65      -0.6855      0.00000
     66      -0.6337      0.00000
     67      -0.6278      0.00000
     68      -0.4676      0.00000
     69      -0.3518      0.00000
     70      -0.1119      0.00000
     71       0.0104      0.00000
     72       0.0688      0.00000
     73       0.1237      0.00000
     74       0.2094      0.00000
     75       0.3514      0.00000
     76       0.3733      0.00000
     77       0.4338      0.00000
     78       0.6943      0.00000
     79       0.7379      0.00000
     80       0.8141      0.00000
     81       0.9560      0.00000
     82       0.9765      0.00000
     83       1.0618      0.00000
     84       1.0825      0.00000
     85       1.0896      0.00000
     86       1.1254      0.00000
     87       1.1778      0.00000
     88       1.2511      0.00000
     89       1.3242      0.00000
     90       1.4220      0.00000
     91       1.5952      0.00000
     92       1.6123      0.00000
     93       1.6630      0.00000
     94       1.6792      0.00000
     95       1.7988      0.00000
     96       1.9979      0.00000

 k-point     9 :      -0.1250    0.1250    0.0000
  band No.  band energies     occupation 
      1     -24.9129      1.00000
      2     -24.0727      1.00000
      3     -23.9218      1.00000
      4     -23.8127      1.00000
      5     -23.6356      1.00000
      6     -23.5933      1.00000
      7     -23.0672      1.00000
      8     -22.2365      1.00000
      9     -22.1495      1.00000
     10     -21.9736      1.00000
     11     -21.9553      1.00000
     12     -21.9184      1.00000
     13     -21.7673      1.00000
     14     -21.5415      1.00000
     15     -21.4390      1.00000
     16     -21.4023      1.00000
     17     -15.4100      1.00000
     18     -15.3802      1.00000
     19     -15.1010      1.00000
     20     -14.3383      1.00000
     21     -14.2056      1.00000
     22     -14.1785      1.00000
     23     -13.9663      1.00000
     24     -13.7723      1.00000
     25     -13.5295      1.00000
     26     -12.7455      1.00000
     27     -12.5171      1.00000
     28     -12.2866      1.00000
     29     -12.2858      1.00000
     30     -12.1279      1.00000
     31     -12.0430      1.00000
     32     -11.6973      1.00000
     33     -11.6692      1.00000
     34     -11.5386      1.00000
     35     -11.4019      1.00000
     36     -11.0644      1.00000
     37     -10.9400      1.00000
     38     -10.6434      1.00000
     39     -10.3894      1.00000
     40     -10.3121      1.00000
     41     -10.2832      1.00000
[...]
 -0.000  -0.000  -0.000  -4.141   0.000  -0.000  -6.912   0.000
 -0.000  -0.001  -0.000   0.000  -4.157   0.000   0.000  -6.948
 pseudopotential strength for first ion, spin component:           2
  6.835  10.430  -0.000   0.000  -0.000  -0.000   0.000  -0.001
 10.430  15.913  -0.000   0.000  -0.001  -0.001   0.000  -0.001
 -0.000  -0.000  -2.417  -0.000   0.000  -4.159  -0.000   0.000
  0.000   0.000  -0.000  -2.409   0.000  -0.000  -4.139   0.000
 -0.000  -0.001   0.000   0.000  -2.417   0.000   0.000  -4.159
 -0.000  -0.001  -4.159  -0.000   0.000  -6.952  -0.000   0.000
  0.000   0.000  -0.000  -4.139   0.000  -0.000  -6.909   0.000
 -0.001  -0.001   0.000   0.000  -4.159   0.000   0.000  -6.952
 total augmentation occupancy for first ion, spin component:           1
  4.498  -1.370   0.001   0.000   0.002   0.001   0.000   0.001
 -1.370   0.444   0.002   0.000   0.003  -0.001   0.000  -0.001
  0.001   0.002   5.168   0.000  -0.028  -1.605   0.000   0.009
  0.000   0.000   0.000   1.694   0.000   0.000  -0.448   0.000
  0.002   0.003  -0.028   0.000   5.136   0.009   0.000  -1.595
  0.001  -0.001  -1.605   0.000   0.009   0.513   0.000  -0.003
  0.000   0.000   0.000  -0.448   0.000   0.000   0.120   0.000
  0.001  -0.001   0.009   0.000  -1.595  -0.003   0.000   0.510
 total augmentation occupancy for first ion, spin component:           2
 -0.000  -0.002   0.001   0.000   0.001  -0.000   0.000  -0.000
 -0.002   0.001  -0.000   0.000  -0.000  -0.000   0.000  -0.000
  0.001  -0.000   0.001   0.000   0.001  -0.003   0.000  -0.000
  0.000   0.000   0.000  -0.024   0.000   0.000   0.003   0.000
  0.001  -0.000   0.001   0.000   0.002  -0.000   0.000  -0.003
 -0.000  -0.000  -0.003   0.000  -0.000   0.002   0.000   0.000
  0.000   0.000   0.000   0.003   0.000   0.000   0.000   0.000
 -0.000  -0.000  -0.000   0.000  -0.003   0.000   0.000   0.002


------------------------ aborting loop because EDIFF is reached ----------------------------------------


 


 total charge     
 
# of ion       s       p       d       tot
------------------------------------------
    1        0.745   1.399   0.000   2.144
    2        0.751   1.424   0.000   2.175
    3        0.751   1.424   0.000   2.174
    4        0.745   1.399   0.000   2.144
    5        0.747   1.404   0.000   2.151
    6        0.750   1.424   0.000   2.175
    7        0.750   1.424   0.000   2.175
    8        0.746   1.404   0.000   2.150
    9        0.746   1.404   0.000   2.150
   10        0.751   1.424   0.000   2.175
   11        0.750   1.424   0.000   2.175
   12        0.747   1.404   0.000   2.151
   13        0.747   1.404   0.000   2.150
   14        0.748   1.403   0.000   2.151
   15        0.745   1.399   0.000   2.144
   16        1.241   2.810   0.000   4.051
   17        1.243   2.816   0.000   4.059
   18        1.241   2.809   0.000   4.050
   19        1.241   2.805   0.000   4.046
   20        1.241   2.811   0.000   4.052
   21        1.257   2.608   0.000   3.865
   22        1.257   2.606   0.000   3.863
   23        1.241   2.812   0.000   4.053
   24        1.240   2.815   0.000   4.055
   25        1.257   2.604   0.000   3.862
   26        1.243   2.810   0.000   4.053
   27        1.241   2.814   0.000   4.054
   28        1.241   2.812   0.000   4.053
   29        1.241   2.810   0.000   4.051
   30        1.241   2.811   0.000   4.052
   31        1.243   2.813   0.000   4.056
--------------------------------------------------
tot         31.128  65.530   0.000  96.658
 


 magnetization (x)
 
# of ion       s       p       d       tot
------------------------------------------
    1       -0.002  -0.009   0.000  -0.011
    2       -0.003  -0.011   0.000  -0.014
    3       -0.003  -0.011   0.000  -0.014
    4       -0.002  -0.009   0.000  -0.011
    5        0.001   0.001   0.000   0.002
    6       -0.003  -0.011   0.000  -0.014
    7       -0.003  -0.012   0.000  -0.015
    8       -0.002  -0.009   0.000  -0.011
    9       -0.002  -0.009   0.000  -0.011
   10       -0.003  -0.011   0.000  -0.015
   11       -0.003  -0.011   0.000  -0.015
   12        0.001   0.001   0.000   0.002
   13       -0.002  -0.009   0.000  -0.011
   14        0.001   0.001   0.000   0.002
   15       -0.002  -0.009   0.000  -0.011
   16        0.005   0.050   0.000   0.055
   17        0.003   0.060   0.000   0.063
   18        0.005   0.051   0.000   0.056
   19        0.003   0.059   0.000   0.062
   20        0.005   0.049   0.000   0.054
   21        0.052   0.537   0.000   0.589
   22        0.051   0.539   0.000   0.591
   23        0.005   0.048   0.000   0.053
   24        0.002   0.042   0.000   0.044
   25        0.051   0.541   0.000   0.592
   26        0.003   0.065   0.000   0.068
   27        0.002   0.043   0.000   0.045
   28        0.002   0.045   0.000   0.047
   29        0.005   0.050   0.000   0.055
   30        0.005   0.049   0.000   0.054
   31        0.003   0.063   0.000   0.065
--------------------------------------------------
tot          0.171   2.173   0.000   2.344
 
    CHARGE:  cpu time    3.1950: real time    2.5449
    FORLOC:  cpu time    0.1081: real time    0.1081
    FORNL :  cpu time   16.7459: real time    8.4991
    STRESS:  cpu time  391.0938: real time  354.7617
    FORCOR:  cpu time    2.2917: real time    2.2916
    FORHAR:  cpu time    0.2513: real time    0.2513
    MIXING:  cpu time    0.0596: real time    0.0596
    OFIELD:  cpu time    0.0001: real time    0.0001

  FORCE on cell =-STRESS in cart. coord.  units (eV):
  Direction    XX          YY          ZZ          XY          YZ          ZX
  --------------------------------------------------------------------------------------
  Alpha Z    28.03728    28.03728    28.03728
  Ewald   43136.65871 43136.68907-47305.10632     0.00000    -0.00000     0.00000
  Hartree 42968.37883 42968.38699-42466.67184     0.00021     0.00000    -0.00000
  E(xc)    -502.12291  -502.12526  -507.42613    -0.00819     0.00000    -0.00000
  Local  -87437.05976-87437.09372 88207.69801     0.00338     0.00000    -0.00000
  n-local  -233.30326  -233.30284  -230.80760    -0.00598    -0.00000     0.00000
  augment    16.77419    16.77383    19.20009     0.00005     0.00000    -0.00000
  Kinetic  2016.00685  2015.99170  2255.74151    -0.22048    -0.00000    -0.00000
  Fock        0.00000     0.00000     0.00000     0.00000     0.00000     0.00000
  -------------------------------------------------------------------------------------
  Total      -6.63008    -6.64295     0.66500     0.00000     0.00000     0.00000
  in kB      -3.45928    -3.46599     0.34697     0.00000     0.00000     0.00000
  external pressure =       -2.19 kB  Pullay stress =        0.00 kB


 VOLUME and BASIS-vectors are now :
 -----------------------------------------------------------------------------
  energy-cutoff  :      550.00
  volume of cell :     3070.74
      direct lattice vectors                 reciprocal lattice vectors
     5.024366704 -8.702497373  0.000000000     0.099515029 -0.057454772  0.000000000
     5.024366704  8.702497373  0.000000000     0.099515029  0.057454772  0.000000000
     0.000000000  0.000000000 35.114664386     0.000000000  0.000000000  0.028478131

  length of vectors
    10.048767154 10.048767154 35.114664386     0.114909929  0.114909929  0.028478131


 FORCES acting on ions
    electron-ion (+dipol)            ewald-force                    non-local-force                 convergence-correction
 -----------------------------------------------------------------------------------------------
   -.232E+01 -.134E+01 -.137E-07   0.270E+01 0.156E+01 -.231E-18   -.155E+00 -.890E-01 0.000E+00   -.731E-03 -.310E-03 0.220E-11
   -.168E+02 -.732E+01 0.160E-08   0.178E+02 0.701E+01 0.257E-18   -.269E+00 0.208E+00 0.000E+00   -.124E-02 -.772E-03 0.219E-11
   -.206E+01 0.182E+02 0.682E-07   0.284E+01 -.189E+02 0.144E-18   -.314E+00 0.130E+00 0.000E+00   0.106E-02 0.129E-02 0.222E-11
   0.151E-03 0.268E+01 -.133E-09   -.481E-11 -.312E+01 -.269E-18   0.000E+00 0.179E+00 0.000E+00   -.406E-07 0.300E-03 0.280E-11
   -.162E+01 0.939E+00 0.188E-07   0.135E+01 -.784E+00 -.238E-18   0.178E+00 -.103E+00 0.000E+00   -.206E-02 0.839E-03 0.234E-11
   -.147E+02 -.109E+02 -.275E-07   0.150E+02 0.119E+02 0.324E-19   0.446E-01 -.337E+00 0.000E+00   -.167E-02 -.483E-03 0.246E-11
   0.206E+01 0.182E+02 -.673E-07   -.284E+01 -.189E+02 -.162E-18   0.314E+00 0.130E+00 0.000E+00   -.106E-02 0.129E-02 0.233E-11
   0.190E+01 0.109E+01 -.354E-07   -.228E+01 -.131E+01 0.130E-19   0.114E+00 0.655E-01 0.000E+00   -.198E-03 -.836E-04 0.253E-11
   0.138E-03 -.219E+01 0.174E-09   0.930E-12 0.263E+01 0.118E-18   0.000E+00 -.131E+00 0.000E+00   -.377E-07 -.188E-03 0.252E-11
   0.147E+02 -.109E+02 0.277E-07   -.150E+02 0.119E+02 0.925E-19   -.446E-01 -.337E+00 0.000E+00   0.167E-02 -.483E-03 0.345E-11
   0.168E+02 -.732E+01 -.233E-08   -.178E+02 0.701E+01 -.645E-19   0.269E+00 0.208E+00 0.000E+00   0.124E-02 -.772E-03 0.116E-11
   0.119E-03 -.188E+01 -.679E-09   -.242E-12 0.157E+01 0.114E-18   0.000E+00 0.207E+00 0.000E+00   0.414E-08 -.221E-02 0.196E-11
   -.190E+01 0.109E+01 0.353E-07   0.228E+01 -.131E+01 0.311E-18   -.114E+00 0.655E-01 0.000E+00   0.198E-03 -.837E-04 0.207E-11
   0.162E+01 0.939E+00 -.195E-07   -.135E+01 -.784E+00 0.827E-20   -.178E+00 -.103E+00 0.000E+00   0.206E-02 0.840E-03 0.355E-11
   0.232E+01 -.134E+01 0.128E-07   -.270E+01 0.156E+01 -.193E-18   0.155E+00 -.890E-01 0.000E+00   0.731E-03 -.310E-03 0.280E-11
   -.898E+01 -.390E+01 0.305E-06   0.100E+02 0.388E+01 0.930E-19   -.450E+00 0.432E-01 0.000E+00   -.361E-02 -.474E-02 0.393E-11
   -.218E+02 0.126E+02 0.285E-06   0.233E+02 -.134E+02 0.599E-18   -.533E+00 0.310E+00 0.000E+00   0.422E-03 0.511E-06 0.345E-11
   -.111E+01 0.974E+01 -.161E-06   0.165E+01 -.106E+02 -.189E-18   -.262E+00 0.372E+00 0.000E+00   0.339E-02 0.475E-02 0.520E-11
   -.305E-02 0.741E-02 -.114E-09   -.396E-11 -.805E-02 -.565E-18   0.169E-20 0.485E-03 0.000E+00   0.361E-07 0.185E-03 0.478E-11
   -.788E+01 -.582E+01 0.415E-07   0.839E+01 0.674E+01 -.292E-18   -.190E+00 -.412E+00 0.000E+00   -.672E-02 -.290E-03 0.377E-11
   -.919E+02 -.530E+02 -.628E-07   0.102E+03 0.591E+02 0.387E-18   -.924E+01 -.533E+01 0.000E+00   -.873E-02 -.403E-02 0.388E-11
   -.258E-02 0.106E+03 0.125E-10   0.391E-11 -.118E+03 0.687E-19   0.000E+00 0.107E+02 0.000E+00   -.482E-07 0.103E-01 0.371E-11
   0.111E+01 0.974E+01 0.161E-06   -.165E+01 -.106E+02 -.538E-18   0.262E+00 0.372E+00 0.000E+00   -.339E-02 0.475E-02 0.511E-11
   0.723E+00 -.420E+00 0.985E-08   -.108E+01 0.628E+00 -.421E-19   0.149E+00 -.854E-01 0.000E+00   -.329E-03 -.574E-03 0.466E-11
   0.919E+02 -.530E+02 0.626E-07   -.102E+03 0.591E+02 0.112E-18   0.924E+01 -.533E+01 0.000E+00   0.873E-02 -.403E-02 0.267E-11
   0.218E+02 0.126E+02 -.285E-06   -.233E+02 -.134E+02 -.103E-18   0.533E+00 0.310E+00 0.000E+00   -.422E-03 0.541E-06 0.370E-11
   -.307E-02 0.837E+00 0.580E-12   -.417E-13 -.125E+01 0.288E-18   0.000E+00 0.173E+00 0.000E+00   -.277E-07 -.279E-03 0.549E-11
   -.729E+00 -.420E+00 -.983E-08   0.108E+01 0.628E+00 0.453E-18   -.149E+00 -.854E-01 0.000E+00   0.329E-03 -.574E-03 0.252E-11
   0.787E+01 -.582E+01 -.416E-07   -.839E+01 0.674E+01 -.918E-19   0.190E+00 -.412E+00 0.000E+00   0.672E-02 -.290E-03 0.111E-10
   0.898E+01 -.390E+01 -.305E-06   -.100E+02 0.388E+01 -.319E-18   0.450E+00 0.432E-01 0.000E+00   0.361E-02 -.474E-02 -.906E-12
   -.301E-02 -.251E+02 -.147E-10   0.113E-11 0.269E+02 0.206E-18   0.000E+00 -.617E+00 0.000E+00   -.570E-07 -.326E-03 0.589E-11
 -----------------------------------------------------------------------------------------------
   -.478E-01 0.169E-05 -.143E-07   0.467E-13 -.497E-13 0.000E+00   0.833E-15 0.158E-01 0.000E+00   -.124E-06 -.998E-03 0.106E-09
 
 
 POSITION                                       TOTAL-FORCE (eV/Angst)
 -----------------------------------------------------------------------------------
      1.25777     -0.72460     17.55733        -0.000381      0.000816      0.000000
      2.51415      1.45586     17.55733         0.000191      0.000587      0.000000
      3.76423      3.62099     17.55733        -0.000392     -0.000863      0.000000
      5.02437      5.79936     17.55733        -0.000000     -0.000288      0.000000
      2.51163     -2.90085     17.55733        -0.002694      0.001130      0.000000
      3.77432     -0.72671     17.55733         0.000493      0.000389      0.000000
      6.28452      3.62099     17.55733         0.000392     -0.000863      0.000000
      3.76904     -5.07633     17.55733        -0.002825     -0.002291      0.000000
      5.02437     -2.90198     17.55733        -0.000000      0.003481      0.000000
      6.27442     -0.72671     17.55733        -0.000493      0.000389      0.000000
      7.53459      1.45586     17.55733        -0.000191      0.000587      0.000000
      5.02437     -7.25302     17.55733        -0.000000     -0.002415      0.000000
      6.27971     -5.07633     17.55733         0.002825     -0.002291      0.000000
      7.53711     -2.90085     17.55733         0.002694      0.001130      0.000000
      8.79097     -0.72460     17.55733         0.000381      0.000816      0.000000
      1.24927      0.72331     17.55733        -0.001458      0.001684      0.000000
      2.50395      2.90520     17.55733        -0.002933      0.002069      0.000000
      3.76622      5.08273     17.55733        -0.002798      0.000447      0.000000
      5.02437      7.25172     17.55733        -0.000000     -0.000469      0.000000
      2.50744     -1.45586     17.55733         0.001520     -0.002591      0.000000
      3.68863      0.67891     17.55733         0.000739     -0.000346      0.000000
      5.02437      2.99231     17.55733        -0.000000     -0.000371      0.000000
      6.28252      5.08273     17.55733         0.002798      0.000447      0.000000
      3.76771     -3.62603     17.55733         0.001204      0.000073      0.000000
      6.36011      0.67891     17.55733        -0.000739     -0.000346      0.000000
      7.54480      2.90520     17.55733         0.002933      0.002069      0.000000
      5.02437     -5.80263     17.55733         0.000000      0.001616      0.000000
      6.28103     -3.62603     17.55733        -0.001204      0.000073      0.000000
      7.54131     -1.45586     17.55733        -0.001520     -0.002591      0.000000
      8.79947      0.72331     17.55733         0.001458      0.001684      0.000000
      5.02437     -1.46020     17.55733        -0.000000     -0.003763      0.000000
 -----------------------------------------------------------------------------------
    total drift:                               -0.047786      0.014756     -0.000000


--------------------------------------------------------------------------------------------------------



  FREE ENERGIE OF THE ION-ELECTRON SYSTEM (eV)
  ---------------------------------------------------
  free  energy   TOTEN  =      -296.14100282 eV

  energy  without entropy=     -296.13990725  energy(sigma->0) =     -296.14045503
 
 d Force = 0.7856025E-04[ 0.730E-05, 0.150E-03]  d Energy = 0.2253364E-03-0.147E-03
 d Force = 0.3308683E+00[ 0.330E+00, 0.331E+00]  d Ewald  = 0.3308684E+00-0.103E-06


--------------------------------------------------------------------------------------------------------


    POTLOK:  cpu time   28.5339: real time   28.5302


--------------------------------------------------------------------------------------------------------




--------------------------------------------------------------------------------------------------------


  
 reached required accuracy - stopping structural energy minimisation
 writing wavefunctions
     LOOP+:  cpu time 1589.0431: real time 1138.7625
    4ORBIT:  cpu time    0.0000: real time    0.0000
 


 total charge     
 
# of ion       s       p       d       tot
------------------------------------------
    1        0.745   1.399   0.000   2.144
    2        0.751   1.424   0.000   2.175
    3        0.751   1.424   0.000   2.174
    4        0.745   1.399   0.000   2.144
    5        0.747   1.404   0.000   2.151
    6        0.750   1.424   0.000   2.175
    7        0.750   1.424   0.000   2.175
    8        0.746   1.404   0.000   2.150
    9        0.746   1.404   0.000   2.150
   10        0.751   1.424   0.000   2.175
   11        0.750   1.424   0.000   2.175
   12        0.747   1.404   0.000   2.151
   13        0.747   1.404   0.000   2.150
   14        0.748   1.403   0.000   2.151
   15        0.745   1.399   0.000   2.144
   16        1.241   2.810   0.000   4.051
   17        1.243   2.816   0.000   4.059
   18        1.241   2.809   0.000   4.050
   19        1.241   2.805   0.000   4.046
   20        1.241   2.811   0.000   4.052
   21        1.257   2.608   0.000   3.865
   22        1.257   2.606   0.000   3.863
   23        1.241   2.812   0.000   4.053
   24        1.240   2.815   0.000   4.055
   25        1.257   2.604   0.000   3.862
   26        1.243   2.810   0.000   4.053
   27        1.241   2.814   0.000   4.054
   28        1.241   2.812   0.000   4.053
   29        1.241   2.810   0.000   4.051
   30        1.241   2.811   0.000   4.052
   31        1.243   2.813   0.000   4.056
--------------------------------------------------
tot         31.128  65.530   0.000  96.658
 


 magnetization (x)
 
# of ion       s       p       d       tot
------------------------------------------
    1       -0.002  -0.009   0.000  -0.011
    2       -0.003  -0.011   0.000  -0.014
    3       -0.003  -0.011   0.000  -0.014
    4       -0.002  -0.009   0.000  -0.011
    5        0.001   0.001   0.000   0.002
    6       -0.003  -0.011   0.000  -0.014
    7       -0.003  -0.012   0.000  -0.015
    8       -0.002  -0.009   0.000  -0.011
    9       -0.002  -0.009   0.000  -0.011
   10       -0.003  -0.011   0.000  -0.015
   11       -0.003  -0.011   0.000  -0.015
   12        0.001   0.001   0.000   0.002
   13       -0.002  -0.009   0.000  -0.011
   14        0.001   0.001   0.000   0.002
   15       -0.002  -0.009   0.000  -0.011
   16        0.005   0.050   0.000   0.055
   17        0.003   0.060   0.000   0.063
   18        0.005   0.051   0.000   0.056
   19        0.003   0.059   0.000   0.062
   20        0.005   0.049   0.000   0.054
   21        0.052   0.537   0.000   0.589
   22        0.051   0.539   0.000   0.591
   23        0.005   0.048   0.000   0.053
   24        0.002   0.042   0.000   0.044
   25        0.051   0.541   0.000   0.592
   26        0.003   0.065   0.000   0.068
   27        0.002   0.043   0.000   0.045
   28        0.002   0.045   0.000   0.047
   29        0.005   0.050   0.000   0.055
   30        0.005   0.049   0.000   0.054
   31        0.003   0.063   0.000   0.065
--------------------------------------------------
tot          0.171   2.173   0.000   2.344
 

 total amount of memory used by VASP MPI-rank0   328885. kBytes
=======================================================================

   base      :      30000. kBytes
   nonlr-proj:       5573. kBytes
   fftplans  :      29100. kBytes
   grid      :     101821. kBytes
   one-center:         36. kBytes
   wavefun   :     162355. kBytes
 
  
  
 General timing and accounting informations for this job:
 ========================================================
  
                  Total CPU time used (sec):    16758.312
                            User time (sec):    15603.791
                          System time (sec):     1154.521
                         Elapsed time (sec):    11705.751
  
                   Maximum memory used (kb):     1188968.
                   Average memory used (kb):           0.
  
                          Minor page faults:     11923657
                          Major page faults:           49
                 Voluntary context switches:        97466
