 vasp.5.4.4.18Apr17-6-g9f103f2a35 (build May 01 2020 14:57:12) complex          
  
 executed on             LinuxIFC date 2020.10.16  20:54:12
 running on   96 total cores
 distrk:  each k-point on   24 cores,    4 groups
 distr:  one band on NCORES_PER_BAND=   1 cores,   24 groups


--------------------------------------------------------------------------------------------------------


 INCAR:
 POTCAR:    PAW_PBE B 06Sep2000                   
 POTCAR:    PAW_PBE N 08Apr2002                   
 POTCAR:    PAW_PBE C 08Apr2002                   
 POTCAR:    PAW_PBE F 08Apr2002                   
 POTCAR:    PAW_PBE O 08Apr2002                   

 ----------------------------------------------------------------------------- 
|                                                                             |
|           W    W    AA    RRRRR   N    N  II  N    N   GGGG   !!!           |
|           W    W   A  A   R    R  NN   N  II  NN   N  G    G  !!!           |
|           W    W  A    A  R    R  N N  N  II  N N  N  G       !!!           |
|           W WW W  AAAAAA  RRRRR   N  N N  II  N  N N  G  GGG   !            |
|           WW  WW  A    A  R   R   N   NN  II  N   NN  G    G                |
|           W    W  A    A  R    R  N    N  II  N    N   GGGG   !!!           |
|                                                                             |
|      For optimal performance we recommend to set                            |
|        NCORE= 4 - approx SQRT( number of cores)                             |
|      NCORE specifies how many cores store one orbital (NPAR=cpu/NCORE).     |
|      This setting can  greatly improve the performance of VASP for DFT.     |
|      The default,   NCORE=1            might be grossly inefficient         |
|      on modern multi-core architectures or massively parallel machines.     |
|      Do your own testing !!!!                                               |
|      Unfortunately you need to use the default for GW and RPA calculations. |
|      (for HF NCORE is supported but not extensively tested yet)             |
|                                                                             |
 ----------------------------------------------------------------------------- 


 ----------------------------------------------------------------------------- 
|                                                                             |
|           W    W    AA    RRRRR   N    N  II  N    N   GGGG   !!!           |
|           W    W   A  A   R    R  NN   N  II  NN   N  G    G  !!!           |
|           W    W  A    A  R    R  N N  N  II  N N  N  G       !!!           |
|           W WW W  AAAAAA  RRRRR   N  N N  II  N  N N  G  GGG   !            |
|           WW  WW  A    A  R   R   N   NN  II  N   NN  G    G                |
|           W    W  A    A  R    R  N    N  II  N    N   GGGG   !!!           |
|                                                                             |
|      You have enabled k-point parallelism (KPAR>1).                         |
|      This developmental code was originally  written by Paul Kent at ORNL,  |
|      and carefully double checked in Vienna.                                |
|      GW as well as linear response parallelism added by Martijn Marsman     |
|      and Georg Kresse.                                                      |
|      Carefully verify results versus KPAR=1.                                |
|      Report problems to Paul Kent and Vienna.                               |
|                                                                             |
 ----------------------------------------------------------------------------- 

 POTCAR:    PAW_PBE B 06Sep2000                   
   VRHFIN =B: s2p1                                                              
   LEXCH  = PE                                                                  
   EATOM  =    71.1703 eV,    5.2309 Ry                                         
                                                                                
   TITEL  = PAW_PBE B 06Sep2000                                                 
   LULTRA =        F    use ultrasoft PP ?                                      
   IUNSCR =        1    unscreen: 0-lin 1-nonlin 2-no                           
   RPACOR =    1.200    partial core radius                                     
   POMASS =   10.811; ZVAL   =    3.000    mass and valenz                      
   RCORE  =    1.700    outmost cutoff radius                                   
   RWIGS  =    1.710; RWIGS  =    0.905    wigner-seitz radius (au A)           
   ENMAX  =  318.614; ENMIN  =  238.960 eV                                      
   ICORE  =        2    local potential                                         
   LCOR   =        T    correct aug charges                                     
   LPAW   =        T    paw PP                                                  
   EAUG   =  535.514                                                            
   DEXC   =    0.000                                                            
   RMAX   =    1.732    core radius for proj-oper                               
   RAUG   =    1.300    factor for augmentation sphere                          
   RDEP   =    1.757    radius for radial grids                                 
   RDEPT  =    1.436    core radius for aug-charge                              
                                                                                
   Atomic configuration                                                         
    4 entries                                                                   
     n  l   j            E        occ.                                          
     1  0  0.50      -180.5896   2.0000                                         
     2  0  0.50        -9.4431   2.0000                                         
     2  1  0.50        -3.6068   1.0000                                         
     3  2  1.50        -4.0817   0.0000                                         
   Description                                                                  
     l       E           TYP  RCUT    TYP  RCUT                                 
     0     -9.4430752     23  1.500                                             
     0      0.8675899     23  1.500                                             
     1     -3.6067955     23  1.700                                             
     1      6.1086146     23  1.700                                             
     2     -4.0817478      7  1.700                                             
  local pseudopotential read in
  partial core-charges read in
  partial kinetic energy density read in
  atomic valenz-charges read in
  non local Contribution for L=           0  read in
    real space projection operators read in
  non local Contribution for L=           0  read in
    real space projection operators read in
  non local Contribution for L=           1  read in
    real space projection operators read in
  non local Contribution for L=           1  read in
    real space projection operators read in
    PAW grid and wavefunctions read in
 
   number of l-projection  operators is LMAX  =           4
   number of lm-projection operators is LMMAX =           8
 
 POTCAR:    PAW_PBE N 08Apr2002                   
   VRHFIN =N: s2p3                                                              
   LEXCH  = PE                                                                  
   EATOM  =   264.5486 eV,   19.4438 Ry                                         
                                                                                
   TITEL  = PAW_PBE N 08Apr2002                                                 
   LULTRA =        F    use ultrasoft PP ?                                      
   IUNSCR =        1    unscreen: 0-lin 1-nonlin 2-no                           
   RPACOR =    1.200    partial core radius                                     
   POMASS =   14.001; ZVAL   =    5.000    mass and valenz                      
   RCORE  =    1.500    outmost cutoff radius                                   
   RWIGS  =    1.400; RWIGS  =    0.741    wigner-seitz radius (au A)           
   ENMAX  =  400.000; ENMIN  =  300.000 eV                                      
   ICORE  =        2    local potential                                         
   LCOR   =        T    correct aug charges                                     
   LPAW   =        T    paw PP                                                  
   EAUG   =  627.112                                                            
   DEXC   =    0.000                                                            
   RMAX   =    1.529    core radius for proj-oper                               
   RAUG   =    1.300    factor for augmentation sphere                          
   RDEP   =    1.514    radius for radial grids                                 
   RDEPT  =    1.338    core radius for aug-charge                              
                                                                                
   Atomic configuration                                                         
    4 entries                                                                   
     n  l   j            E        occ.                                          
     1  0  0.50      -384.7179   2.0000                                         
     2  0  0.50       -18.5828   2.0000                                         
     2  1  0.50        -7.0898   3.0000                                         
     3  2  1.50        -6.8029   0.0000                                         
   Description                                                                  
     l       E           TYP  RCUT    TYP  RCUT                                 
     0    -18.5828119     23  1.200                                             
     0    -13.5018863     23  1.200                                             
     1     -7.0897853     23  1.500                                             
     1      9.5240782     23  1.500                                             
     2     -6.8029130      7  1.500                                             
  local pseudopotential read in
  partial core-charges read in
  partial kinetic energy density read in
  atomic valenz-charges read in
  non local Contribution for L=           0  read in
    real space projection operators read in
  non local Contribution for L=           0  read in
    real space projection operators read in
  non local Contribution for L=           1  read in
    real space projection operators read in
  non local Contribution for L=           1  read in
    real space projection operators read in
    PAW grid and wavefunctions read in
 
   number of l-projection  operators is LMAX  =           4
   number of lm-projection operators is LMMAX =           8
 
 POTCAR:    PAW_PBE C 08Apr2002                   
   VRHFIN =C: s2p2                                                              
   LEXCH  = PE                                                                  
   EATOM  =   147.1560 eV,   10.8157 Ry                                         
                                                                                
   TITEL  = PAW_PBE C 08Apr2002                                                 
   LULTRA =        F    use ultrasoft PP ?                                      
   IUNSCR =        1    unscreen: 0-lin 1-nonlin 2-no                           
   RPACOR =    1.200    partial core radius                                     
   POMASS =   12.011; ZVAL   =    4.000    mass and valenz                      
   RCORE  =    1.500    outmost cutoff radius                                   
   RWIGS  =    1.630; RWIGS  =    0.863    wigner-seitz radius (au A)           
   ENMAX  =  400.000; ENMIN  =  300.000 eV                                      
   ICORE  =        2    local potential                                         
   LCOR   =        T    correct aug charges                                     
   LPAW   =        T    paw PP                                                  
   EAUG   =  644.873                                                            
   DEXC   =    0.000                                                            
   RMAX   =    1.529    core radius for proj-oper                               
   RAUG   =    1.300    factor for augmentation sphere                          
   RDEP   =    1.501    radius for radial grids                                 
   RDEPT  =    1.300    core radius for aug-charge                              
                                                                                
   Atomic configuration                                                         
    4 entries                                                                   
     n  l   j            E        occ.                                          
     1  0  0.50      -273.3789   2.0000                                         
     2  0  0.50       -13.7508   2.0000                                         
     2  1  0.50        -5.2854   2.0000                                         
     3  2  1.50        -5.4423   0.0000                                         
   Description                                                                  
     l       E           TYP  RCUT    TYP  RCUT                                 
     0    -13.7508458     23  1.200                                             
     0     -8.2022199     23  1.200                                             
     1     -5.2854383     23  1.500                                             
     1     34.0145650     23  1.500                                             
     2     -5.4423304      7  1.500                                             
  local pseudopotential read in
  partial core-charges read in
  partial kinetic energy density read in
  atomic valenz-charges read in
  non local Contribution for L=           0  read in
    real space projection operators read in
  non local Contribution for L=           0  read in
    real space projection operators read in
  non local Contribution for L=           1  read in
    real space projection operators read in
  non local Contribution for L=           1  read in
    real space projection operators read in
    PAW grid and wavefunctions read in
 
   number of l-projection  operators is LMAX  =           4
   number of lm-projection operators is LMMAX =           8
 
 POTCAR:    PAW_PBE F 08Apr2002                   
   VRHFIN =F: s2p5                                                              
   LEXCH  = PE                                                                  
   EATOM  =   659.6475 eV,   48.4827 Ry                                         
                                                                                
   TITEL  = PAW_PBE F 08Apr2002                                                 
   LULTRA =        F    use ultrasoft PP ?                                      
   IUNSCR =        1    unscreen: 0-lin 1-nonlin 2-no                           
   RPACOR =    1.200    partial core radius                                     
   POMASS =   18.998; ZVAL   =    7.000    mass and valenz                      
   RCORE  =    1.520    outmost cutoff radius                                   
   RWIGS  =    1.500; RWIGS  =    0.794    wigner-seitz radius (au A)           
   ENMAX  =  400.000; ENMIN  =  300.000 eV                                      
   ICORE  =        2    local potential                                         
   LCOR   =        T    correct aug charges                                     
   LPAW   =        T    paw PP                                                  
   EAUG   =  613.614                                                            
   RMAX   =    1.555    core radius for proj-oper                               
   RAUG   =    1.300    factor for augmentation sphere                          
   RDEP   =    1.539    radius for radial grids                                 
   RDEPT  =    1.299    core radius for aug-charge                              
                                                                                
   Atomic configuration                                                         
    4 entries                                                                   
     n  l   j            E        occ.                                          
     1  0  0.50      -663.3661   2.0000                                         
     2  0  0.50       -29.8995   2.0000                                         
     2  1  0.50       -11.1114   5.0000                                         
     3  2  1.50       -10.8847   0.0000                                         
   Description                                                                  
     l       E           TYP  RCUT    TYP  RCUT                                 
     0    -29.8995018     23  1.200                                             
     0     -9.5240782     23  1.200                                             
     1    -11.1113914     23  1.520                                             
     1      1.3605826     23  1.520                                             
     2    -10.8846608      7  1.500                                             
  local pseudopotential read in
  partial core-charges read in
  partial kinetic energy density read in
  atomic valenz-charges read in
  non local Contribution for L=           0  read in
    real space projection operators read in
  non local Contribution for L=           0  read in
    real space projection operators read in
  non local Contribution for L=           1  read in
    real space projection operators read in
  non local Contribution for L=           1  read in
    real space projection operators read in
    PAW grid and wavefunctions read in
 
   number of l-projection  operators is LMAX  =           4
   number of lm-projection operators is LMMAX =           8
 
 POTCAR:    PAW_PBE O 08Apr2002                   
   VRHFIN =O: s2p4                                                              
   LEXCH  = PE                                                                  
   EATOM  =   432.3788 eV,   31.7789 Ry                                         
                                                                                
   TITEL  = PAW_PBE O 08Apr2002                                                 
   LULTRA =        F    use ultrasoft PP ?                                      
   IUNSCR =        1    unscreen: 0-lin 1-nonlin 2-no                           
   RPACOR =    1.200    partial core radius                                     
   POMASS =   16.000; ZVAL   =    6.000    mass and valenz                      
   RCORE  =    1.520    outmost cutoff radius                                   
   RWIGS  =    1.550; RWIGS  =    0.820    wigner-seitz radius (au A)           
   ENMAX  =  400.000; ENMIN  =  300.000 eV                                      
   ICORE  =        2    local potential                                         
   LCOR   =        T    correct aug charges                                     
   LPAW   =        T    paw PP                                                  
   EAUG   =  605.392                                                            
   DEXC   =    0.000                                                            
   RMAX   =    1.553    core radius for proj-oper                               
   RAUG   =    1.300    factor for augmentation sphere                          
   RDEP   =    1.550    radius for radial grids                                 
   RDEPT  =    1.329    core radius for aug-charge                              
                                                                                
   Atomic configuration                                                         
    4 entries                                                                   
     n  l   j            E        occ.                                          
     1  0  0.50      -514.6923   2.0000                                         
     2  0  0.50       -23.9615   2.0000                                         
     2  1  0.50        -9.0305   4.0000                                         
     3  2  1.50        -9.5241   0.0000                                         
   Description                                                                  
     l       E           TYP  RCUT    TYP  RCUT                                 
     0    -23.9615318     23  1.200                                             
     0     -9.5240782     23  1.200                                             
     1     -9.0304911     23  1.520                                             
     1      8.1634956     23  1.520                                             
     2     -9.5240782      7  1.500                                             
  local pseudopotential read in
  partial core-charges read in
  partial kinetic energy density read in
  kinetic energy density of atom read in
  atomic valenz-charges read in
  non local Contribution for L=           0  read in
    real space projection operators read in
  non local Contribution for L=           0  read in
    real space projection operators read in
  non local Contribution for L=           1  read in
    real space projection operators read in
  non local Contribution for L=           1  read in
    real space projection operators read in
    PAW grid and wavefunctions read in
 
   number of l-projection  operators is LMAX  =           4
   number of lm-projection operators is LMMAX =           8
 
 Optimization of the real space projectors (new method)

 maximal supplied QI-value         = 22.11
 optimisation between [QCUT,QGAM] = [ 11.94, 23.88] = [ 39.92,159.67] Ry 
 Optimized for a Real-space Cutoff    1.18 Angstroem

   l    n(q)    QCUT    max X(q) W(low)/X(q) W(high)/X(q)  e(spline) 
   0      8    11.939    53.033    0.11E-03    0.34E-03    0.60E-07
   0      8    11.939    34.740    0.11E-03    0.34E-03    0.59E-07
   1      8    11.939    30.949    0.22E-03    0.20E-03    0.17E-06
   1      8    11.939    19.518    0.20E-03    0.18E-03    0.16E-06
 Optimization of the real space projectors (new method)

 maximal supplied QI-value         = 25.13
 optimisation between [QCUT,QGAM] = [ 11.81, 23.88] = [ 39.08,159.64] Ry 
 Optimized for a Real-space Cutoff    1.41 Angstroem

   l    n(q)    QCUT    max X(q) W(low)/X(q) W(high)/X(q)  e(spline) 
   0     10    11.813    79.467    0.48E-04    0.30E-04    0.67E-06
   0     10    11.813    66.151    0.47E-04    0.30E-04    0.67E-06
   1     10    11.813    20.169    0.11E-03    0.17E-03    0.11E-05
   1     10    11.813    14.454    0.11E-03    0.17E-03    0.11E-05
 Optimization of the real space projectors (new method)

 maximal supplied QI-value         = 25.13
 optimisation between [QCUT,QGAM] = [ 11.81, 23.88] = [ 39.08,159.64] Ry 
 Optimized for a Real-space Cutoff    1.18 Angstroem

   l    n(q)    QCUT    max X(q) W(low)/X(q) W(high)/X(q)  e(spline) 
   0      8    11.813   115.676    0.10E-03    0.16E-03    0.35E-06
   0      8    11.813    87.132    0.10E-03    0.16E-03    0.35E-06
   1      8    11.813     4.429    0.16E-03    0.13E-04    0.22E-06
   1      8    11.813     2.733    0.13E-03    0.10E-04    0.18E-06
 Optimization of the real space projectors (new method)

 maximal supplied QI-value         = 24.76
 optimisation between [QCUT,QGAM] = [ 11.88, 24.01] = [ 39.54,161.47] Ry 
 Optimized for a Real-space Cutoff    1.18 Angstroem

   l    n(q)    QCUT    max X(q) W(low)/X(q) W(high)/X(q)  e(spline) 
   0      8    11.883    14.049    0.56E-04    0.86E-04    0.22E-06
   0      8    11.883     8.945    0.81E-04    0.11E-03    0.30E-06
   1      8    11.883     7.086    0.16E-03    0.15E-04    0.31E-06
   1      8    11.883     6.747    0.15E-03    0.14E-04    0.28E-06
 Optimization of the real space projectors (new method)

 maximal supplied QI-value         = 24.76
 optimisation between [QCUT,QGAM] = [ 11.88, 24.01] = [ 39.54,161.47] Ry 
 Optimized for a Real-space Cutoff    1.18 Angstroem

   l    n(q)    QCUT    max X(q) W(low)/X(q) W(high)/X(q)  e(spline) 
   0      8    11.883    20.381    0.86E-04    0.11E-03    0.31E-06
   0      8    11.883    15.268    0.94E-04    0.12E-03    0.33E-06
   1      8    11.883     5.964    0.19E-03    0.18E-04    0.33E-06
   1      8    11.883     5.382    0.17E-03    0.20E-04    0.29E-06
  PAW_PBE B 06Sep2000                   :
 energy of atom  1       EATOM=  -71.1703
 kinetic energy error for atom=    0.0009 (will be added to EATOM!!)
  PAW_PBE N 08Apr2002                   :
 energy of atom  2       EATOM= -264.5486
 kinetic energy error for atom=    0.0116 (will be added to EATOM!!)
  PAW_PBE C 08Apr2002                   :
 energy of atom  3       EATOM= -147.1560
 kinetic energy error for atom=    0.0066 (will be added to EATOM!!)
  PAW_PBE F 08Apr2002                   :
 energy of atom  4       EATOM= -659.6475
 kinetic energy error for atom=    0.0296 (will be added to EATOM!!)
  PAW_PBE O 08Apr2002                   :
 energy of atom  5       EATOM= -432.3788
 kinetic energy error for atom=    0.0194 (will be added to EATOM!!)
 
 
 POSCAR: B N C F O                               
  positions in direct lattice
  velocities in cartesian coordinates

 METAGGA = SCAN     LMAXTAU =  6    LMIXTAU =  F

 exchange correlation table for  LEXCH =        8
   RHO(1)=    0.500       N(1)  =     2000
   RHO(2)=  100.500       N(2)  =     4000
 


--------------------------------------------------------------------------------------------------------


 ion  position               nearest neighbor table
   1  0.111  0.056  0.500-  42 1.45  37 1.45  43 1.45
   2  0.111  0.222  0.500-  37 1.45  38 1.45  44 1.45
   3  0.111  0.389  0.500-  39 1.45  38 1.45  45 1.45
   4  0.111  0.556  0.500-  40 1.45  39 1.45  46 1.45
   5  0.111  0.722  0.500-  41 1.45  47 1.45  40 1.45
   6  0.111  0.889  0.500-  41 1.45  48 1.45  42 1.45
   7  0.278  0.056  0.500-  48 1.45  49 1.45  43 1.45
   8  0.278  0.222  0.500-  43 1.45  44 1.45  50 1.45
   9  0.278  0.389  0.500-  44 1.45  51 1.45  45 1.45
  10  0.278  0.556  0.500-  46 1.45  52 1.45  45 1.45
  11  0.278  0.722  0.500-  47 1.45  53 1.45  46 1.45
  12  0.278  0.889  0.500-  48 1.45  47 1.45  54 1.45
  13  0.444  0.056  0.500-  54 1.45  55 1.45  49 1.45
  14  0.444  0.222  0.500-  49 1.45  56 1.45  50 1.45
  15  0.444  0.389  0.501-  57 1.45  50 1.45  51 1.45
  16  0.444  0.556  0.500-  58 1.45  52 1.45  51 1.45
  17  0.444  0.722  0.500-  53 1.45  59 1.45  52 1.45
  18  0.444  0.889  0.500-  54 1.45  60 1.45  53 1.45
  19  0.611  0.056  0.500-  55 1.45  60 1.45  61 1.45
  20  0.611  0.222  0.500-  55 1.45  62 1.45  56 1.45
  21  0.611  0.389  0.500-  63 1.45  56 1.45  57 1.45
  22  0.611  0.556  0.500-  64 1.45  57 1.45  58 1.45
  23  0.611  0.722  0.500-  65 1.45  59 1.45  58 1.45
  24  0.611  0.889  0.500-  60 1.45  66 1.45  59 1.45
  25  0.778  0.056  0.500-  67 1.45  61 1.45  66 1.45
  26  0.778  0.222  0.500-  68 1.45  62 1.45  61 1.45
  27  0.778  0.389  0.500-  69 1.45  63 1.45  62 1.45
  28  0.778  0.556  0.500-  70 1.45  63 1.45  64 1.45
  29  0.778  0.722  0.500-  71 1.45  64 1.45  65 1.45
  30  0.778  0.889  0.500-  72 1.45  66 1.45  65 1.45
  31  0.944  0.056  0.500-  37 1.45  72 1.45  67 1.45
  32  0.944  0.222  0.500-  68 1.45  38 1.45  67 1.45
  33  0.944  0.389  0.500-  69 1.45  68 1.45  39 1.45
  34  0.944  0.556  0.500-  40 1.45  70 1.45  69 1.45
  35  0.944  0.722  0.500-  41 1.45  70 1.45  71 1.45
  36  0.944  0.889  0.500-  42 1.45  71 1.45  72 1.45
  37  0.056  0.111  0.500-   2 1.45  31 1.45   1 1.45
  38  0.056  0.278  0.500-   3 1.45   2 1.45  32 1.45
  39  0.056  0.445  0.500-   3 1.45   4 1.45  33 1.45
  40  0.056  0.611  0.500-  34 1.45   4 1.45   5 1.45
  41  0.056  0.778  0.500-  35 1.45   5 1.45   6 1.45
  42  0.056  0.945  0.500-   1 1.45  36 1.45   6 1.45
  43  0.222  0.111  0.500-   8 1.45   7 1.45   1 1.45
  44  0.222  0.278  0.500-   9 1.45   8 1.45   2 1.45
  45  0.222  0.445  0.500-  10 1.45   9 1.45   3 1.45
  46  0.222  0.611  0.500-  10 1.45  11 1.45   4 1.45
  47  0.222  0.778  0.500-  11 1.45  12 1.45   5 1.45
  48  0.222  0.945  0.500-   7 1.45  12 1.45   6 1.45
  49  0.389  0.111  0.500-  14 1.45   7 1.45  13 1.45
  50  0.389  0.278  0.501-  15 1.45   8 1.45  14 1.45
  51  0.389  0.445  0.501-   9 1.45  16 1.45  15 1.45
  52  0.389  0.611  0.500-  10 1.45  16 1.45  17 1.45
  53  0.389  0.778  0.500-  17 1.45  18 1.45  11 1.45
  54  0.389  0.945  0.500-  13 1.45  18 1.45  12 1.45
  55  0.556  0.111  0.500-  20 1.45  19 1.45  13 1.45
  56  0.556  0.278  0.500-  14 1.45  21 1.45  20 1.45
  57  0.556  0.445  0.500-  15 1.45  21 1.45  22 1.45
  58  0.556  0.611  0.500-  16 1.45  23 1.45  22 1.45
  59  0.556  0.778  0.500-  17 1.45  23 1.45  24 1.45
  60  0.556  0.945  0.500-  24 1.45  19 1.45  18 1.45
  61  0.722  0.111  0.500-  25 1.45  19 1.45  26 1.45
  62  0.722  0.278  0.500-  26 1.45  20 1.45  27 1.45
  63  0.722  0.445  0.500-  21 1.45  27 1.45  28 1.45
  64  0.722  0.611  0.500-  22 1.45  29 1.45  28 1.45
  65  0.722  0.778  0.500-  23 1.45  30 1.45  29 1.45
  66  0.722  0.945  0.500-  24 1.45  30 1.45  25 1.45
  67  0.889  0.111  0.500-  25 1.45  32 1.45  31 1.45
  68  0.889  0.278  0.500-  26 1.45  32 1.45  33 1.45
  69  0.889  0.445  0.500-  27 1.45  33 1.45  34 1.45
  70  0.889  0.611  0.500-  28 1.45  34 1.45  35 1.45
  71  0.889  0.778  0.500-  29 1.45  36 1.45  35 1.45
  72  0.889  0.945  0.500-  30 1.45  31 1.45  36 1.45
  73  0.377  0.298  0.659-  76 1.34  78 1.34  77 1.35  74 1.51
  74  0.362  0.267  0.617-  80 1.33  79 1.33  73 1.51
  75  0.314  0.523  0.609-  81 1.16  82 1.16
  76  0.467  0.385  0.663-  73 1.34
  77  0.377  0.226  0.682-  73 1.35
  78  0.301  0.314  0.670-  73 1.34
  79  0.438  0.257  0.603-  74 1.33
  80  0.272  0.186  0.610-  74 1.33
  81  0.402  0.578  0.606-  75 1.16
  82  0.227  0.467  0.612-  75 1.16
 

IMPORTANT INFORMATION: All symmetrisations will be switched off!
NOSYMM: (Re-)initialisation of all symmetry stuff for point group C_1.

 
 
 KPOINTS: K-Point Grid                            

Automatic generation of k-mesh.
Space group operators:
 irot       det(A)        alpha          n_x          n_y          n_z        tau_x        tau_y        tau_z
    1     1.000000     0.000000     1.000000     0.000000     0.000000     0.000000     0.000000     0.000000
 
 Subroutine IBZKPT returns following result:
 ===========================================
 
 Found      5 irreducible k-points:
 
 Following reciprocal coordinates:
            Coordinates               Weight
  0.000000  0.000000  0.000000      1.000000
  0.333333  0.000000  0.000000      2.000000
  0.000000  0.333333  0.000000      2.000000
  0.333333  0.333333  0.000000      2.000000
 -0.333333  0.333333  0.000000      2.000000
 
 Following cartesian coordinates:
            Coordinates               Weight
  0.000000  0.000000  0.000000      1.000000
  0.022114 -0.012768  0.000000      2.000000
  0.022114  0.012768  0.000000      2.000000
  0.044229  0.000000  0.000000      2.000000
  0.000000  0.025535  0.000000      2.000000
 


--------------------------------------------------------------------------------------------------------




 Dimension of arrays:
   k-points           NKPTS =      5   k-points in BZ     NKDIM =      5   number of bands    NBANDS=    264
   number of dos      NEDOS =   1200   number of ions     NIONS =     82
   non local maximal  LDIM  =      4   non local SUM 2l+1 LMDIM =      8
   total plane-waves  NPLWV = ******
   max r-space proj   IRMAX =   6598   max aug-charges    IRDMAX=   8974
   dimension x,y,z NGX =   120 NGY =  120 NGZ =  270
   dimension x,y,z NGXF=   240 NGYF=  240 NGZF=  540
   support grid    NGXF=   240 NGYF=  240 NGZF=  540
   ions per type =              36  36   3   5   2
   NGX,Y,Z   is equivalent  to a cutoff of  13.24, 13.24, 12.78 a.u.
   NGXF,Y,Z  is equivalent  to a cutoff of  26.47, 26.47, 25.57 a.u.

 SYSTEM =  SiC                                     
 POSCAR =  B N C F O                               

 Startparameter for this run:
   NWRITE =      2    write-flag & timer
   PREC   = accura    normal or accurate (medium, high low for compatibility)
   ISTART =      1    job   : 0-new  1-cont  2-samecut
   ICHARG =      0    charge: 1-file 2-atom 10-const
   ISPIN  =      2    spin polarized calculation?
   LNONCOLLINEAR =      F non collinear calculations
   LSORBIT =      F    spin-orbit coupling
   INIWAV =      1    electr: 0-lowe 1-rand  2-diag
   LASPH  =      T    aspherical Exc in radial PAW
   METAGGA=      F    non-selfconsistent MetaGGA calc.

 Electronic Relaxation 1
   ENCUT  =  550.0 eV  40.42 Ry    6.36 a.u.  28.82 28.82 67.15*2*pi/ulx,y,z
   ENINI  =  550.0     initial cutoff
   ENAUG  =  644.9 eV  augmentation charge cutoff
   NELM   =    100;   NELMIN=  2; NELMDL=  0     # of ELM steps 
   EDIFF  = 0.1E-04   stopping-criterion for ELM
   LREAL  =      T    real-space projection
   NLSPLINE    = F    spline interpolate recip. space projectors
   LCOMPAT=      F    compatible to vasp.4.4
   GGA_COMPAT  = T    GGA compatible to vasp.4.4-vasp.4.6
   LMAXPAW     = -100 max onsite density
   LMAXMIX     =    2 max onsite mixed and CHGCAR
   VOSKOWN=      0    Vosko Wilk Nusair interpolation
   ROPT   =   -0.00025  -0.00025  -0.00025  -0.00025
   ROPT   =   -0.00025
 Ionic relaxation
   EDIFFG = -.2E-01   stopping-criterion for IOM
   NSW    =    500    number of steps for IOM
   NBLOCK =      1;   KBLOCK =    500    inner block; outer block 
   IBRION =      2    ionic relax: 0-MD 1-quasi-New 2-CG
   NFREE  =      1    steps in history (QN), initial steepest desc. (CG)
   ISIF   =      2    stress and relaxation
   IWAVPR =     11    prediction:  0-non 1-charg 2-wave 3-comb
   ISYM   =      0    0-nonsym 1-usesym 2-fastsym
   LCORR  =      T    Harris-Foulkes like correction to forces

   POTIM  = 0.5000    time-step for ionic-motion
   TEIN   =    0.0    initial temperature
   TEBEG  =    0.0;   TEEND  =   0.0 temperature during run
   SMASS  =  -3.00    Nose mass-parameter (am)
   estimated Nose-frequenzy (Omega)   =  0.10E-29 period in steps =****** mass=  -0.519E-26a.u.
   SCALEE = 1.0000    scale energy and forces
   NPACO  =    256;   APACO  = 16.0  distance and # of slots for P.C.
   PSTRESS=    0.0 pullay stress

  Mass of Ions in am
   POMASS =  10.81 14.00 12.01 19.00 16.00
  Ionic Valenz
   ZVAL   =   3.00  5.00  4.00  7.00  6.00
  Atomic Wigner-Seitz radii
   RWIGS  =  -1.00 -1.00 -1.00 -1.00 -1.00
  virtual crystal weights 
   VCA    =   1.00  1.00  1.00  1.00  1.00
   NELECT =     345.9000    total number of electrons
   NUPDOWN=      -1.0000    fix difference up-down

 DOS related values:
   EMIN   =  10.00;   EMAX   =-10.00  energy-range for DOS
   EFERMI =   0.00
   ISMEAR =     0;   SIGMA  =   0.05  broadening in eV -4-tet -1-fermi 0-gaus

 Electronic relaxation 2 (details)
   IALGO  =     68    algorithm
   LDIAG  =      T    sub-space diagonalisation (order eigenvalues)
   LSUBROT=      F    optimize rotation matrix (better conditioning)
   TURBO    =      0    0=normal 1=particle mesh
   IRESTART =      0    0=no restart 2=restart with 2 vectors
   NREBOOT  =      0    no. of reboots
   NMIN     =      0    reboot dimension
   EREF     =   0.00    reference energy to select bands
   IMIX   =      4    mixing-type and parameters
     AMIX     =   0.40;   BMIX     =  1.00
     AMIX_MAG =   1.60;   BMIX_MAG =  1.00
     AMIN     =   0.10
     WC   =   100.;   INIMIX=   1;  MIXPRE=   1;  MAXMIX= -45

 Intra band minimization:
   WEIMIN = 0.0010     energy-eigenvalue tresh-hold
   EBREAK =  0.95E-08  absolut break condition
   DEPER  =   0.30     relativ break condition  

   TIME   =   0.40     timestep for ELM

  volume/ion in A,a.u.               =      84.26       568.60
  Fermi-wavevector in a.u.,A,eV,Ry     =   0.603369  1.140202  4.953256  0.364054
  Thomas-Fermi vector in A             =   1.656324
 
 Write flags
   LWAVE        =      T    write WAVECAR
   LDOWNSAMPLE  =      F    k-point downsampling of WAVECAR
   LCHARG       =      F    write CHGCAR
   LVTOT        =      F    write LOCPOT, total local potential
   LVHAR        =      T    write LOCPOT, Hartree potential only
   LELF         =      F    write electronic localiz. function (ELF)
   LORBIT       =     11    0 simple, 1 ext, 2 COOP (PROOUT), +10 PAW based schemes


 Dipole corrections
   LMONO  =      F    monopole corrections only (constant potential shift)
   LDIPOL =      F    correct potential (dipole corrections)
   IDIPOL =      0    1-x, 2-y, 3-z, 4-all directions 
   EPSILON=  1.0000000 bulk dielectric constant

 Exchange correlation treatment:
   GGA     =    --    GGA type
   LEXCH   =     8    internal setting for exchange type
   VOSKOWN=      0    Vosko Wilk Nusair interpolation
   LHFCALC =     F    Hartree Fock is set to
   LHFONE  =     F    Hartree Fock one center treatment
   AEXX    =    0.0000 exact exchange contribution

 Linear response parameters
   LEPSILON=     F    determine dielectric tensor
   LRPA    =     F    only Hartree local field effects (RPA)
   LNABLA  =     F    use nabla operator in PAW spheres
   LVEL    =     F    velocity operator in full k-point grid
   LINTERFAST=   F  fast interpolation
   KINTER  =     0    interpolate to denser k-point grid
   CSHIFT  =0.1000    complex shift for real part using Kramers Kronig
   OMEGAMAX=  -1.0    maximum frequency
   DEG_THRESHOLD= 0.2000000E-02 threshold for treating states as degnerate
   RTIME   =   -0.100 relaxation time in fs
  (WPLASMAI=    0.000 imaginary part of plasma frequency in eV, 0.658/RTIME)
   DFIELD  = 0.0000000 0.0000000 0.0000000 field for delta impulse in time
 
 Orbital magnetization related:
   ORBITALMAG=     F  switch on orbital magnetization
   LCHIMAG   =     F  perturbation theory with respect to B field
   DQ        =  0.001000  dq finite difference perturbation B field
   LLRAUG    =     F  two centre corrections for induced B field

 Solvation model:
   LSOL    =     T         switch on solvation model
   EB_K    = 78.400000     relative permittivity of the bulk solvent
   SIGMA_K =  0.600000     width of the dielectric cavity
   NC_K    =  0.002500     cutoff charge density
   TAU     =  0.000000     cavity surface tension
   LAMBDA_D_K    =  3.040000     Debye length in Angstroms
   LRHOB     =     F     write boundcharge  density
   LRHOION     =     F     write ioniccharge density



--------------------------------------------------------------------------------------------------------


 conjugate gradient relaxation of ions
   using selective dynamics as specified on POSCAR
 charge density and potential will be updated during run
 spin polarized calculation
 RMM-DIIS sequential band-by-band and
  variant of blocked Davidson during initial phase
 perform sub-space diagonalisation
    before iterative eigenvector-optimisation
 modified Broyden-mixing scheme, WC =      100.0
 initial mixing is a Kerker type mixing with AMIX =  0.4000 and BMIX =      1.0000
 Hartree-type preconditioning will be used
 using additional bands           91
 real space projection scheme for non local part
 use partial core corrections
 calculate Harris-corrections to forces 
   (improved forces if not selfconsistent)
 use gradient corrections 
 use of overlap-Matrix (Vanderbilt PP)
 Gauss-broadening in eV      SIGMA  =   0.05


--------------------------------------------------------------------------------------------------------


  energy-cutoff  :      550.00
  volume of cell :     6909.18
      direct lattice vectors                 reciprocal lattice vectors
     7.536550057-13.053746059  0.000000000     0.066343353 -0.038303181  0.000000000
     7.536550057 13.053746059  0.000000000     0.066343353  0.038303181  0.000000000
     0.000000000  0.000000000 35.114664386     0.000000000  0.000000000  0.028478131

  length of vectors
    15.073150730 15.073150730 35.114664386     0.076606620  0.076606620  0.028478131


 
 old parameters found on file WAVECAR:
  energy-cutoff  :      550.00
  volume of cell :     6909.18
      direct lattice vectors                 reciprocal lattice vectors
     7.536550057-13.053746059  0.000000000     0.066343353 -0.038303181  0.000000000
     7.536550057 13.053746059  0.000000000     0.066343353  0.038303181  0.000000000
     0.000000000  0.000000000 35.114664386     0.000000000  0.000000000  0.028478131

  length of vectors

 
 k-points in units of 2pi/SCALE and weight: K-Point Grid                            
   0.00000000  0.00000000  0.00000000       0.111
   0.02211445 -0.01276773  0.00000000       0.222
   0.02211445  0.01276773  0.00000000       0.222
   0.04422890  0.00000000  0.00000000       0.222
   0.00000000  0.02553545  0.00000000       0.222
 
 k-points in reciprocal lattice and weights: K-Point Grid                            
   0.00000000  0.00000000  0.00000000       0.111
   0.33333333  0.00000000  0.00000000       0.222
   0.00000000  0.33333333  0.00000000       0.222
   0.33333333  0.33333333  0.00000000       0.222
  -0.33333333  0.33333333  0.00000000       0.222
 
 position of ions in fractional coordinates (direct lattice) 
   0.11111413  0.05562350  0.50035295
   0.11110678  0.22228431  0.50037836
   0.11110636  0.38895792  0.50034214
   0.11111545  0.55563696  0.50030040
   0.11112505  0.72230842  0.50026511
   0.11112514  0.88896855  0.50030418
   0.27778836  0.05561777  0.50040429
   0.27777150  0.22227606  0.50045290
   0.27778216  0.38894774  0.50041099
   0.27777750  0.55565718  0.50024666
   0.27779350  0.72232084  0.50029075
   0.27779242  0.88897415  0.50029636
   0.44446605  0.05562696  0.50037112
   0.44447096  0.22228107  0.50047417
   0.44447824  0.38896980  0.50050625
   0.44447813  0.55564964  0.50036976
   0.44446604  0.72232441  0.50030739
   0.44446205  0.88897305  0.50029430
   0.61113063  0.05563764  0.50030187
   0.61113065  0.22229177  0.50036276
   0.61113358  0.38896364  0.50040620
   0.61113351  0.55563602  0.50036704
   0.61112894  0.72230533  0.50032636
   0.61112620  0.88897281  0.50030997
   0.77779544  0.05563888  0.50029142
   0.77779878  0.22230713  0.50028600
   0.77779625  0.38897032  0.50030938
   0.77779663  0.55563545  0.50029761
   0.77779587  0.72230502  0.50028750
   0.77779381  0.88896973  0.50028496
   0.94445687  0.05563471  0.50029929
   0.94445884  0.22230457  0.50031503
   0.94445862  0.38897120  0.50029892
   0.94445925  0.55564220  0.50027415
   0.94446115  0.72230584  0.50026807
   0.94445814  0.88896947  0.50029045
   0.05556219  0.11118163  0.50032612
   0.05557072  0.27785770  0.50034710
   0.05557338  0.44452236  0.50031163
   0.05556612  0.61119516  0.50026910
   0.05556631  0.77785877  0.50026291
   0.05556315  0.94452155  0.50031808
   0.22224181  0.11119106  0.50040567
   0.22224123  0.27785197  0.50045491
   0.22225634  0.44454132  0.50033738
   0.22224077  0.61119705  0.50029310
   0.22223769  0.77786730  0.50027411
   0.22223675  0.94452463  0.50032205
   0.38890707  0.11119488  0.50045246
   0.38889929  0.27784392  0.50055493
   0.38890153  0.44452775  0.50050130
   0.38889187  0.61118073  0.50029007
   0.38890916  0.77785793  0.50029088
   0.38890889  0.94452396  0.50030002
   0.55557657  0.11118851  0.50034164
   0.55556417  0.27785011  0.50043393
   0.55556645  0.44451445  0.50043055
   0.55556304  0.61119037  0.50036175
   0.55556608  0.77785343  0.50031717
   0.55557600  0.94452795  0.50029759
   0.72224193  0.11119318  0.50027482
   0.72224021  0.27785748  0.50030121
   0.72223784  0.44452277  0.50033201
   0.72223866  0.61119294  0.50029864
   0.72223498  0.77785752  0.50028526
   0.72223740  0.94452508  0.50029974
   0.88890062  0.11119201  0.50029844
   0.88890378  0.27785825  0.50029050
   0.88890323  0.44452566  0.50028669
   0.88889942  0.61119254  0.50026234
   0.88889744  0.77785809  0.50027909
   0.88889671  0.94452422  0.50027270
   0.37697195  0.29835783  0.65858214
   0.36222437  0.26651154  0.61732378
   0.31440396  0.52263794  0.60926999
   0.46686678  0.38503350  0.66315129
   0.37705043  0.22645259  0.68165153
   0.30092994  0.31389870  0.67005687
   0.43836957  0.25740412  0.60264235
   0.27155036  0.18581954  0.60960145
   0.40215758  0.57758461  0.60591410
   0.22663067  0.46740916  0.61242828
 
 position of ions in cartesian coordinates  (Angst):
   1.25662649 -0.72436061 17.56972576
   2.51261864  1.45128325 17.57061812
   3.76875955  3.62700371 17.56934617
   5.02501289  5.80267087 17.56788057
   6.28121306  7.97823244 17.56664136
   7.53725620 10.15377037 17.56801320
   2.51273199 -2.90015838 17.57152862
   3.76863351 -0.72442341 17.57323559
   5.02484328  1.45112720 17.57176388
   6.28122215  3.62737071 17.56599362
   7.53741183  5.80274697 17.56754176
   8.79339463  7.97821111 17.56773872
   3.76897602 -5.07580671 17.57036379
   5.02501003 -2.90041044 17.57398266
   6.28132289 -0.72459299 17.57510893
   7.53751295  1.45120466 17.57031611
   8.79357462  3.62709268 17.56812601
  10.04950033  5.80253376 17.56766661
   5.02513245 -7.25126435 17.56793208
   6.28112976 -5.07580404 17.57007054
   7.53728278 -2.90014994 17.57159587
   8.79341698 -0.72445018 17.57022061
  10.04949414  1.45126829 17.56879218
  11.30557129  3.62693910 17.56821667
   6.28121948 -9.42684829 17.56756520
   7.53734831 -7.25124693 17.56737507
   8.79339465 -5.07563488 17.56819596
  10.04947759 -2.90003562 17.56778269
  11.30558539 -0.72436347 17.56742771
  12.56164691  1.45126222 17.56733860
   7.53724026-11.60245885 17.56784180
   8.79337089 -9.42681843 17.56839435
  10.04946057 -7.25119179 17.56782853
  11.30558969 -5.07551904 17.56695900
  12.56167288 -2.89995904 17.56674550
  13.81771893 -0.72433505 17.56753118
   1.25667313  0.72604206 17.56878361
   2.51289996  2.90167788 17.56952049
   3.76899655  5.07724120 17.56827512
   5.02507983  7.25304039 17.56678164
   6.28114980  9.42862241 17.56656413
   7.53718841 11.60423728 17.56850142
   2.51293351 -1.44962822 17.57157718
   3.76897745  0.72592839 17.57330606
   5.02535392  2.90165175 17.56917907
   6.28124580  5.07733655 17.56762419
   7.53734132  7.25304794 17.56695759
   8.79335553  9.42856262 17.56864070
   3.76904339 -3.62518448 17.57322030
   5.02494357 -1.44968857 17.57681843
   6.28118151  0.72613061 17.57493520
   7.53709716  2.90170236 17.56751776
   8.79339861  5.07723841 17.56754649
  10.04948345  7.25285802 17.56786745
   5.02510844 -5.80092892 17.56932890
   6.28106839 -3.62520878 17.57256948
   7.53715980 -1.44964466 17.57245085
   8.79329543  0.72614505 17.57003483
  10.04938291  2.90168255 17.56846966
  11.30560847  5.07728005 17.56778182
   6.28122545 -7.97647519 17.56698240
   7.53728631 -5.80085924 17.56790913
   8.79334979 -3.62522201 17.56899052
  10.04947402 -1.44956265 17.56781873
  11.30552223  0.72608244 17.56734900
  12.56163888  2.90168688 17.56785744
   7.53724815-10.15201074 17.56781193
   8.79336042 -7.97643312 17.56753315
  10.04945357 -5.80079190 17.56739919
  11.30551819 -3.62511506 17.56654417
  12.56158647 -1.44947957 17.56713222
  13.81766860  0.72614742 17.56690794
   5.08965675 -1.02620878 23.12589091
   4.73849969 -1.24941092 21.67711734
   6.30840819  2.71823339 21.39431124
   6.42038915 -1.06823088 23.28633510
   4.54833075 -1.96586597 23.93596468
   4.63368676  0.16929089 23.52882224
   5.24373324 -2.36227693 21.16158376
   3.44699113 -1.11910843 21.40595029
   7.38387605  2.28997991 21.27647039
   5.23066586  3.14306124 21.50521347
 


--------------------------------------------------------------------------------------------------------


 k-point  1 :   0.0000 0.0000 0.0000  plane waves:  202395
 k-point  2 :   0.3333 0.0000 0.0000  plane waves:  202358
 k-point  3 :   0.0000 0.3333 0.0000  plane waves:  202358
 k-point  4 :   0.3333 0.3333 0.0000  plane waves:  202335
 k-point  5 :  -0.3333 0.3333 0.0000  plane waves:  202358

 maximum and minimum number of plane-waves per node :    202395   202335

 maximum number of plane-waves:    202395
 maximum index in each direction: 
   IXMAX=   29   IYMAX=   28   IZMAX=   67
   IXMIN=  -29   IYMIN=  -29   IZMIN=  -67


 serial   3D FFT for wavefunctions
 parallel 3D FFT for charge:
    minimum data exchange during FFTs selected (reduces bandwidth)


 total amount of memory used by VASP MPI-rank0  1200918. kBytes
=======================================================================

   base      :      30000. kBytes
   nonlr-proj:      37380. kBytes
   fftplans  :      59250. kBytes
   grid      :     716351. kBytes
   one-center:        503. kBytes
   wavefun   :     357434. kBytes
 
     INWAV:  cpu time   40.7008: real time   50.8272
 Broyden mixing: mesh for mixing (old mesh)
   NGX = 57   NGY = 57   NGZ =135
  (NGX  =240   NGY  =240   NGZ  =540)
  gives a total of 438615 points

 charge density for first step will be calculated from the start-wavefunctions


--------------------------------------------------------------------------------------------------------


 Maximum index for non-local projection operator         6370
 Maximum index for augmentation-charges          434 (set IRDMAX)


--------------------------------------------------------------------------------------------------------


 initial charge from wavefunction
 First call to EWALD:  gamma=   0.093
 Maximum number of real-space cells 4x 4x 2
 Maximum number of reciprocal cells 2x 2x 5

    FEWALD:  cpu time    0.0182: real time    0.0382


--------------------------------------- Iteration      1(   1)  ---------------------------------------


    POTLOK:  cpu time   65.0608: real time   65.0953
    SETDIJ:  cpu time    1.7141: real time    1.3198
     EDDAV:  cpu time  173.9520: real time  119.1408
       DOS:  cpu time    0.0586: real time    0.0556
    CHARGE:  cpu time   25.1332: real time   23.6760
    MIXING:  cpu time    0.1675: real time    0.1638
    --------------------------------------------
      LOOP:  cpu time  266.0863: real time  209.4513

 eigenvalue-minimisations  :  4944
 total energy-change (2. order) :-0.7727626E+03  (-0.1148424E-05)
 number of electron     345.8999978 magnetization       0.9999505
 augmentation part       16.0253190 magnetization       0.1189536

 Broyden mixing:
  rms(total) = 0.51168E-01    rms(broyden)= 0.50744E-01
  rms(prec ) = 0.68111E-01
  weight for this iteration     100.00

 Free energy of the ion-electron system (eV)
  ---------------------------------------------------
  alpha Z        PSCENC =        92.14382556
  Ewald energy   TEWEN  =    112141.26955695
  -Hartree energ DENC   =   -126032.74358017
  -exchange      EXHF   =         0.00000000
  -V(xc)+E(xc)   XCENC  =      1587.61738723
  PAW double counting   =     40625.20343476   -40792.06005472
  entropy T*S    EENTRO =        -0.02971440
  eigenvalues    EBANDS =     -5028.74030197
  atomic energy  EATOM  =     16689.68470767
  Solvation  Ediel_sol  =       -55.10789992
  ---------------------------------------------------
  free energy    TOTEN  =      -772.76263901 eV

  energy without entropy =     -772.73292461  energy(sigma->0) =     -772.74778181


--------------------------------------------------------------------------------------------------------




--------------------------------------- Iteration      1(   2)  ---------------------------------------


    POTLOK:  cpu time   55.5533: real time   55.6955
    SETDIJ:  cpu time    0.6379: real time    0.4397
    EDDIAG:  cpu time   38.1158: real time   28.2948
  RMM-DIIS:  cpu time  213.7884: real time  159.9043
    ORTHCH:  cpu time    1.6312: real time    0.8200
       DOS:  cpu time    0.0041: real time    0.0020
    CHARGE:  cpu time   25.1626: real time   23.6820
    MIXING:  cpu time    0.1582: real time    0.1281
    --------------------------------------------
      LOOP:  cpu time  335.0514: real time  268.9665

 eigenvalue-minimisations  :  5280
 total energy-change (2. order) : 0.3369487E-01  (-0.2931816E-02)
 number of electron     345.8999978 magnetization       0.9999413
 augmentation part       16.0484193 magnetization       0.1190351

 Broyden mixing:
  rms(total) = 0.23873E-01    rms(broyden)= 0.23869E-01
  rms(prec ) = 0.45668E-01
  weight for this iteration     100.00

 eigenvalues of (default mixing * dielectric matrix)
  average eigenvalue GAMMA=   1.1681
  1.1681

 Free energy of the ion-electron system (eV)
  ---------------------------------------------------
  alpha Z        PSCENC =        92.14382556
  Ewald energy   TEWEN  =    112141.26955695
  -Hartree energ DENC   =   -125990.68432751
  -exchange      EXHF   =         0.00000000
  -V(xc)+E(xc)   XCENC  =      1586.75039635
  PAW double counting   =     40594.22962230   -40761.00782700
  entropy T*S    EENTRO =        -0.02971610
  eigenvalues    EBANDS =     -5048.63651007
  atomic energy  EATOM  =     16689.68470767
  Solvation  Ediel_sol  =       -76.44867230
  ---------------------------------------------------
  free energy    TOTEN  =      -772.72894415 eV

  energy without entropy =     -772.69922805  energy(sigma->0) =     -772.71408610


--------------------------------------------------------------------------------------------------------




--------------------------------------- Iteration      1(   3)  ---------------------------------------


    POTLOK:  cpu time   54.4178: real time   54.5399
    SETDIJ:  cpu time    1.5658: real time    1.1712
    EDDIAG:  cpu time   38.0785: real time   28.2626
  RMM-DIIS:  cpu time  214.2681: real time  160.0889
    ORTHCH:  cpu time    1.6292: real time    0.8184
       DOS:  cpu time    0.0040: real time    0.0020
    CHARGE:  cpu time   24.8944: real time   23.4137
    MIXING:  cpu time    0.1713: real time    0.1370
    --------------------------------------------
      LOOP:  cpu time  335.0289: real time  268.4338

 eigenvalue-minimisations  :  5280
 total energy-change (2. order) : 0.6278628E-02  (-0.6020603E-03)
 number of electron     345.8999978 magnetization       0.9998605
 augmentation part       16.0552522 magnetization       0.1191762

 Broyden mixing:
  rms(total) = 0.16813E-01    rms(broyden)= 0.16812E-01
  rms(prec ) = 0.37356E-01
  weight for this iteration     100.00

 eigenvalues of (default mixing * dielectric matrix)
  average eigenvalue GAMMA=   1.8898
  1.3239  2.4557

 Free energy of the ion-electron system (eV)
  ---------------------------------------------------
  alpha Z        PSCENC =        92.14382556
  Ewald energy   TEWEN  =    112141.26955695
  -Hartree energ DENC   =   -125946.86909983
  -exchange      EXHF   =         0.00000000
  -V(xc)+E(xc)   XCENC  =      1586.57383659
  PAW double counting   =     40568.81769996   -40735.55977943
  entropy T*S    EENTRO =        -0.02971643
  eigenvalues    EBANDS =     -5058.03622824
  atomic energy  EATOM  =     16689.68470767
  Solvation  Ediel_sol  =      -110.71746832
  ---------------------------------------------------
  free energy    TOTEN  =      -772.72266552 eV

  energy without entropy =     -772.69294909  energy(sigma->0) =     -772.70780731


--------------------------------------------------------------------------------------------------------




--------------------------------------- Iteration      1(   4)  ---------------------------------------


    POTLOK:  cpu time   56.0522: real time   56.1795
    SETDIJ:  cpu time    1.8232: real time    1.4293
    EDDIAG:  cpu time   38.0711: real time   28.2558
  RMM-DIIS:  cpu time  214.3237: real time  160.1817
    ORTHCH:  cpu time    1.6246: real time    0.8160
       DOS:  cpu time    0.0032: real time    0.0016
    CHARGE:  cpu time   24.8980: real time   23.4003
    MIXING:  cpu time    0.1641: real time    0.1319
    --------------------------------------------
      LOOP:  cpu time  336.9602: real time  270.3961

 eigenvalue-minimisations  :  5280
 total energy-change (2. order) : 0.8409020E-02  (-0.1465852E-02)
 number of electron     345.8999978 magnetization       0.9996871
 augmentation part       16.0572024 magnetization       0.1199716

 Broyden mixing:
  rms(total) = 0.12032E-01    rms(broyden)= 0.12027E-01
  rms(prec ) = 0.21987E-01
  weight for this iteration     100.00

 eigenvalues of (default mixing * dielectric matrix)
  average eigenvalue GAMMA=   1.6023
  1.1132  2.1518  1.5420

 Free energy of the ion-electron system (eV)
  ---------------------------------------------------
  alpha Z        PSCENC =        92.14382556
  Ewald energy   TEWEN  =    112141.26955695
  -Hartree energ DENC   =   -125827.28270563
  -exchange      EXHF   =         0.00000000
  -V(xc)+E(xc)   XCENC  =      1586.03658617
  PAW double counting   =     40523.07475864   -40689.78541172
  entropy T*S    EENTRO =        -0.02971665
  eigenvalues    EBANDS =     -5076.34269181
  atomic energy  EATOM  =     16689.68470767
  Solvation  Ediel_sol  =      -211.48316567
  ---------------------------------------------------
  free energy    TOTEN  =      -772.71425650 eV

  energy without entropy =     -772.68453985  energy(sigma->0) =     -772.69939817


--------------------------------------------------------------------------------------------------------




--------------------------------------- Iteration      1(   5)  ---------------------------------------


    POTLOK:  cpu time   53.6039: real time   53.7206
    SETDIJ:  cpu time    0.6412: real time    0.4431
    EDDIAG:  cpu time   38.1132: real time   28.2922
  RMM-DIIS:  cpu time  214.2257: real time  160.1076
    ORTHCH:  cpu time    1.6254: real time    0.8165
       DOS:  cpu time    0.0036: real time    0.0018
    CHARGE:  cpu time   24.9121: real time   23.4249
    MIXING:  cpu time    0.1665: real time    0.1342
    --------------------------------------------
      LOOP:  cpu time  333.2915: real time  266.9410

 eigenvalue-minimisations  :  5280
 total energy-change (2. order) :-0.2051246E-02  (-0.3253149E-03)
 number of electron     345.8999978 magnetization       0.9992336
 augmentation part       16.0620179 magnetization       0.1208124

 Broyden mixing:
  rms(total) = 0.70969E-02    rms(broyden)= 0.70910E-02
  rms(prec ) = 0.14249E-01
  weight for this iteration     100.00

 eigenvalues of (default mixing * dielectric matrix)
  average eigenvalue GAMMA=   2.2862
  3.5334  3.5334  0.9141  1.1637

 Free energy of the ion-electron system (eV)
  ---------------------------------------------------
  alpha Z        PSCENC =        92.14382556
  Ewald energy   TEWEN  =    112141.26955695
  -Hartree energ DENC   =   -125779.75734514
  -exchange      EXHF   =         0.00000000
  -V(xc)+E(xc)   XCENC  =      1585.91110260
  PAW double counting   =     40540.46549887   -40707.20496266
  entropy T*S    EENTRO =        -0.02971541
  eigenvalues    EBANDS =     -5079.13830376
  atomic energy  EATOM  =     16689.68470767
  Solvation  Ediel_sol  =      -256.06067243
  ---------------------------------------------------
  free energy    TOTEN  =      -772.71630775 eV

  energy without entropy =     -772.68659234  energy(sigma->0) =     -772.70145004


--------------------------------------------------------------------------------------------------------




--------------------------------------- Iteration      1(   6)  ---------------------------------------


    POTLOK:  cpu time   54.4368: real time   54.5575
    SETDIJ:  cpu time    1.5704: real time    1.1759
    EDDIAG:  cpu time   38.0910: real time   28.2661
  RMM-DIIS:  cpu time  214.0801: real time  160.0640
    ORTHCH:  cpu time    1.6263: real time    0.8169
       DOS:  cpu time    0.0028: real time    0.0014
    CHARGE:  cpu time   24.9031: real time   23.4112
    MIXING:  cpu time    0.1961: real time    0.1639
    --------------------------------------------
      LOOP:  cpu time  334.9065: real time  268.4569

 eigenvalue-minimisations  :  5280
 total energy-change (2. order) : 0.3194197E-03  (-0.5126468E-03)
 number of electron     345.8999978 magnetization       0.9989521
 augmentation part       16.0642091 magnetization       0.1234258

 Broyden mixing:
  rms(total) = 0.40913E-02    rms(broyden)= 0.40846E-02
  rms(prec ) = 0.50623E-02
  weight for this iteration     100.00

 eigenvalues of (default mixing * dielectric matrix)
  average eigenvalue GAMMA=   2.3207
  5.8442  2.7536  1.1364  1.1364  0.7329

 Free energy of the ion-electron system (eV)
  ---------------------------------------------------
  alpha Z        PSCENC =        92.14382556
  Ewald energy   TEWEN  =    112141.26955695
  -Hartree energ DENC   =   -125700.49071861
  -exchange      EXHF   =         0.00000000
  -V(xc)+E(xc)   XCENC  =      1585.79483245
  PAW double counting   =     40561.14032960   -40727.92418363
  entropy T*S    EENTRO =        -0.02971520
  eigenvalues    EBANDS =     -5082.42756164
  atomic energy  EATOM  =     16689.68470767
  Solvation  Ediel_sol  =      -331.87706147
  ---------------------------------------------------
  free energy    TOTEN  =      -772.71598833 eV

  energy without entropy =     -772.68627313  energy(sigma->0) =     -772.70113073


--------------------------------------------------------------------------------------------------------




--------------------------------------- Iteration      1(   7)  ---------------------------------------


    POTLOK:  cpu time   50.9051: real time   51.0185
    SETDIJ:  cpu time    1.6413: real time    1.2471
    EDDIAG:  cpu time   38.0546: real time   28.2323
  RMM-DIIS:  cpu time  213.9242: real time  160.0894
    ORTHCH:  cpu time    1.6217: real time    0.8150
       DOS:  cpu time    0.0032: real time    0.0016
    CHARGE:  cpu time   24.8444: real time   23.3485
    MIXING:  cpu time    0.1699: real time    0.1394
    --------------------------------------------
      LOOP:  cpu time  331.1644: real time  264.8919

 eigenvalue-minimisations  :  5280
 total energy-change (2. order) :-0.8374748E-03  (-0.3535694E-04)
 number of electron     345.8999978 magnetization       0.9979207
 augmentation part       16.0635722 magnetization       0.1239730

 Broyden mixing:
  rms(total) = 0.29335E-02    rms(broyden)= 0.29319E-02
  rms(prec ) = 0.37177E-02
  weight for this iteration     100.00

 eigenvalues of (default mixing * dielectric matrix)
  average eigenvalue GAMMA=   2.4319
  6.8809  2.8508  2.0789  1.1969  0.9170  0.6666

 Free energy of the ion-electron system (eV)
  ---------------------------------------------------
  alpha Z        PSCENC =        92.14382556
  Ewald energy   TEWEN  =    112141.26955695
  -Hartree energ DENC   =   -125694.84898508
  -exchange      EXHF   =         0.00000000
  -V(xc)+E(xc)   XCENC  =      1585.80716876
  PAW double counting   =     40560.56150690   -40727.34224839
  entropy T*S    EENTRO =        -0.02971550
  eigenvalues    EBANDS =     -5081.82666223
  atomic energy  EATOM  =     16689.68470767
  Solvation  Ediel_sol  =      -338.13598045
  ---------------------------------------------------
  free energy    TOTEN  =      -772.71682580 eV

  energy without entropy =     -772.68711030  energy(sigma->0) =     -772.70196805


--------------------------------------------------------------------------------------------------------




--------------------------------------- Iteration      1(   8)  ---------------------------------------


    POTLOK:  cpu time   53.0847: real time   53.2019
    SETDIJ:  cpu time    1.5017: real time    1.1071
    EDDIAG:  cpu time   38.0363: real time   28.2358
  RMM-DIIS:  cpu time  214.3162: real time  160.1893
    ORTHCH:  cpu time    1.6424: real time    0.8252
       DOS:  cpu time    0.0041: real time    0.0021
    CHARGE:  cpu time   24.9346: real time   23.4489
    MIXING:  cpu time    0.1690: real time    0.1387
    --------------------------------------------
      LOOP:  cpu time  333.6890: real time  267.1488

 eigenvalue-minimisations  :  5280
 total energy-change (2. order) :-0.1994283E-02  (-0.5142033E-04)
 number of electron     345.8999978 magnetization       0.9970031
 augmentation part       16.0624976 magnetization       0.1286970

 Broyden mixing:
  rms(total) = 0.22018E-02    rms(broyden)= 0.22011E-02
  rms(prec ) = 0.24640E-02
  weight for this iteration     100.00

 eigenvalues of (default mixing * dielectric matrix)
  average eigenvalue GAMMA=   2.4500
  7.7587  3.4059  2.4431  1.0714  1.0714  0.7633  0.6362

 Free energy of the ion-electron system (eV)
  ---------------------------------------------------
  alpha Z        PSCENC =        92.14382556
  Ewald energy   TEWEN  =    112141.26955695
  -Hartree energ DENC   =   -125690.74849640
  -exchange      EXHF   =         0.00000000
  -V(xc)+E(xc)   XCENC  =      1585.86849311
  PAW double counting   =     40566.63790025   -40733.41634645
  entropy T*S    EENTRO =        -0.02971278
  eigenvalues    EBANDS =     -5078.83381467
  atomic energy  EATOM  =     16689.68470767
  Solvation  Ediel_sol  =      -345.29493333
  ---------------------------------------------------
  free energy    TOTEN  =      -772.71882008 eV

  energy without entropy =     -772.68910730  energy(sigma->0) =     -772.70396369


--------------------------------------------------------------------------------------------------------




--------------------------------------- Iteration      1(   9)  ---------------------------------------


    POTLOK:  cpu time   50.8857: real time   50.9976
    SETDIJ:  cpu time    2.0756: real time    1.6822
    EDDIAG:  cpu time   38.0830: real time   28.2689
  RMM-DIIS:  cpu time  209.2751: real time  158.4499
    ORTHCH:  cpu time    1.6330: real time    0.8207
       DOS:  cpu time    0.0043: real time    0.0021
    CHARGE:  cpu time   24.9021: real time   23.4045
    MIXING:  cpu time    0.1789: real time    0.1433
    --------------------------------------------
      LOOP:  cpu time  327.0378: real time  263.7692

 eigenvalue-minimisations  :  5126
 total energy-change (2. order) :-0.5445970E-03  (-0.1135410E-04)
 number of electron     345.8999978 magnetization       0.9958104
 augmentation part       16.0630235 magnetization       0.1324744

 Broyden mixing:
  rms(total) = 0.11020E-02    rms(broyden)= 0.11010E-02
  rms(prec ) = 0.12945E-02
  weight for this iteration     100.00

 eigenvalues of (default mixing * dielectric matrix)
  average eigenvalue GAMMA=   2.2804
  7.8552  3.5664  2.4450  1.1569  1.1569  0.8377  0.6651  0.5595

 Free energy of the ion-electron system (eV)
  ---------------------------------------------------
  alpha Z        PSCENC =        92.14382556
  Ewald energy   TEWEN  =    112141.26955695
  -Hartree energ DENC   =   -125689.50377020
  -exchange      EXHF   =         0.00000000
  -V(xc)+E(xc)   XCENC  =      1585.86811649
  PAW double counting   =     40567.70435208   -40734.48037045
  entropy T*S    EENTRO =        -0.02970866
  eigenvalues    EBANDS =     -5078.26041661
  atomic energy  EATOM  =     16689.68470767
  Solvation  Ediel_sol  =      -347.11565751
  ---------------------------------------------------
  free energy    TOTEN  =      -772.71936468 eV

  energy without entropy =     -772.68965603  energy(sigma->0) =     -772.70451035


--------------------------------------------------------------------------------------------------------




--------------------------------------- Iteration      1(  10)  ---------------------------------------


    POTLOK:  cpu time   48.0598: real time   48.1660
    SETDIJ:  cpu time    1.9405: real time    1.5469
    EDDIAG:  cpu time   38.0889: real time   28.2784
  RMM-DIIS:  cpu time  188.7889: real time  143.5824
    ORTHCH:  cpu time    1.6203: real time    0.8139
       DOS:  cpu time    0.0049: real time    0.0024
    CHARGE:  cpu time   24.8949: real time   23.4057
    MIXING:  cpu time    0.1782: real time    0.1438
    --------------------------------------------
      LOOP:  cpu time  303.5766: real time  245.9395

 eigenvalue-minimisations  :  4300
 total energy-change (2. order) :-0.4453348E-03  (-0.5635581E-05)
 number of electron     345.8999978 magnetization       0.9944629
 augmentation part       16.0634911 magnetization       0.1374771

 Broyden mixing:
  rms(total) = 0.11938E-02    rms(broyden)= 0.11923E-02
  rms(prec ) = 0.12976E-02
  weight for this iteration     100.00

 eigenvalues of (default mixing * dielectric matrix)
  average eigenvalue GAMMA=   2.1384
  7.9063  3.6018  2.4416  0.8013  1.1810  1.1810  0.8570  0.6779  0.5979

 Free energy of the ion-electron system (eV)
  ---------------------------------------------------
  alpha Z        PSCENC =        92.14382556
  Ewald energy   TEWEN  =    112141.26955695
  -Hartree energ DENC   =   -125688.88203589
  -exchange      EXHF   =         0.00000000
  -V(xc)+E(xc)   XCENC  =      1585.86783156
  PAW double counting   =     40566.62148349   -40733.39599892
  entropy T*S    EENTRO =        -0.02970125
  eigenvalues    EBANDS =     -5078.26333152
  atomic energy  EATOM  =     16689.68470767
  Solvation  Ediel_sol  =      -347.73614767
  ---------------------------------------------------
  free energy    TOTEN  =      -772.71981002 eV

  energy without entropy =     -772.69010877  energy(sigma->0) =     -772.70495939


--------------------------------------------------------------------------------------------------------




--------------------------------------- Iteration      1(  11)  ---------------------------------------


    POTLOK:  cpu time   46.8389: real time   46.9437
    SETDIJ:  cpu time    1.2801: real time    0.8849
    EDDIAG:  cpu time   38.0772: real time   28.2671
  RMM-DIIS:  cpu time  180.6482: real time  136.9897
    ORTHCH:  cpu time    1.6363: real time    0.8220
       DOS:  cpu time    0.0043: real time    0.0021
    CHARGE:  cpu time   24.8572: real time   23.3666
    MIXING:  cpu time    0.2028: real time    0.1709
    --------------------------------------------
      LOOP:  cpu time  293.5449: real time  237.4472

 eigenvalue-minimisations  :  4054
 total energy-change (2. order) :-0.2921903E-03  (-0.2955408E-05)
 number of electron     345.8999978 magnetization       0.9963537
 augmentation part       16.0633815 magnetization       0.1467221

 Broyden mixing:
  rms(total) = 0.11872E-02    rms(broyden)= 0.11851E-02
  rms(prec ) = 0.12520E-02
  weight for this iteration     100.00

 eigenvalues of (default mixing * dielectric matrix)
  average eigenvalue GAMMA=   2.3445
  8.1111  3.0455  3.8457  2.5016  1.6544  1.1667  0.9175  0.9175  0.6806  0.6041

 Free energy of the ion-electron system (eV)
  ---------------------------------------------------
  alpha Z        PSCENC =        92.14382556
  Ewald energy   TEWEN  =    112141.26955695
  -Hartree energ DENC   =   -125688.64348753
  -exchange      EXHF   =         0.00000000
  -V(xc)+E(xc)   XCENC  =      1585.87101956
  PAW double counting   =     40565.45826201   -40732.23249707
  entropy T*S    EENTRO =        -0.02968990
  eigenvalues    EBANDS =     -5078.28075011
  atomic energy  EATOM  =     16689.68470767
  Solvation  Ediel_sol  =      -347.96104935
  ---------------------------------------------------
  free energy    TOTEN  =      -772.72010221 eV

  energy without entropy =     -772.69041230  energy(sigma->0) =     -772.70525725


--------------------------------------------------------------------------------------------------------




--------------------------------------- Iteration      1(  12)  ---------------------------------------


    POTLOK:  cpu time   45.2136: real time   45.3142
    SETDIJ:  cpu time    0.6385: real time    0.4405
    EDDIAG:  cpu time   38.0909: real time   28.2750
  RMM-DIIS:  cpu time  182.1447: real time  138.8169
    ORTHCH:  cpu time    1.6193: real time    0.8134
       DOS:  cpu time    0.0037: real time    0.0019
    CHARGE:  cpu time   24.8596: real time   23.3778
    MIXING:  cpu time    0.1795: real time    0.1477
    --------------------------------------------
      LOOP:  cpu time  292.7498: real time  237.1874

 eigenvalue-minimisations  :  4113
 total energy-change (2. order) : 0.1311404E-03  (-0.3728377E-05)
 number of electron     345.8999978 magnetization       0.9988496
 augmentation part       16.0635713 magnetization       0.1389219

 Broyden mixing:
  rms(total) = 0.12079E-02    rms(broyden)= 0.12067E-02
  rms(prec ) = 0.12864E-02
  weight for this iteration     100.00

 eigenvalues of (default mixing * dielectric matrix)
  average eigenvalue GAMMA=   2.3002
  8.1561  4.1309  3.8719  2.5779  1.7872  1.0660  1.0660  0.8595  0.6940  0.5989
  0.4934

 Free energy of the ion-electron system (eV)
  ---------------------------------------------------
  alpha Z        PSCENC =        92.14382556
  Ewald energy   TEWEN  =    112141.26955695
  -Hartree energ DENC   =   -125688.50987801
  -exchange      EXHF   =         0.00000000
  -V(xc)+E(xc)   XCENC  =      1585.86741147
  PAW double counting   =     40565.32981938   -40732.10339745
  entropy T*S    EENTRO =        -0.02970476
  eigenvalues    EBANDS =     -5078.32616771
  atomic energy  EATOM  =     16689.68470767
  Solvation  Ediel_sol  =      -348.04614416
  ---------------------------------------------------
  free energy    TOTEN  =      -772.71997107 eV

  energy without entropy =     -772.69026630  energy(sigma->0) =     -772.70511869


--------------------------------------------------------------------------------------------------------




--------------------------------------- Iteration      1(  13)  ---------------------------------------


    POTLOK:  cpu time   45.1515: real time   45.2545
    SETDIJ:  cpu time    1.3473: real time    0.9523
    EDDIAG:  cpu time   38.0427: real time   28.2307
  RMM-DIIS:  cpu time  179.1789: real time  135.6539
    ORTHCH:  cpu time    1.6219: real time    0.8153
       DOS:  cpu time    0.0034: real time    0.0017
    CHARGE:  cpu time   24.8829: real time   23.4001
    MIXING:  cpu time    0.1829: real time    0.1520
    --------------------------------------------
      LOOP:  cpu time  290.4116: real time  234.4606

 eigenvalue-minimisations  :  4014
 total energy-change (2. order) :-0.3516288E-04  (-0.3035778E-05)
 number of electron     345.8999978 magnetization       0.9997477
 augmentation part       16.0634417 magnetization       0.1272347

 Broyden mixing:
  rms(total) = 0.66520E-03    rms(broyden)= 0.65787E-03
  rms(prec ) = 0.77381E-03
  weight for this iteration     100.00

 eigenvalues of (default mixing * dielectric matrix)
  average eigenvalue GAMMA=   2.3569
  8.6618  4.0422  4.3570  3.0672  2.1731  1.1868  1.1868  0.8159  0.8159  0.6848
  0.6848  0.6062

 Free energy of the ion-electron system (eV)
  ---------------------------------------------------
  alpha Z        PSCENC =        92.14382556
  Ewald energy   TEWEN  =    112141.26955695
  -Hartree energ DENC   =   -125688.42793796
  -exchange      EXHF   =         0.00000000
  -V(xc)+E(xc)   XCENC  =      1585.86940228
  PAW double counting   =     40564.46544675   -40731.23889528
  entropy T*S    EENTRO =        -0.02971517
  eigenvalues    EBANDS =     -5078.31519544
  atomic energy  EATOM  =     16689.68470767
  Solvation  Ediel_sol  =      -348.14120159
  ---------------------------------------------------
  free energy    TOTEN  =      -772.72000623 eV

  energy without entropy =     -772.69029106  energy(sigma->0) =     -772.70514864


--------------------------------------------------------------------------------------------------------




--------------------------------------- Iteration      1(  14)  ---------------------------------------


    POTLOK:  cpu time   47.5050: real time   47.6111
    SETDIJ:  cpu time    0.8459: real time    0.5465
    EDDIAG:  cpu time   38.0614: real time   28.2427
  RMM-DIIS:  cpu time  180.9369: real time  137.2339
    ORTHCH:  cpu time    1.6259: real time    0.8178
       DOS:  cpu time    0.0047: real time    0.0024
    CHARGE:  cpu time   24.8868: real time   23.4043
    MIXING:  cpu time    0.1920: real time    0.1575
    --------------------------------------------
      LOOP:  cpu time  294.0586: real time  238.0162

 eigenvalue-minimisations  :  4079
 total energy-change (2. order) :-0.3659901E-03  (-0.4380844E-05)
 number of electron     345.8999978 magnetization       1.0012971
 augmentation part       16.0630808 magnetization       0.1260179

 Broyden mixing:
  rms(total) = 0.50919E-03    rms(broyden)= 0.50676E-03
  rms(prec ) = 0.57172E-03
  weight for this iteration     100.00

 eigenvalues of (default mixing * dielectric matrix)
  average eigenvalue GAMMA=   2.3189
  8.9358  4.1808  4.6213  3.0584  2.2764  1.2003  1.2003  0.9325  0.9325  0.8321
  0.7176  0.6354  0.6225

 Free energy of the ion-electron system (eV)
  ---------------------------------------------------
  alpha Z        PSCENC =        92.14382556
  Ewald energy   TEWEN  =    112141.26955695
  -Hartree energ DENC   =   -125688.20456710
  -exchange      EXHF   =         0.00000000
  -V(xc)+E(xc)   XCENC  =      1585.87448341
  PAW double counting   =     40563.43477078   -40730.20866364
  entropy T*S    EENTRO =        -0.02971632
  eigenvalues    EBANDS =     -5078.18657535
  atomic energy  EATOM  =     16689.68470767
  Solvation  Ediel_sol  =      -348.49819419
  ---------------------------------------------------
  free energy    TOTEN  =      -772.72037222 eV

  energy without entropy =     -772.69065590  energy(sigma->0) =     -772.70551406


--------------------------------------------------------------------------------------------------------




--------------------------------------- Iteration      1(  15)  ---------------------------------------


    POTLOK:  cpu time   45.9739: real time   46.0751
    SETDIJ:  cpu time    0.6404: real time    0.4423
    EDDIAG:  cpu time   38.0622: real time   28.2450
  RMM-DIIS:  cpu time  177.2008: real time  134.9395
    ORTHCH:  cpu time    1.6474: real time    0.8275
       DOS:  cpu time    0.0047: real time    0.0024
    CHARGE:  cpu time   24.8969: real time   23.4104
    MIXING:  cpu time    0.1931: real time    0.1601
    --------------------------------------------
      LOOP:  cpu time  288.6195: real time  234.1023

 eigenvalue-minimisations  :  3963
 total energy-change (2. order) :-0.1891679E-03  (-0.2149523E-05)
 number of electron     345.8999978 magnetization       1.0022469
 augmentation part       16.0630919 magnetization       0.1211148

 Broyden mixing:
  rms(total) = 0.30531E-03    rms(broyden)= 0.29941E-03
  rms(prec ) = 0.35105E-03
  weight for this iteration     100.00

 eigenvalues of (default mixing * dielectric matrix)
  average eigenvalue GAMMA=   2.3507
  9.3911  4.3438  5.1100  3.0796  2.5819  1.7156  1.1354  1.1354  0.8556  0.8556
  0.7203  0.7203  0.6167  0.6490

 Free energy of the ion-electron system (eV)
  ---------------------------------------------------
  alpha Z        PSCENC =        92.14382556
  Ewald energy   TEWEN  =    112141.26955695
  -Hartree energ DENC   =   -125688.10994923
  -exchange      EXHF   =         0.00000000
  -V(xc)+E(xc)   XCENC  =      1585.87423596
  PAW double counting   =     40563.91825547   -40730.69273622
  entropy T*S    EENTRO =        -0.02971732
  eigenvalues    EBANDS =     -5078.14339488
  atomic energy  EATOM  =     16689.68470767
  Solvation  Ediel_sol  =      -348.63534535
  ---------------------------------------------------
  free energy    TOTEN  =      -772.72056139 eV

  energy without entropy =     -772.69084407  energy(sigma->0) =     -772.70570273


--------------------------------------------------------------------------------------------------------




[...]
   -.831E-01 0.770E+01 0.722E+02   0.995E-01 -.771E+01 -.722E+02   -.493E-02 -.248E-02 0.172E-01   -.340E-03 0.163E-03 -.612E-04
   -.980E+01 0.192E+02 0.823E+02   0.981E+01 -.192E+02 -.822E+02   -.691E-02 -.523E-03 0.169E-01   -.445E-03 0.429E-03 -.115E-03
   -.263E+02 0.183E+02 0.904E+02   0.263E+02 -.183E+02 -.903E+02   -.123E-01 0.289E-02 0.451E-02   -.447E-03 0.502E-03 -.285E-03
   -.296E+02 0.883E+01 0.870E+02   0.296E+02 -.879E+01 -.870E+02   -.116E-01 0.271E-02 0.178E-01   -.999E-03 0.646E-03 -.469E-04
   -.203E+02 0.452E+00 0.785E+02   0.202E+02 -.431E+00 -.783E+02   -.811E-02 0.776E-03 0.126E-01   -.663E-03 0.339E-03 -.148E-04
   -.612E+01 -.132E+01 0.708E+02   0.610E+01 0.130E+01 -.708E+02   -.468E-02 -.211E-02 -.586E-02   -.679E-03 0.807E-04 -.317E-03
   0.177E+02 -.839E+01 0.764E+02   -.177E+02 0.840E+01 -.763E+02   -.191E-02 -.237E-02 0.176E-02   -.958E-04 -.107E-03 -.479E-03
   0.112E+02 -.730E+01 0.771E+02   -.112E+02 0.729E+01 -.770E+02   -.354E-02 -.382E-02 0.835E-02   -.103E-03 0.152E-03 -.454E-03
   -.257E+01 -.225E+01 0.752E+02   0.255E+01 0.224E+01 -.751E+02   -.599E-02 -.412E-02 0.663E-02   -.183E-04 0.735E-04 -.389E-03
   -.860E+01 0.237E+01 0.726E+02   0.858E+01 -.235E+01 -.726E+02   -.628E-02 -.141E-02 0.171E-01   -.559E-04 0.228E-03 -.127E-03
   -.648E+00 0.213E+01 0.720E+02   0.624E+00 -.210E+01 -.719E+02   -.454E-02 0.460E-03 0.156E-02   0.121E-04 0.224E-04 -.302E-03
   0.123E+02 -.358E+01 0.747E+02   -.124E+02 0.360E+01 -.746E+02   -.140E-02 0.303E-03 0.183E-01   -.216E-03 -.489E-04 -.147E-03
   -.156E+00 0.153E+02 -.373E+03   -.238E+01 -.175E+02 0.367E+03   0.249E+01 0.199E+01 0.825E+01   0.694E-03 -.411E-03 0.600E-03
   -.458E+02 -.773E+02 -.264E+03   0.539E+02 0.885E+02 0.268E+03   -.835E+01 -.117E+02 -.201E+01   0.774E-03 -.774E-03 0.503E-03
   -.326E+02 -.865E+02 -.372E+03   0.326E+02 0.865E+02 0.373E+03   -.166E-01 -.386E-01 -.715E-01   0.466E-02 -.133E-02 -.892E-04
   -.541E+03 0.431E+02 -.782E+03   0.600E+03 -.452E+02 0.793E+03   -.577E+02 0.164E+01 -.746E+01   0.526E-03 0.578E-03 -.172E-04
   0.202E+03 0.380E+03 -.102E+04   -.224E+03 -.419E+03 0.106E+04   0.222E+02 0.387E+02 -.340E+02   0.299E-03 -.612E-03 0.100E-03
   0.181E+03 -.428E+03 -.888E+03   -.202E+03 0.481E+03 0.909E+03   0.195E+02 -.518E+02 -.179E+02   0.179E-02 -.149E-02 0.931E-03
   -.166E+03 0.395E+03 -.392E+03   0.190E+03 -.445E+03 0.370E+03   -.228E+02 0.488E+02 0.240E+02   0.132E-02 -.196E-02 -.316E-03
   0.474E+03 -.315E+02 -.470E+03   -.533E+03 0.380E+02 0.459E+03   0.571E+02 -.649E+01 0.131E+02   -.143E-02 -.114E-02 -.952E-05
   -.329E+03 -.677E+00 -.533E+03   0.394E+03 -.249E+02 0.528E+03   -.614E+02 0.244E+02 0.667E+01   0.428E-02 -.102E-02 -.440E-03
   0.244E+03 -.233E+03 -.586E+03   -.309E+03 0.258E+03 0.595E+03   0.615E+02 -.243E+02 -.640E+01   0.189E-02 0.177E-03 0.935E-03
 -----------------------------------------------------------------------------------------------
   -.126E+02 -.213E+02 0.155E+02   0.568E-13 0.568E-13 0.102E-11   0.124E+02 0.212E+02 -.157E+02   0.153E-01 -.784E-02 -.188E-01
 
 
 POSITION                                       TOTAL-FORCE (eV/Angst)
 -----------------------------------------------------------------------------------
      1.25657     -0.72434     17.56972         0.002026     -0.000163      0.001219
      2.51256      1.45133     17.57058         0.003109     -0.001018      0.000217
      3.76877      3.62699     17.56928        -0.001211      0.001434      0.000878
      5.02499      5.80268     17.56778         0.000874      0.000440     -0.001668
      6.28117      7.97824     17.56671         0.001525     -0.001324      0.001359
      7.53720     10.15382     17.56800         0.002729     -0.002039     -0.000119
      2.51278     -2.90013     17.57144        -0.002923     -0.000411      0.000181
      3.76870     -0.72448     17.57312        -0.003687      0.003805      0.000898
      5.02492      1.45116     17.57153        -0.004250     -0.001313     -0.001400
      6.28131      3.62726     17.56584        -0.004770      0.004699     -0.000098
      7.53745      5.80266     17.56742        -0.002089      0.003248     -0.001977
      8.79343      7.97814     17.56781        -0.002679      0.001834      0.001910
      3.76903     -5.07586     17.57034        -0.002800      0.001813      0.000079
      5.02506     -2.90039     17.57389        -0.001957     -0.000386      0.000858
      6.28136     -0.72458     17.57499         0.000281      0.000124      0.001059
      7.53761      1.45121     17.57011        -0.002815     -0.003547     -0.001100
      8.79356      3.62691     17.56806         0.000742      0.007654      0.000839
     10.04961      5.80248     17.56772        -0.003954      0.004276      0.001301
      5.02516     -7.25135     17.56796        -0.002160      0.004377      0.000761
      6.28117     -5.07583     17.57008        -0.001755      0.001598      0.000803
      7.53733     -2.90018     17.57156        -0.000887      0.001957      0.000934
      8.79346     -0.72442     17.57023        -0.002216     -0.001965      0.001418
     10.04954      1.45130     17.56876        -0.001899     -0.001434      0.000195
     11.30561      3.62687     17.56818        -0.001516      0.003377     -0.000859
      6.28115     -9.42684     17.56757         0.002944      0.000107     -0.000181
      7.53727     -7.25126     17.56742         0.003123      0.001563      0.001260
      8.79335     -5.07564     17.56819         0.002025      0.000674     -0.000108
     10.04944     -2.89995     17.56782         0.001136     -0.001751      0.000906
     11.30554     -0.72429     17.56743         0.000900     -0.002732      0.000338
     12.56160      1.45134     17.56739         0.002152     -0.002618      0.000895
      7.53711    -11.60238     17.56786         0.006888     -0.005019      0.000896
      8.79323     -9.42679     17.56837         0.006930     -0.001753     -0.000117
     10.04936     -7.25116     17.56786         0.005131     -0.000841      0.000604
     11.30551     -5.07553     17.56699         0.004301     -0.001557      0.000713
     12.56161     -2.89986     17.56677         0.003576     -0.003911      0.000326
     13.81763     -0.72425     17.56754         0.005013     -0.004385     -0.000157
      1.25686      0.72601     17.56890        -0.006916      0.002180      0.002254
      2.51300      2.90160     17.56956        -0.004540      0.003934     -0.000091
      3.76909      5.07728     17.56832        -0.003640     -0.000438      0.000225
      5.02515      7.25295     17.56683        -0.003197      0.002840      0.001049
      6.28122      9.42860     17.56659        -0.003484      0.001443      0.000990
      7.53729     11.60416     17.56844        -0.004648      0.003627     -0.001738
      2.51285     -1.44962     17.57180         0.002788      0.000049      0.003426
      3.76893      0.72599     17.57335         0.002039     -0.001544     -0.001714
      5.02521      2.90164     17.56950         0.005541      0.000439      0.004391
      6.28120      5.07749     17.56751         0.001278     -0.006816     -0.004689
      7.53730      7.25299     17.56698         0.000810      0.000159      0.000432
      8.79336      9.42858     17.56870        -0.000324     -0.000743      0.000879
      3.76894     -3.62525     17.57327         0.004144      0.002035     -0.000609
      5.02494     -1.44958     17.57715         0.001468     -0.003026      0.004861
      6.28110      0.72606     17.57506         0.004296      0.002952     -0.000869
      7.53709      2.90173     17.56779         0.001181     -0.003669      0.003360
      8.79333      5.07738     17.56760         0.003269     -0.007046      0.000381
     10.04945      7.25297     17.56795         0.002634     -0.004203      0.002043
      5.02506     -5.80081     17.56932         0.002511     -0.004615     -0.000300
      6.28109     -3.62524     17.57270         0.000525      0.000876      0.001655
      7.53718     -1.44959     17.57266         0.000482     -0.001294      0.003310
      8.79327      0.72601     17.57008         0.002755      0.004131     -0.000720
     10.04940      2.90172     17.56850         0.000384     -0.002359     -0.000087
     11.30553      5.07733     17.56776         0.003589     -0.003495     -0.000352
      6.28123     -7.97642     17.56706        -0.000763     -0.002335      0.001920
      7.53727     -5.80079     17.56797         0.000258     -0.002523      0.001416
      8.79333     -3.62519     17.56897         0.001345     -0.000672     -0.000806
     10.04939     -1.44956     17.56788         0.002611      0.001492      0.001420
     11.30551      0.72607     17.56741         0.000717      0.001834      0.001416
     12.56164      2.90171     17.56778         0.000332      0.000018     -0.001645
      7.53736    -10.15207     17.56778        -0.006083      0.002709     -0.000883
      8.79347     -7.97644     17.56753        -0.005440      0.000683      0.000114
     10.04953     -5.80080     17.56737        -0.004129      0.000803     -0.000409
     11.30560     -3.62516     17.56658        -0.003156      0.002355      0.001128
     12.56168     -1.44956     17.56708        -0.004188      0.004477     -0.001148
     13.81776      0.72605     17.56697        -0.004471      0.004255      0.001804
      5.08955     -1.02634     23.12576        -0.000338      0.000112     -0.000651
      4.73850     -1.24980     21.67729        -0.012931     -0.006992     -0.008447
      6.30846      2.71835     21.39447         0.002543      0.002744      0.002046
      6.42032     -1.06794     23.28622        -0.001939      0.004971     -0.003771
      4.54817     -1.96591     23.93575        -0.004424     -0.001529     -0.003460
      4.63398      0.16938     23.52864         0.005169      0.000935     -0.006754
      5.24366     -2.36238     21.16122        -0.001755     -0.003018     -0.008401
      3.44672     -1.11924     21.40555         0.004679     -0.005285     -0.006991
      7.38413      2.28998     21.27620        -0.006854      0.005751     -0.005336
      5.23068      3.14321     21.50544         0.014034     -0.001016      0.006293
 -----------------------------------------------------------------------------------
    total drift:                               -0.159789     -0.183402     -0.182847


--------------------------------------------------------------------------------------------------------



  FREE ENERGIE OF THE ION-ELECTRON SYSTEM (eV)
  ---------------------------------------------------
  free  energy   TOTEN  =      -772.72099809 eV

  energy  without entropy=     -772.69128382  energy(sigma->0) =     -772.70614095
 
 d Force = 0.1036980E-05[-0.397E-06, 0.247E-05]  d Energy =-0.4007539E-05 0.504E-05
 d Force = 0.1239691E+00[ 0.124E+00, 0.124E+00]  d Ewald  = 0.1239692E+00-0.619E-07


--------------------------------------------------------------------------------------------------------


    POTLOK:  cpu time   42.4894: real time   42.4283


--------------------------------------------------------------------------------------------------------




--------------------------------------------------------------------------------------------------------


  
 reached required accuracy - stopping structural energy minimisation
 writing wavefunctions
     LOOP+:  cpu time 1130.2860: real time  940.3949
    4ORBIT:  cpu time    0.0000: real time    0.0000
 


 total charge     
 
# of ion       s       p       d       tot
------------------------------------------
    1        0.744   1.392   0.000   2.136
    2        0.744   1.392   0.000   2.136
    3        0.744   1.392   0.000   2.135
    4        0.744   1.392   0.000   2.136
    5        0.744   1.392   0.000   2.136
    6        0.744   1.392   0.000   2.136
    7        0.744   1.392   0.000   2.136
    8        0.744   1.392   0.000   2.136
    9        0.744   1.392   0.000   2.136
   10        0.744   1.393   0.000   2.136
   11        0.744   1.392   0.000   2.136
   12        0.744   1.392   0.000   2.136
   13        0.744   1.392   0.000   2.136
   14        0.744   1.392   0.000   2.136
   15        0.744   1.392   0.000   2.136
   16        0.744   1.392   0.000   2.136
   17        0.744   1.392   0.000   2.135
   18        0.744   1.392   0.000   2.135
   19        0.744   1.392   0.000   2.135
   20        0.744   1.392   0.000   2.136
   21        0.744   1.392   0.000   2.135
   22        0.744   1.392   0.000   2.135
   23        0.744   1.392   0.000   2.135
   24        0.744   1.392   0.000   2.135
   25        0.744   1.392   0.000   2.135
   26        0.744   1.392   0.000   2.135
   27        0.744   1.392   0.000   2.135
   28        0.744   1.392   0.000   2.135
   29        0.744   1.392   0.000   2.135
   30        0.744   1.392   0.000   2.135
   31        0.744   1.392   0.000   2.135
   32        0.744   1.392   0.000   2.135
   33        0.744   1.392   0.000   2.135
   34        0.744   1.392   0.000   2.136
   35        0.744   1.392   0.000   2.136
   36        0.744   1.392   0.000   2.136
   37        1.239   2.817   0.000   4.056
   38        1.239   2.817   0.000   4.056
   39        1.239   2.817   0.000   4.056
   40        1.239   2.817   0.000   4.056
   41        1.239   2.817   0.000   4.056
   42        1.239   2.817   0.000   4.056
   43        1.239   2.817   0.000   4.056
   44        1.239   2.817   0.000   4.056
   45        1.239   2.817   0.000   4.056
   46        1.239   2.817   0.000   4.056
   47        1.239   2.817   0.000   4.056
   48        1.239   2.817   0.000   4.056
   49        1.239   2.817   0.000   4.056
   50        1.239   2.817   0.000   4.056
   51        1.239   2.817   0.000   4.056
   52        1.239   2.817   0.000   4.056
   53        1.239   2.817   0.000   4.056
   54        1.239   2.817   0.000   4.056
   55        1.239   2.817   0.000   4.056
   56        1.239   2.817   0.000   4.056
   57        1.239   2.817   0.000   4.056
   58        1.239   2.817   0.000   4.056
   59        1.239   2.817   0.000   4.056
   60        1.239   2.817   0.000   4.056
   61        1.239   2.817   0.000   4.056
   62        1.239   2.817   0.000   4.056
   63        1.239   2.817   0.000   4.056
   64        1.239   2.817   0.000   4.056
   65        1.239   2.817   0.000   4.056
   66        1.239   2.817   0.000   4.056
   67        1.239   2.817   0.000   4.056
   68        1.239   2.817   0.000   4.056
   69        1.239   2.817   0.000   4.056
   70        1.239   2.817   0.000   4.056
   71        1.239   2.817   0.000   4.056
   72        1.239   2.817   0.000   4.056
   73        0.814   1.560   0.000   2.374
   74        0.836   1.566   0.000   2.402
   75        0.944   1.793   0.000   2.738
   76        1.758   4.413   0.000   6.171
   77        1.758   4.405   0.000   6.163
   78        1.758   4.413   0.000   6.171
   79        1.757   4.399   0.000   6.156
   80        1.757   4.400   0.000   6.156
   81        1.608   3.595   0.000   5.203
   82        1.608   3.595   0.000   5.204
--------------------------------------------------
tot         85.985 185.663   0.000 271.648
 


 magnetization (x)
 
# of ion       s       p       d       tot
------------------------------------------
    1       -0.000  -0.000   0.000  -0.000
    2       -0.000  -0.000   0.000  -0.000
    3       -0.000  -0.000   0.000  -0.000
    4       -0.000  -0.000   0.000  -0.000
    5       -0.000  -0.000   0.000  -0.000
    6       -0.000  -0.000   0.000  -0.000
    7       -0.000  -0.000   0.000  -0.000
    8       -0.000  -0.000   0.000  -0.000
    9       -0.000  -0.000   0.000  -0.000
   10       -0.000  -0.000   0.000  -0.000
   11       -0.000  -0.000   0.000  -0.000
   12       -0.000  -0.000   0.000  -0.000
   13       -0.000  -0.000   0.000  -0.000
   14       -0.000  -0.000   0.000  -0.000
   15       -0.000  -0.000   0.000  -0.000
   16       -0.000  -0.000   0.000  -0.000
   17       -0.000  -0.000   0.000  -0.000
   18       -0.000  -0.000   0.000  -0.000
   19       -0.000  -0.000   0.000  -0.000
   20       -0.000  -0.000   0.000  -0.000
   21       -0.000  -0.000   0.000  -0.000
   22       -0.000  -0.000   0.000  -0.000
   23       -0.000  -0.000   0.000  -0.000
   24       -0.000  -0.000   0.000  -0.000
   25       -0.000  -0.000   0.000  -0.000
   26       -0.000  -0.000   0.000  -0.000
   27       -0.000  -0.000   0.000  -0.000
   28       -0.000  -0.000   0.000  -0.000
   29       -0.000  -0.000   0.000  -0.000
   30       -0.000  -0.000   0.000  -0.000
   31       -0.000  -0.000   0.000  -0.000
   32       -0.000  -0.000   0.000  -0.000
   33       -0.000  -0.000   0.000  -0.000
   34       -0.000  -0.000   0.000  -0.000
   35       -0.000  -0.000   0.000  -0.000
   36       -0.000  -0.000   0.000  -0.000
   37        0.000   0.000   0.000   0.000
   38        0.000   0.000   0.000   0.000
   39        0.000   0.000   0.000   0.000
   40        0.000   0.000   0.000   0.000
   41        0.000   0.000   0.000   0.000
   42        0.000   0.000   0.000   0.000
   43        0.000   0.000   0.000   0.000
   44        0.000   0.000   0.000   0.000
   45        0.000   0.000   0.000   0.000
   46        0.000   0.000   0.000   0.000
   47        0.000   0.000   0.000   0.000
   48        0.000   0.000   0.000   0.000
   49        0.000   0.000   0.000   0.000
   50        0.000   0.000   0.000   0.000
   51        0.000   0.000   0.000   0.000
   52        0.000   0.000   0.000   0.000
   53        0.000   0.000   0.000   0.000
   54        0.000   0.000   0.000   0.000
   55        0.000   0.000   0.000   0.000
   56        0.000   0.000   0.000   0.000
   57        0.000   0.000   0.000   0.000
   58        0.000   0.000   0.000   0.000
   59        0.000   0.000   0.000   0.000
   60        0.000   0.000   0.000   0.000
   61        0.000   0.000   0.000   0.000
   62        0.000   0.000   0.000   0.000
   63        0.000   0.000   0.000   0.000
   64        0.000   0.000   0.000   0.000
   65        0.000   0.000   0.000   0.000
   66        0.000   0.000   0.000   0.000
   67        0.000   0.000   0.000   0.000
   68        0.000   0.000   0.000   0.000
   69        0.000   0.000   0.000   0.000
   70        0.000   0.000   0.000   0.000
   71        0.000   0.000   0.000   0.000
   72        0.000   0.000   0.000   0.000
   73        0.004   0.011   0.000   0.015
   74        0.071   0.377   0.000   0.447
   75       -0.000   0.000   0.000   0.000
   76       -0.000  -0.000   0.000  -0.001
   77        0.001   0.030   0.000   0.031
   78       -0.000  -0.000   0.000  -0.001
   79        0.003   0.077   0.000   0.080
   80        0.003   0.077   0.000   0.080
   81        0.000   0.000   0.000   0.000
   82        0.000   0.000   0.000   0.000
--------------------------------------------------
tot          0.082   0.579   0.000   0.660
 

 total amount of memory used by VASP MPI-rank0  1200918. kBytes
=======================================================================

   base      :      30000. kBytes
   nonlr-proj:      37380. kBytes
   fftplans  :      59250. kBytes
   grid      :     716351. kBytes
   one-center:        503. kBytes
   wavefun   :     357434. kBytes
 
  
  
 General timing and accounting informations for this job:
 ========================================================
  
                  Total CPU time used (sec):    12371.694
                            User time (sec):    11921.972
                          System time (sec):      449.722
                         Elapsed time (sec):    10102.864
  
                   Maximum memory used (kb):     2930392.
                   Average memory used (kb):           0.
  
                          Minor page faults:     49004336
                          Major page faults:           24
                 Voluntary context switches:        87052
