 vasp.5.4.4.18Apr17-6-g9f103f2a35 (build May 01 2020 14:57:12) complex          
  
 executed on             LinuxIFC date 2020.10.15  07:06:34
 running on   96 total cores
 distrk:  each k-point on   24 cores,    4 groups
 distr:  one band on NCORES_PER_BAND=   1 cores,   24 groups


--------------------------------------------------------------------------------------------------------


 INCAR:
 POTCAR:    PAW_PBE B 06Sep2000                   
 POTCAR:    PAW_PBE N 08Apr2002                   
 POTCAR:    PAW_PBE C 08Apr2002                   
 POTCAR:    PAW_PBE F 08Apr2002                   
 POTCAR:    PAW_PBE O 08Apr2002                   

 ----------------------------------------------------------------------------- 
|                                                                             |
|           W    W    AA    RRRRR   N    N  II  N    N   GGGG   !!!           |
|           W    W   A  A   R    R  NN   N  II  NN   N  G    G  !!!           |
|           W    W  A    A  R    R  N N  N  II  N N  N  G       !!!           |
|           W WW W  AAAAAA  RRRRR   N  N N  II  N  N N  G  GGG   !            |
|           WW  WW  A    A  R   R   N   NN  II  N   NN  G    G                |
|           W    W  A    A  R    R  N    N  II  N    N   GGGG   !!!           |
|                                                                             |
|      For optimal performance we recommend to set                            |
|        NCORE= 4 - approx SQRT( number of cores)                             |
|      NCORE specifies how many cores store one orbital (NPAR=cpu/NCORE).     |
|      This setting can  greatly improve the performance of VASP for DFT.     |
|      The default,   NCORE=1            might be grossly inefficient         |
|      on modern multi-core architectures or massively parallel machines.     |
|      Do your own testing !!!!                                               |
|      Unfortunately you need to use the default for GW and RPA calculations. |
|      (for HF NCORE is supported but not extensively tested yet)             |
|                                                                             |
 ----------------------------------------------------------------------------- 


 ----------------------------------------------------------------------------- 
|                                                                             |
|           W    W    AA    RRRRR   N    N  II  N    N   GGGG   !!!           |
|           W    W   A  A   R    R  NN   N  II  NN   N  G    G  !!!           |
|           W    W  A    A  R    R  N N  N  II  N N  N  G       !!!           |
|           W WW W  AAAAAA  RRRRR   N  N N  II  N  N N  G  GGG   !            |
|           WW  WW  A    A  R   R   N   NN  II  N   NN  G    G                |
|           W    W  A    A  R    R  N    N  II  N    N   GGGG   !!!           |
|                                                                             |
|      You have enabled k-point parallelism (KPAR>1).                         |
|      This developmental code was originally  written by Paul Kent at ORNL,  |
|      and carefully double checked in Vienna.                                |
|      GW as well as linear response parallelism added by Martijn Marsman     |
|      and Georg Kresse.                                                      |
|      Carefully verify results versus KPAR=1.                                |
|      Report problems to Paul Kent and Vienna.                               |
|                                                                             |
 ----------------------------------------------------------------------------- 

 POTCAR:    PAW_PBE B 06Sep2000                   
   VRHFIN =B: s2p1                                                              
   LEXCH  = PE                                                                  
   EATOM  =    71.1703 eV,    5.2309 Ry                                         
                                                                                
   TITEL  = PAW_PBE B 06Sep2000                                                 
   LULTRA =        F    use ultrasoft PP ?                                      
   IUNSCR =        1    unscreen: 0-lin 1-nonlin 2-no                           
   RPACOR =    1.200    partial core radius                                     
   POMASS =   10.811; ZVAL   =    3.000    mass and valenz                      
   RCORE  =    1.700    outmost cutoff radius                                   
   RWIGS  =    1.710; RWIGS  =    0.905    wigner-seitz radius (au A)           
   ENMAX  =  318.614; ENMIN  =  238.960 eV                                      
   ICORE  =        2    local potential                                         
   LCOR   =        T    correct aug charges                                     
   LPAW   =        T    paw PP                                                  
   EAUG   =  535.514                                                            
   DEXC   =    0.000                                                            
   RMAX   =    1.732    core radius for proj-oper                               
   RAUG   =    1.300    factor for augmentation sphere                          
   RDEP   =    1.757    radius for radial grids                                 
   RDEPT  =    1.436    core radius for aug-charge                              
                                                                                
   Atomic configuration                                                         
    4 entries                                                                   
     n  l   j            E        occ.                                          
     1  0  0.50      -180.5896   2.0000                                         
     2  0  0.50        -9.4431   2.0000                                         
     2  1  0.50        -3.6068   1.0000                                         
     3  2  1.50        -4.0817   0.0000                                         
   Description                                                                  
     l       E           TYP  RCUT    TYP  RCUT                                 
     0     -9.4430752     23  1.500                                             
     0      0.8675899     23  1.500                                             
     1     -3.6067955     23  1.700                                             
     1      6.1086146     23  1.700                                             
     2     -4.0817478      7  1.700                                             
  local pseudopotential read in
  partial core-charges read in
  partial kinetic energy density read in
  atomic valenz-charges read in
  non local Contribution for L=           0  read in
    real space projection operators read in
  non local Contribution for L=           0  read in
    real space projection operators read in
  non local Contribution for L=           1  read in
    real space projection operators read in
  non local Contribution for L=           1  read in
    real space projection operators read in
    PAW grid and wavefunctions read in
 
   number of l-projection  operators is LMAX  =           4
   number of lm-projection operators is LMMAX =           8
 
 POTCAR:    PAW_PBE N 08Apr2002                   
   VRHFIN =N: s2p3                                                              
   LEXCH  = PE                                                                  
   EATOM  =   264.5486 eV,   19.4438 Ry                                         
                                                                                
   TITEL  = PAW_PBE N 08Apr2002                                                 
   LULTRA =        F    use ultrasoft PP ?                                      
   IUNSCR =        1    unscreen: 0-lin 1-nonlin 2-no                           
   RPACOR =    1.200    partial core radius                                     
   POMASS =   14.001; ZVAL   =    5.000    mass and valenz                      
   RCORE  =    1.500    outmost cutoff radius                                   
   RWIGS  =    1.400; RWIGS  =    0.741    wigner-seitz radius (au A)           
   ENMAX  =  400.000; ENMIN  =  300.000 eV                                      
   ICORE  =        2    local potential                                         
   LCOR   =        T    correct aug charges                                     
   LPAW   =        T    paw PP                                                  
   EAUG   =  627.112                                                            
   DEXC   =    0.000                                                            
   RMAX   =    1.529    core radius for proj-oper                               
   RAUG   =    1.300    factor for augmentation sphere                          
   RDEP   =    1.514    radius for radial grids                                 
   RDEPT  =    1.338    core radius for aug-charge                              
                                                                                
   Atomic configuration                                                         
    4 entries                                                                   
     n  l   j            E        occ.                                          
     1  0  0.50      -384.7179   2.0000                                         
     2  0  0.50       -18.5828   2.0000                                         
     2  1  0.50        -7.0898   3.0000                                         
     3  2  1.50        -6.8029   0.0000                                         
   Description                                                                  
     l       E           TYP  RCUT    TYP  RCUT                                 
     0    -18.5828119     23  1.200                                             
     0    -13.5018863     23  1.200                                             
     1     -7.0897853     23  1.500                                             
     1      9.5240782     23  1.500                                             
     2     -6.8029130      7  1.500                                             
  local pseudopotential read in
  partial core-charges read in
  partial kinetic energy density read in
  atomic valenz-charges read in
  non local Contribution for L=           0  read in
    real space projection operators read in
  non local Contribution for L=           0  read in
    real space projection operators read in
  non local Contribution for L=           1  read in
    real space projection operators read in
  non local Contribution for L=           1  read in
    real space projection operators read in
    PAW grid and wavefunctions read in
 
   number of l-projection  operators is LMAX  =           4
   number of lm-projection operators is LMMAX =           8
 
 POTCAR:    PAW_PBE C 08Apr2002                   
   VRHFIN =C: s2p2                                                              
   LEXCH  = PE                                                                  
   EATOM  =   147.1560 eV,   10.8157 Ry                                         
                                                                                
   TITEL  = PAW_PBE C 08Apr2002                                                 
   LULTRA =        F    use ultrasoft PP ?                                      
   IUNSCR =        1    unscreen: 0-lin 1-nonlin 2-no                           
   RPACOR =    1.200    partial core radius                                     
   POMASS =   12.011; ZVAL   =    4.000    mass and valenz                      
   RCORE  =    1.500    outmost cutoff radius                                   
   RWIGS  =    1.630; RWIGS  =    0.863    wigner-seitz radius (au A)           
   ENMAX  =  400.000; ENMIN  =  300.000 eV                                      
   ICORE  =        2    local potential                                         
   LCOR   =        T    correct aug charges                                     
   LPAW   =        T    paw PP                                                  
   EAUG   =  644.873                                                            
   DEXC   =    0.000                                                            
   RMAX   =    1.529    core radius for proj-oper                               
   RAUG   =    1.300    factor for augmentation sphere                          
   RDEP   =    1.501    radius for radial grids                                 
   RDEPT  =    1.300    core radius for aug-charge                              
                                                                                
   Atomic configuration                                                         
    4 entries                                                                   
     n  l   j            E        occ.                                          
     1  0  0.50      -273.3789   2.0000                                         
     2  0  0.50       -13.7508   2.0000                                         
     2  1  0.50        -5.2854   2.0000                                         
     3  2  1.50        -5.4423   0.0000                                         
   Description                                                                  
     l       E           TYP  RCUT    TYP  RCUT                                 
     0    -13.7508458     23  1.200                                             
     0     -8.2022199     23  1.200                                             
     1     -5.2854383     23  1.500                                             
     1     34.0145650     23  1.500                                             
     2     -5.4423304      7  1.500                                             
  local pseudopotential read in
  partial core-charges read in
  partial kinetic energy density read in
  atomic valenz-charges read in
  non local Contribution for L=           0  read in
    real space projection operators read in
  non local Contribution for L=           0  read in
    real space projection operators read in
  non local Contribution for L=           1  read in
    real space projection operators read in
  non local Contribution for L=           1  read in
    real space projection operators read in
    PAW grid and wavefunctions read in
 
   number of l-projection  operators is LMAX  =           4
   number of lm-projection operators is LMMAX =           8
 
 POTCAR:    PAW_PBE F 08Apr2002                   
   VRHFIN =F: s2p5                                                              
   LEXCH  = PE                                                                  
   EATOM  =   659.6475 eV,   48.4827 Ry                                         
                                                                                
   TITEL  = PAW_PBE F 08Apr2002                                                 
   LULTRA =        F    use ultrasoft PP ?                                      
   IUNSCR =        1    unscreen: 0-lin 1-nonlin 2-no                           
   RPACOR =    1.200    partial core radius                                     
   POMASS =   18.998; ZVAL   =    7.000    mass and valenz                      
   RCORE  =    1.520    outmost cutoff radius                                   
   RWIGS  =    1.500; RWIGS  =    0.794    wigner-seitz radius (au A)           
   ENMAX  =  400.000; ENMIN  =  300.000 eV                                      
   ICORE  =        2    local potential                                         
   LCOR   =        T    correct aug charges                                     
   LPAW   =        T    paw PP                                                  
   EAUG   =  613.614                                                            
   RMAX   =    1.555    core radius for proj-oper                               
   RAUG   =    1.300    factor for augmentation sphere                          
   RDEP   =    1.539    radius for radial grids                                 
   RDEPT  =    1.299    core radius for aug-charge                              
                                                                                
   Atomic configuration                                                         
    4 entries                                                                   
     n  l   j            E        occ.                                          
     1  0  0.50      -663.3661   2.0000                                         
     2  0  0.50       -29.8995   2.0000                                         
     2  1  0.50       -11.1114   5.0000                                         
     3  2  1.50       -10.8847   0.0000                                         
   Description                                                                  
     l       E           TYP  RCUT    TYP  RCUT                                 
     0    -29.8995018     23  1.200                                             
     0     -9.5240782     23  1.200                                             
     1    -11.1113914     23  1.520                                             
     1      1.3605826     23  1.520                                             
     2    -10.8846608      7  1.500                                             
  local pseudopotential read in
  partial core-charges read in
  partial kinetic energy density read in
  atomic valenz-charges read in
  non local Contribution for L=           0  read in
    real space projection operators read in
  non local Contribution for L=           0  read in
    real space projection operators read in
  non local Contribution for L=           1  read in
    real space projection operators read in
  non local Contribution for L=           1  read in
    real space projection operators read in
    PAW grid and wavefunctions read in
 
   number of l-projection  operators is LMAX  =           4
   number of lm-projection operators is LMMAX =           8
 
 POTCAR:    PAW_PBE O 08Apr2002                   
   VRHFIN =O: s2p4                                                              
   LEXCH  = PE                                                                  
   EATOM  =   432.3788 eV,   31.7789 Ry                                         
                                                                                
   TITEL  = PAW_PBE O 08Apr2002                                                 
   LULTRA =        F    use ultrasoft PP ?                                      
   IUNSCR =        1    unscreen: 0-lin 1-nonlin 2-no                           
   RPACOR =    1.200    partial core radius                                     
   POMASS =   16.000; ZVAL   =    6.000    mass and valenz                      
   RCORE  =    1.520    outmost cutoff radius                                   
   RWIGS  =    1.550; RWIGS  =    0.820    wigner-seitz radius (au A)           
   ENMAX  =  400.000; ENMIN  =  300.000 eV                                      
   ICORE  =        2    local potential                                         
   LCOR   =        T    correct aug charges                                     
   LPAW   =        T    paw PP                                                  
   EAUG   =  605.392                                                            
   DEXC   =    0.000                                                            
   RMAX   =    1.553    core radius for proj-oper                               
   RAUG   =    1.300    factor for augmentation sphere                          
   RDEP   =    1.550    radius for radial grids                                 
   RDEPT  =    1.329    core radius for aug-charge                              
                                                                                
   Atomic configuration                                                         
    4 entries                                                                   
     n  l   j            E        occ.                                          
     1  0  0.50      -514.6923   2.0000                                         
     2  0  0.50       -23.9615   2.0000                                         
     2  1  0.50        -9.0305   4.0000                                         
     3  2  1.50        -9.5241   0.0000                                         
   Description                                                                  
     l       E           TYP  RCUT    TYP  RCUT                                 
     0    -23.9615318     23  1.200                                             
     0     -9.5240782     23  1.200                                             
     1     -9.0304911     23  1.520                                             
     1      8.1634956     23  1.520                                             
     2     -9.5240782      7  1.500                                             
  local pseudopotential read in
  partial core-charges read in
  partial kinetic energy density read in
  kinetic energy density of atom read in
  atomic valenz-charges read in
  non local Contribution for L=           0  read in
    real space projection operators read in
  non local Contribution for L=           0  read in
    real space projection operators read in
  non local Contribution for L=           1  read in
    real space projection operators read in
  non local Contribution for L=           1  read in
    real space projection operators read in
    PAW grid and wavefunctions read in
 
   number of l-projection  operators is LMAX  =           4
   number of lm-projection operators is LMMAX =           8
 
 Optimization of the real space projectors (new method)

 maximal supplied QI-value         = 22.11
 optimisation between [QCUT,QGAM] = [ 11.94, 23.88] = [ 39.92,159.67] Ry 
 Optimized for a Real-space Cutoff    1.18 Angstroem

   l    n(q)    QCUT    max X(q) W(low)/X(q) W(high)/X(q)  e(spline) 
   0      8    11.939    53.033    0.11E-03    0.34E-03    0.60E-07
   0      8    11.939    34.740    0.11E-03    0.34E-03    0.59E-07
   1      8    11.939    30.949    0.22E-03    0.20E-03    0.17E-06
   1      8    11.939    19.518    0.20E-03    0.18E-03    0.16E-06
 Optimization of the real space projectors (new method)

 maximal supplied QI-value         = 25.13
 optimisation between [QCUT,QGAM] = [ 11.81, 23.88] = [ 39.08,159.64] Ry 
 Optimized for a Real-space Cutoff    1.41 Angstroem

   l    n(q)    QCUT    max X(q) W(low)/X(q) W(high)/X(q)  e(spline) 
   0     10    11.813    79.467    0.48E-04    0.30E-04    0.67E-06
   0     10    11.813    66.151    0.47E-04    0.30E-04    0.67E-06
   1     10    11.813    20.169    0.11E-03    0.17E-03    0.11E-05
   1     10    11.813    14.454    0.11E-03    0.17E-03    0.11E-05
 Optimization of the real space projectors (new method)

 maximal supplied QI-value         = 25.13
 optimisation between [QCUT,QGAM] = [ 11.81, 23.88] = [ 39.08,159.64] Ry 
 Optimized for a Real-space Cutoff    1.18 Angstroem

   l    n(q)    QCUT    max X(q) W(low)/X(q) W(high)/X(q)  e(spline) 
   0      8    11.813   115.676    0.10E-03    0.16E-03    0.35E-06
   0      8    11.813    87.132    0.10E-03    0.16E-03    0.35E-06
   1      8    11.813     4.429    0.16E-03    0.13E-04    0.22E-06
   1      8    11.813     2.733    0.13E-03    0.10E-04    0.18E-06
 Optimization of the real space projectors (new method)

 maximal supplied QI-value         = 24.76
 optimisation between [QCUT,QGAM] = [ 11.88, 24.01] = [ 39.54,161.47] Ry 
 Optimized for a Real-space Cutoff    1.18 Angstroem

   l    n(q)    QCUT    max X(q) W(low)/X(q) W(high)/X(q)  e(spline) 
   0      8    11.883    14.049    0.56E-04    0.86E-04    0.22E-06
   0      8    11.883     8.945    0.81E-04    0.11E-03    0.30E-06
   1      8    11.883     7.086    0.16E-03    0.15E-04    0.31E-06
   1      8    11.883     6.747    0.15E-03    0.14E-04    0.28E-06
 Optimization of the real space projectors (new method)

 maximal supplied QI-value         = 24.76
 optimisation between [QCUT,QGAM] = [ 11.88, 24.01] = [ 39.54,161.47] Ry 
 Optimized for a Real-space Cutoff    1.18 Angstroem

   l    n(q)    QCUT    max X(q) W(low)/X(q) W(high)/X(q)  e(spline) 
   0      8    11.883    20.381    0.86E-04    0.11E-03    0.31E-06
   0      8    11.883    15.268    0.94E-04    0.12E-03    0.33E-06
   1      8    11.883     5.964    0.19E-03    0.18E-04    0.33E-06
   1      8    11.883     5.382    0.17E-03    0.20E-04    0.29E-06
  PAW_PBE B 06Sep2000                   :
 energy of atom  1       EATOM=  -71.1703
 kinetic energy error for atom=    0.0009 (will be added to EATOM!!)
  PAW_PBE N 08Apr2002                   :
 energy of atom  2       EATOM= -264.5486
 kinetic energy error for atom=    0.0116 (will be added to EATOM!!)
  PAW_PBE C 08Apr2002                   :
 energy of atom  3       EATOM= -147.1560
 kinetic energy error for atom=    0.0066 (will be added to EATOM!!)
  PAW_PBE F 08Apr2002                   :
 energy of atom  4       EATOM= -659.6475
 kinetic energy error for atom=    0.0296 (will be added to EATOM!!)
  PAW_PBE O 08Apr2002                   :
 energy of atom  5       EATOM= -432.3788
 kinetic energy error for atom=    0.0194 (will be added to EATOM!!)
 
 
 POSCAR: B N C F O                               
  positions in direct lattice
  velocities in cartesian coordinates

 METAGGA = SCAN     LMAXTAU =  6    LMIXTAU =  F

 exchange correlation table for  LEXCH =        8
   RHO(1)=    0.500       N(1)  =     2000
   RHO(2)=  100.500       N(2)  =     4000
 


--------------------------------------------------------------------------------------------------------


 ion  position               nearest neighbor table
   1  0.111  0.056  0.500-  42 1.45  37 1.45  43 1.45
   2  0.111  0.222  0.500-  37 1.45  38 1.45  44 1.45
   3  0.111  0.389  0.500-  38 1.45  39 1.45  45 1.45
   4  0.111  0.556  0.500-  40 1.45  39 1.45  46 1.45
   5  0.111  0.722  0.500-  41 1.45  40 1.45  47 1.45
   6  0.111  0.889  0.500-  41 1.45  42 1.45  48 1.45
   7  0.278  0.056  0.500-  48 1.45  49 1.45  43 1.45
   8  0.278  0.222  0.500-  43 1.45  50 1.45  44 1.45
   9  0.278  0.389  0.500-  44 1.45  45 1.45  51 1.45
  10  0.278  0.556  0.500-  46 1.45  52 1.45  45 1.45
  11  0.278  0.722  0.500-  47 1.45  53 1.45  46 1.45
  12  0.278  0.889  0.500-  54 1.45  47 1.45  48 1.45
  13  0.444  0.056  0.500-  55 1.45  54 1.45  49 1.45
  14  0.444  0.222  0.500-  56 1.45  49 1.45  50 1.45
  15  0.444  0.389  0.500-  57 1.45  50 1.45  51 1.45
  16  0.444  0.556  0.500-  58 1.45  52 1.45  51 1.45
  17  0.444  0.722  0.500-  59 1.45  53 1.45  52 1.45
  18  0.444  0.889  0.500-  60 1.45  54 1.45  53 1.45
  19  0.611  0.056  0.500-  61 1.45  60 1.45  55 1.45
  20  0.611  0.222  0.500-  62 1.45  55 1.45  56 1.45
  21  0.611  0.389  0.500-  63 1.45  56 1.45  57 1.45
  22  0.611  0.556  0.500-  64 1.45  58 1.45  57 1.45
  23  0.611  0.722  0.500-  65 1.45  59 1.45  58 1.45
  24  0.611  0.889  0.500-  66 1.45  60 1.45  59 1.45
  25  0.778  0.056  0.500-  66 1.45  61 1.45  67 1.45
  26  0.778  0.222  0.500-  61 1.45  62 1.45  68 1.45
  27  0.778  0.389  0.500-  62 1.45  69 1.45  63 1.45
  28  0.778  0.556  0.500-  70 1.45  64 1.45  63 1.45
  29  0.778  0.722  0.500-  65 1.45  71 1.45  64 1.45
  30  0.778  0.889  0.500-  66 1.45  72 1.45  65 1.45
  31  0.944  0.056  0.500-  72 1.45  67 1.45  37 1.45
  32  0.944  0.222  0.500-  67 1.45  68 1.45  38 1.45
  33  0.944  0.389  0.500-  68 1.45  69 1.45  39 1.45
  34  0.944  0.556  0.500-  70 1.45  69 1.45  40 1.45
  35  0.944  0.722  0.500-  71 1.45  70 1.45  41 1.45
  36  0.944  0.889  0.500-  72 1.45  71 1.45  42 1.45
  37  0.056  0.111  0.500-   2 1.45   1 1.45  31 1.45
  38  0.056  0.278  0.500-   3 1.45   2 1.45  32 1.45
  39  0.056  0.445  0.500-   3 1.45   4 1.45  33 1.45
  40  0.056  0.611  0.500-   4 1.45   5 1.45  34 1.45
  41  0.056  0.778  0.500-   6 1.45   5 1.45  35 1.45
  42  0.056  0.945  0.500-   1 1.45   6 1.45  36 1.45
  43  0.222  0.111  0.500-   8 1.45   7 1.45   1 1.45
  44  0.222  0.278  0.500-   9 1.45   8 1.45   2 1.45
  45  0.222  0.445  0.500-   9 1.45  10 1.45   3 1.45
  46  0.222  0.611  0.500-  10 1.45  11 1.45   4 1.45
  47  0.222  0.778  0.500-  11 1.45  12 1.45   5 1.45
  48  0.222  0.945  0.500-   7 1.45  12 1.45   6 1.45
  49  0.389  0.111  0.500-  14 1.45   7 1.45  13 1.45
  50  0.389  0.278  0.501-   8 1.45  15 1.45  14 1.45
  51  0.389  0.445  0.500-   9 1.45  15 1.45  16 1.45
  52  0.389  0.611  0.500-  10 1.45  16 1.45  17 1.45
  53  0.389  0.778  0.500-  11 1.45  17 1.45  18 1.45
  54  0.389  0.945  0.500-  13 1.45  12 1.45  18 1.45
  55  0.556  0.111  0.500-  13 1.45  20 1.45  19 1.45
  56  0.556  0.278  0.500-  14 1.45  21 1.45  20 1.45
  57  0.556  0.445  0.500-  15 1.45  21 1.45  22 1.45
  58  0.556  0.611  0.500-  16 1.45  22 1.45  23 1.45
  59  0.556  0.778  0.500-  17 1.45  23 1.45  24 1.45
  60  0.556  0.945  0.500-  18 1.45  24 1.45  19 1.45
  61  0.722  0.111  0.500-  19 1.45  26 1.45  25 1.45
  62  0.722  0.278  0.500-  20 1.45  27 1.45  26 1.45
  63  0.722  0.445  0.500-  21 1.45  27 1.45  28 1.45
  64  0.722  0.611  0.500-  22 1.45  28 1.45  29 1.45
  65  0.722  0.778  0.500-  23 1.45  29 1.45  30 1.45
  66  0.722  0.945  0.500-  24 1.45  30 1.45  25 1.45
  67  0.889  0.111  0.500-  32 1.45  31 1.45  25 1.45
  68  0.889  0.278  0.500-  33 1.45  32 1.45  26 1.45
  69  0.889  0.445  0.500-  33 1.45  34 1.45  27 1.45
  70  0.889  0.611  0.500-  34 1.45  28 1.45  35 1.45
  71  0.889  0.778  0.500-  36 1.45  35 1.45  29 1.45
  72  0.889  0.945  0.500-  31 1.45  36 1.45  30 1.45
  73  0.377  0.298  0.659-  76 1.34  78 1.34  77 1.35  74 1.51
  74  0.362  0.267  0.617-  79 1.33  80 1.33  73 1.51
  75  0.314  0.522  0.609-  82 1.16  81 1.16
  76  0.467  0.385  0.663-  73 1.34
  77  0.377  0.227  0.682-  73 1.35
  78  0.301  0.314  0.670-  73 1.34
  79  0.438  0.258  0.603-  74 1.33
  80  0.272  0.186  0.610-  74 1.33
  81  0.402  0.578  0.606-  75 1.16
  82  0.227  0.467  0.612-  75 1.16
 

IMPORTANT INFORMATION: All symmetrisations will be switched off!
NOSYMM: (Re-)initialisation of all symmetry stuff for point group C_1.

 
 
 KPOINTS: K-Point Grid                            

Automatic generation of k-mesh.
Space group operators:
 irot       det(A)        alpha          n_x          n_y          n_z        tau_x        tau_y        tau_z
    1     1.000000     0.000000     1.000000     0.000000     0.000000     0.000000     0.000000     0.000000
 
 Subroutine IBZKPT returns following result:
 ===========================================
 
 Found      5 irreducible k-points:
 
 Following reciprocal coordinates:
            Coordinates               Weight
  0.000000  0.000000  0.000000      1.000000
  0.333333  0.000000  0.000000      2.000000
  0.000000  0.333333  0.000000      2.000000
  0.333333  0.333333  0.000000      2.000000
 -0.333333  0.333333  0.000000      2.000000
 
 Following cartesian coordinates:
            Coordinates               Weight
  0.000000  0.000000  0.000000      1.000000
  0.022114 -0.012768  0.000000      2.000000
  0.022114  0.012768  0.000000      2.000000
  0.044229  0.000000  0.000000      2.000000
  0.000000  0.025535  0.000000      2.000000
 


--------------------------------------------------------------------------------------------------------




 Dimension of arrays:
   k-points           NKPTS =      5   k-points in BZ     NKDIM =      5   number of bands    NBANDS=    264
   number of dos      NEDOS =   1200   number of ions     NIONS =     82
   non local maximal  LDIM  =      4   non local SUM 2l+1 LMDIM =      8
   total plane-waves  NPLWV = ******
   max r-space proj   IRMAX =   6598   max aug-charges    IRDMAX=   8974
   dimension x,y,z NGX =   120 NGY =  120 NGZ =  270
   dimension x,y,z NGXF=   240 NGYF=  240 NGZF=  540
   support grid    NGXF=   240 NGYF=  240 NGZF=  540
   ions per type =              36  36   3   5   2
   NGX,Y,Z   is equivalent  to a cutoff of  13.24, 13.24, 12.78 a.u.
   NGXF,Y,Z  is equivalent  to a cutoff of  26.47, 26.47, 25.57 a.u.

 SYSTEM =  SiC                                     
 POSCAR =  B N C F O                               

 Startparameter for this run:
   NWRITE =      2    write-flag & timer
   PREC   = accura    normal or accurate (medium, high low for compatibility)
   ISTART =      1    job   : 0-new  1-cont  2-samecut
   ICHARG =      0    charge: 1-file 2-atom 10-const
   ISPIN  =      2    spin polarized calculation?
   LNONCOLLINEAR =      F non collinear calculations
   LSORBIT =      F    spin-orbit coupling
   INIWAV =      1    electr: 0-lowe 1-rand  2-diag
   LASPH  =      T    aspherical Exc in radial PAW
   METAGGA=      F    non-selfconsistent MetaGGA calc.

 Electronic Relaxation 1
   ENCUT  =  550.0 eV  40.42 Ry    6.36 a.u.  28.82 28.82 67.15*2*pi/ulx,y,z
   ENINI  =  550.0     initial cutoff
   ENAUG  =  644.9 eV  augmentation charge cutoff
   NELM   =    100;   NELMIN=  2; NELMDL=  0     # of ELM steps 
   EDIFF  = 0.1E-04   stopping-criterion for ELM
   LREAL  =      T    real-space projection
   NLSPLINE    = F    spline interpolate recip. space projectors
   LCOMPAT=      F    compatible to vasp.4.4
   GGA_COMPAT  = T    GGA compatible to vasp.4.4-vasp.4.6
   LMAXPAW     = -100 max onsite density
   LMAXMIX     =    2 max onsite mixed and CHGCAR
   VOSKOWN=      0    Vosko Wilk Nusair interpolation
   ROPT   =   -0.00025  -0.00025  -0.00025  -0.00025
   ROPT   =   -0.00025
 Ionic relaxation
   EDIFFG = -.2E-01   stopping-criterion for IOM
   NSW    =    500    number of steps for IOM
   NBLOCK =      1;   KBLOCK =    500    inner block; outer block 
   IBRION =      2    ionic relax: 0-MD 1-quasi-New 2-CG
   NFREE  =      1    steps in history (QN), initial steepest desc. (CG)
   ISIF   =      2    stress and relaxation
   IWAVPR =     11    prediction:  0-non 1-charg 2-wave 3-comb
   ISYM   =      0    0-nonsym 1-usesym 2-fastsym
   LCORR  =      T    Harris-Foulkes like correction to forces

   POTIM  = 0.5000    time-step for ionic-motion
   TEIN   =    0.0    initial temperature
   TEBEG  =    0.0;   TEEND  =   0.0 temperature during run
   SMASS  =  -3.00    Nose mass-parameter (am)
   estimated Nose-frequenzy (Omega)   =  0.10E-29 period in steps =****** mass=  -0.519E-26a.u.
   SCALEE = 1.0000    scale energy and forces
   NPACO  =    256;   APACO  = 16.0  distance and # of slots for P.C.
   PSTRESS=    0.0 pullay stress

  Mass of Ions in am
   POMASS =  10.81 14.00 12.01 19.00 16.00
  Ionic Valenz
   ZVAL   =   3.00  5.00  4.00  7.00  6.00
  Atomic Wigner-Seitz radii
   RWIGS  =  -1.00 -1.00 -1.00 -1.00 -1.00
  virtual crystal weights 
   VCA    =   1.00  1.00  1.00  1.00  1.00
   NELECT =     346.4000    total number of electrons
   NUPDOWN=      -1.0000    fix difference up-down

 DOS related values:
   EMIN   =  10.00;   EMAX   =-10.00  energy-range for DOS
   EFERMI =   0.00
   ISMEAR =     0;   SIGMA  =   0.05  broadening in eV -4-tet -1-fermi 0-gaus

 Electronic relaxation 2 (details)
   IALGO  =     68    algorithm
   LDIAG  =      T    sub-space diagonalisation (order eigenvalues)
   LSUBROT=      F    optimize rotation matrix (better conditioning)
   TURBO    =      0    0=normal 1=particle mesh
   IRESTART =      0    0=no restart 2=restart with 2 vectors
   NREBOOT  =      0    no. of reboots
   NMIN     =      0    reboot dimension
   EREF     =   0.00    reference energy to select bands
   IMIX   =      4    mixing-type and parameters
     AMIX     =   0.40;   BMIX     =  1.00
     AMIX_MAG =   1.60;   BMIX_MAG =  1.00
     AMIN     =   0.10
     WC   =   100.;   INIMIX=   1;  MIXPRE=   1;  MAXMIX= -45

 Intra band minimization:
   WEIMIN = 0.0010     energy-eigenvalue tresh-hold
   EBREAK =  0.95E-08  absolut break condition
   DEPER  =   0.30     relativ break condition  

   TIME   =   0.40     timestep for ELM

  volume/ion in A,a.u.               =      84.26       568.60
  Fermi-wavevector in a.u.,A,eV,Ry     =   0.603659  1.140751  4.958028  0.364405
  Thomas-Fermi vector in A             =   1.656723
 
 Write flags
   LWAVE        =      T    write WAVECAR
   LDOWNSAMPLE  =      F    k-point downsampling of WAVECAR
   LCHARG       =      F    write CHGCAR
   LVTOT        =      F    write LOCPOT, total local potential
   LVHAR        =      T    write LOCPOT, Hartree potential only
   LELF         =      F    write electronic localiz. function (ELF)
   LORBIT       =     11    0 simple, 1 ext, 2 COOP (PROOUT), +10 PAW based schemes


 Dipole corrections
   LMONO  =      F    monopole corrections only (constant potential shift)
   LDIPOL =      F    correct potential (dipole corrections)
   IDIPOL =      0    1-x, 2-y, 3-z, 4-all directions 
   EPSILON=  1.0000000 bulk dielectric constant

 Exchange correlation treatment:
   GGA     =    --    GGA type
   LEXCH   =     8    internal setting for exchange type
   VOSKOWN=      0    Vosko Wilk Nusair interpolation
   LHFCALC =     F    Hartree Fock is set to
   LHFONE  =     F    Hartree Fock one center treatment
   AEXX    =    0.0000 exact exchange contribution

 Linear response parameters
   LEPSILON=     F    determine dielectric tensor
   LRPA    =     F    only Hartree local field effects (RPA)
   LNABLA  =     F    use nabla operator in PAW spheres
   LVEL    =     F    velocity operator in full k-point grid
   LINTERFAST=   F  fast interpolation
   KINTER  =     0    interpolate to denser k-point grid
   CSHIFT  =0.1000    complex shift for real part using Kramers Kronig
   OMEGAMAX=  -1.0    maximum frequency
   DEG_THRESHOLD= 0.2000000E-02 threshold for treating states as degnerate
   RTIME   =   -0.100 relaxation time in fs
  (WPLASMAI=    0.000 imaginary part of plasma frequency in eV, 0.658/RTIME)
   DFIELD  = 0.0000000 0.0000000 0.0000000 field for delta impulse in time
 
 Orbital magnetization related:
   ORBITALMAG=     F  switch on orbital magnetization
   LCHIMAG   =     F  perturbation theory with respect to B field
   DQ        =  0.001000  dq finite difference perturbation B field
   LLRAUG    =     F  two centre corrections for induced B field

 Solvation model:
   LSOL    =     T         switch on solvation model
   EB_K    = 78.400000     relative permittivity of the bulk solvent
   SIGMA_K =  0.600000     width of the dielectric cavity
   NC_K    =  0.002500     cutoff charge density
   TAU     =  0.000000     cavity surface tension
   LAMBDA_D_K    =  3.040000     Debye length in Angstroms
   LRHOB     =     F     write boundcharge  density
   LRHOION     =     F     write ioniccharge density



--------------------------------------------------------------------------------------------------------


 conjugate gradient relaxation of ions
   using selective dynamics as specified on POSCAR
 charge density and potential will be updated during run
 spin polarized calculation
 RMM-DIIS sequential band-by-band and
  variant of blocked Davidson during initial phase
 perform sub-space diagonalisation
    before iterative eigenvector-optimisation
 modified Broyden-mixing scheme, WC =      100.0
 initial mixing is a Kerker type mixing with AMIX =  0.4000 and BMIX =      1.0000
 Hartree-type preconditioning will be used
 using additional bands           90
 real space projection scheme for non local part
 use partial core corrections
 calculate Harris-corrections to forces 
   (improved forces if not selfconsistent)
 use gradient corrections 
 use of overlap-Matrix (Vanderbilt PP)
 Gauss-broadening in eV      SIGMA  =   0.05


--------------------------------------------------------------------------------------------------------


  energy-cutoff  :      550.00
  volume of cell :     6909.18
      direct lattice vectors                 reciprocal lattice vectors
     7.536550057-13.053746059  0.000000000     0.066343353 -0.038303181  0.000000000
     7.536550057 13.053746059  0.000000000     0.066343353  0.038303181  0.000000000
     0.000000000  0.000000000 35.114664386     0.000000000  0.000000000  0.028478131

  length of vectors
    15.073150730 15.073150730 35.114664386     0.076606620  0.076606620  0.028478131


 
 old parameters found on file WAVECAR:
  energy-cutoff  :      550.00
  volume of cell :     6909.18
      direct lattice vectors                 reciprocal lattice vectors
     7.536550057-13.053746059  0.000000000     0.066343353 -0.038303181  0.000000000
     7.536550057 13.053746059  0.000000000     0.066343353  0.038303181  0.000000000
     0.000000000  0.000000000 35.114664386     0.000000000  0.000000000  0.028478131

  length of vectors

 
 k-points in units of 2pi/SCALE and weight: K-Point Grid                            
   0.00000000  0.00000000  0.00000000       0.111
   0.02211445 -0.01276773  0.00000000       0.222
   0.02211445  0.01276773  0.00000000       0.222
   0.04422890  0.00000000  0.00000000       0.222
   0.00000000  0.02553545  0.00000000       0.222
 
 k-points in reciprocal lattice and weights: K-Point Grid                            
   0.00000000  0.00000000  0.00000000       0.111
   0.33333333  0.00000000  0.00000000       0.222
   0.00000000  0.33333333  0.00000000       0.222
   0.33333333  0.33333333  0.00000000       0.222
  -0.33333333  0.33333333  0.00000000       0.222
 
 position of ions in fractional coordinates (direct lattice) 
   0.11111663  0.05562298  0.50034362
   0.11110682  0.22228607  0.50034175
   0.11110913  0.38895760  0.50034977
   0.11111818  0.55563376  0.50028083
   0.11112696  0.72230290  0.50027342
   0.11112542  0.88896689  0.50027052
   0.27779214  0.05561925  0.50038041
   0.27778217  0.22227738  0.50045648
   0.27778777  0.38895320  0.50038241
   0.27779599  0.55565044  0.50028656
   0.27780215  0.72231398  0.50027150
   0.27779853  0.88896579  0.50028877
   0.44446873  0.05562806  0.50033090
   0.44447077  0.22228869  0.50047367
   0.44447851  0.38896563  0.50048101
   0.44448531  0.55565462  0.50035019
   0.44447418  0.72231082  0.50032580
   0.44446988  0.88897214  0.50030027
   0.61113150  0.05563366  0.50030077
   0.61113308  0.22229211  0.50034792
   0.61113754  0.38896355  0.50037699
   0.61113853  0.55563849  0.50034213
   0.61113573  0.72231053  0.50031014
   0.61113243  0.88897349  0.50028318
   0.77779320  0.05563703  0.50028404
   0.77779324  0.22230083  0.50031254
   0.77779513  0.38896864  0.50027993
   0.77779669  0.55563966  0.50028158
   0.77779397  0.72230709  0.50029374
   0.77779440  0.88897359  0.50029633
   0.94445331  0.05563195  0.50029961
   0.94445188  0.22229776  0.50029229
   0.94445222  0.38896323  0.50029479
   0.94445779  0.55563641  0.50027505
   0.94445852  0.72230341  0.50027494
   0.94445548  0.88896719  0.50028054
   0.05557563  0.11119174  0.50032745
   0.05557661  0.27785974  0.50031122
   0.05557644  0.44452413  0.50031145
   0.05557431  0.61119208  0.50027850
   0.05557458  0.77785898  0.50026672
   0.05557367  0.94452520  0.50026611
   0.22224043  0.11118598  0.50042737
   0.22224072  0.27785226  0.50038823
   0.22225101  0.44452762  0.50038998
   0.22224203  0.61119149  0.50025276
   0.22224140  0.77785591  0.50026887
   0.22224119  0.94452104  0.50029252
   0.38890526  0.11118987  0.50039860
   0.38889778  0.27784942  0.50056407
   0.38890418  0.44452117  0.50043376
   0.38889863  0.61117958  0.50032575
   0.38890752  0.77785293  0.50031066
   0.38890682  0.94452205  0.50029907
   0.55557003  0.11118723  0.50030836
   0.55556698  0.27785015  0.50041865
   0.55556789  0.44451561  0.50041844
   0.55557085  0.61118608  0.50031374
   0.55557090  0.77785461  0.50030479
   0.55557192  0.94452272  0.50028325
   0.72223869  0.11119335  0.50031315
   0.72223745  0.27785767  0.50031324
   0.72223795  0.44452516  0.50027457
   0.72223729  0.61119099  0.50029720
   0.72223862  0.77786028  0.50030520
   0.72223882  0.94452671  0.50026591
   0.88890930  0.11119461  0.50027313
   0.88890739  0.27785869  0.50029650
   0.88890709  0.44452612  0.50026330
   0.88890585  0.61119316  0.50027716
   0.88890492  0.77785864  0.50027242
   0.88890766  0.94452722  0.50030236
   0.37700839  0.29836756  0.65869460
   0.36223592  0.26651934  0.61743222
   0.31431805  0.52249321  0.60926362
   0.46681697  0.38513493  0.66326914
   0.37712953  0.22651436  0.68180136
   0.30101278  0.31399265  0.67016831
   0.43831142  0.25750003  0.60264212
   0.27150223  0.18593205  0.60966525
   0.40210268  0.57751187  0.60602296
   0.22653763  0.46722885  0.61235429
 
 position of ions in cartesian coordinates  (Angst):
   1.25664147 -0.72439999 17.56939841
   2.51263223  1.45130562 17.56933248
   3.76877795  3.62696340 17.56961426
   5.02500937  5.80259353 17.56719335
   6.28118590  7.97813551 17.56693309
   7.53724579 10.15374498 17.56683155
   2.51277168 -2.90018852 17.57069014
   3.76872380 -0.72454541 17.57336140
   5.02492670  1.45112531 17.57076029
   6.28131076  3.62704145 17.56739465
   7.53742524  5.80254449 17.56686569
   8.79337770  7.97802225 17.56747216
   3.76900453 -5.07582735 17.56895168
   5.02506604 -2.90030847 17.57396507
   6.28129348 -0.72465098 17.57422266
   7.53760468  1.45117594 17.56962892
   8.79353363  3.62680895 17.56877265
  10.04955249  5.80241959 17.56787609
   5.02510899 -7.25132774 17.56789351
   6.28115062 -5.07583130 17.56954922
   7.53731192 -2.90020290 17.57057015
   8.79347342 -0.72448351 17.56934591
  10.04958452  1.45124762 17.56822253
  11.30562333  3.62686660 17.56727601
   6.28118870 -9.42684322 17.56730629
   7.53725899 -7.25125682 17.56830683
   8.79337355 -5.07564232 17.56716191
  10.04950979 -2.89998154 17.56721979
  11.30558673 -0.72431172 17.56764683
  12.56168040  1.45130499 17.56773789
   7.53719261-11.60244832 17.56785290
   8.79326710 -9.42681655 17.56759596
  10.04935233 -7.25121225 17.56768350
  11.30553506 -5.07557550 17.56699048
  12.56163473 -2.89995633 17.56698659
  13.81768172 -0.72433013 17.56718323
   1.25685062  0.72599848 17.56883060
   2.51295978  2.90162747 17.56826048
   3.76903298  5.07722428 17.56826868
   5.02511827  7.25289333 17.56711156
   6.28121375  9.42851708 17.56669808
   7.53729522 11.60414758 17.56667670
   2.51288483 -1.44967665 17.57233915
   3.76897580  0.72593887 17.57096487
   5.02521048  2.90154245 17.57102630
   6.28121340  5.07724744 17.56620764
   7.53728345  7.25285061 17.56677342
   8.79336197  9.42845778 17.56760410
   3.76899204 -3.62522620 17.57132877
   5.02497366 -1.44959707 17.57713925
   6.28115187  0.72601006 17.57256365
   7.53713954  2.90159909 17.56877065
   8.79334859  5.07719462 17.56824076
  10.04945340  7.25286006 17.56783390
   5.02504951 -5.80086021 17.56816024
   6.28108986 -3.62524498 17.57203280
   7.53717940 -1.44964829 17.57202554
   8.79332196  0.72598704 17.56834919
  10.04942810  2.90163498 17.56803491
  11.30553834  5.07726500 17.56727837
   6.28120227 -7.97643074 17.56832840
   7.53726697 -5.80082079 17.56833143
   8.79336852 -3.62519226 17.56697372
  10.04944900 -1.44957013 17.56776816
  11.30557044  0.72607100 17.56804921
  12.56166184  2.90168977 17.56666952
   7.53733323-10.15209010 17.56692313
   8.79339097 -7.97647464 17.56774369
  10.04948617 -5.80083634 17.56657779
  11.30557125 -3.62519088 17.56706464
  12.56164697 -1.44956996 17.56689797
  13.81777371  0.72604361 17.56794939
   5.09000464 -1.02655744 23.12983997
   4.73864544 -1.24945992 21.68092522
   6.30666995  2.71746572 21.39408748
   6.42077815 -1.06625670 23.29047331
   4.54939239 -1.96609219 23.94122589
   4.63501925  0.16943590 23.53273512
   5.24401783 -2.36026607 21.16157575
   3.44747632 -1.11701143 21.40819081
   7.38291410  2.28974697 21.28029290
   5.22860578  3.14192206 21.50261546
 


--------------------------------------------------------------------------------------------------------


 k-point  1 :   0.0000 0.0000 0.0000  plane waves:  202395
 k-point  2 :   0.3333 0.0000 0.0000  plane waves:  202358
 k-point  3 :   0.0000 0.3333 0.0000  plane waves:  202358
 k-point  4 :   0.3333 0.3333 0.0000  plane waves:  202335
 k-point  5 :  -0.3333 0.3333 0.0000  plane waves:  202358

 maximum and minimum number of plane-waves per node :    202395   202335

 maximum number of plane-waves:    202395
 maximum index in each direction: 
   IXMAX=   29   IYMAX=   28   IZMAX=   67
   IXMIN=  -29   IYMIN=  -29   IZMIN=  -67


 serial   3D FFT for wavefunctions
 parallel 3D FFT for charge:
    minimum data exchange during FFTs selected (reduces bandwidth)


 total amount of memory used by VASP MPI-rank0  1200915. kBytes
=======================================================================

   base      :      30000. kBytes
   nonlr-proj:      37377. kBytes
   fftplans  :      59250. kBytes
   grid      :     716351. kBytes
   one-center:        503. kBytes
   wavefun   :     357434. kBytes
 
     INWAV:  cpu time   31.1837: real time   33.7269
 Broyden mixing: mesh for mixing (old mesh)
   NGX = 57   NGY = 57   NGZ =135
  (NGX  =240   NGY  =240   NGZ  =540)
  gives a total of 438615 points

 charge density for first step will be calculated from the start-wavefunctions


--------------------------------------------------------------------------------------------------------


 Maximum index for non-local projection operator         6369
 Maximum index for augmentation-charges          434 (set IRDMAX)


--------------------------------------------------------------------------------------------------------


 initial charge from wavefunction
 First call to EWALD:  gamma=   0.093
 Maximum number of real-space cells 4x 4x 2
 Maximum number of reciprocal cells 2x 2x 5

    FEWALD:  cpu time    0.0463: real time    0.0436


--------------------------------------- Iteration      1(   1)  ---------------------------------------


    POTLOK:  cpu time   57.6413: real time   58.3349
    SETDIJ:  cpu time   26.2897: real time   25.9860
     EDDAV:  cpu time  171.4642: real time  115.2670
       DOS:  cpu time    0.1129: real time    0.0839
    CHARGE:  cpu time   22.7241: real time   21.1914
    MIXING:  cpu time    0.1937: real time    0.1639
    --------------------------------------------
      LOOP:  cpu time  278.4261: real time  221.0272

 eigenvalue-minimisations  :  5352
 total energy-change (2. order) :-0.7760387E+03  (-0.1414893E-05)
 number of electron     346.3999976 magnetization       0.9999999
 augmentation part       16.0314198 magnetization       0.1189992

 Broyden mixing:
  rms(total) = 0.62675E-01    rms(broyden)= 0.62173E-01
  rms(prec ) = 0.82747E-01
  weight for this iteration     100.00

 Free energy of the ion-electron system (eV)
  ---------------------------------------------------
  alpha Z        PSCENC =        92.14382556
  Ewald energy   TEWEN  =    112124.21154146
  -Hartree energ DENC   =   -126430.28495170
  -exchange      EXHF   =         0.00000000
  -V(xc)+E(xc)   XCENC  =      1589.71857997
  PAW double counting   =     40697.40408739   -40864.35910208
  entropy T*S    EENTRO =        -0.01132781
  eigenvalues    EBANDS =     -4970.71560441
  atomic energy  EATOM  =     16689.68470767
  Solvation  Ediel_sol  =       296.16951105
  ---------------------------------------------------
  free energy    TOTEN  =      -776.03873289 eV

  energy without entropy =     -776.02740508  energy(sigma->0) =     -776.03306899


--------------------------------------------------------------------------------------------------------




--------------------------------------- Iteration      1(   2)  ---------------------------------------


    POTLOK:  cpu time   50.2050: real time   50.3416
    SETDIJ:  cpu time   22.3020: real time   21.9562
    EDDIAG:  cpu time   35.6309: real time   25.9528
  RMM-DIIS:  cpu time  194.7403: real time  143.9873
    ORTHCH:  cpu time    1.5216: real time    0.7770
       DOS:  cpu time    0.0027: real time    0.0014
    CHARGE:  cpu time   22.9833: real time   21.2805
    MIXING:  cpu time    0.2005: real time    0.1524
    --------------------------------------------
      LOOP:  cpu time  327.5864: real time  264.4493

 eigenvalue-minimisations  :  5280
 total energy-change (2. order) : 0.4665893E-01  (-0.4429646E-02)
 number of electron     346.3999976 magnetization       1.0000000
 augmentation part       16.0594754 magnetization       0.1190218

 Broyden mixing:
  rms(total) = 0.28983E-01    rms(broyden)= 0.28978E-01
  rms(prec ) = 0.54979E-01
  weight for this iteration     100.00

 eigenvalues of (default mixing * dielectric matrix)
  average eigenvalue GAMMA=   1.1725
  1.1725

 Free energy of the ion-electron system (eV)
  ---------------------------------------------------
  alpha Z        PSCENC =        92.14382556
  Ewald energy   TEWEN  =    112124.21154146
  -Hartree energ DENC   =   -126379.60582286
  -exchange      EXHF   =         0.00000000
  -V(xc)+E(xc)   XCENC  =      1588.65886290
  PAW double counting   =     40660.26271724   -40827.12431732
  entropy T*S    EENTRO =        -0.01135122
  eigenvalues    EBANDS =     -4994.93246626
  atomic energy  EATOM  =     16689.68470767
  Solvation  Ediel_sol  =       270.72022886
  ---------------------------------------------------
  free energy    TOTEN  =      -775.99207396 eV

  energy without entropy =     -775.98072274  energy(sigma->0) =     -775.98639835


--------------------------------------------------------------------------------------------------------




--------------------------------------- Iteration      1(   3)  ---------------------------------------


    POTLOK:  cpu time   49.1520: real time   49.2632
    SETDIJ:  cpu time   21.8743: real time   21.5265
    EDDIAG:  cpu time   35.4567: real time   25.7266
  RMM-DIIS:  cpu time  195.0681: real time  143.8970
    ORTHCH:  cpu time    1.5103: real time    0.7684
       DOS:  cpu time    0.0025: real time    0.0012
    CHARGE:  cpu time   22.6987: real time   21.1361
    MIXING:  cpu time    0.1876: real time    0.1444
    --------------------------------------------
      LOOP:  cpu time  325.9502: real time  262.4636

 eigenvalue-minimisations  :  5280
 total energy-change (2. order) : 0.1137896E-01  (-0.9082181E-03)
 number of electron     346.3999976 magnetization       0.9999970
 augmentation part       16.0679580 magnetization       0.1190378

 Broyden mixing:
  rms(total) = 0.20368E-01    rms(broyden)= 0.20366E-01
  rms(prec ) = 0.44911E-01
  weight for this iteration     100.00

 eigenvalues of (default mixing * dielectric matrix)
  average eigenvalue GAMMA=   1.8954
  1.3356  2.4553

 Free energy of the ion-electron system (eV)
  ---------------------------------------------------
  alpha Z        PSCENC =        92.14382556
  Ewald energy   TEWEN  =    112124.21154146
  -Hartree energ DENC   =   -126326.94765622
  -exchange      EXHF   =         0.00000000
  -V(xc)+E(xc)   XCENC  =      1588.45420366
  PAW double counting   =     40629.92136764   -40796.73985640
  entropy T*S    EENTRO =        -0.01135731
  eigenvalues    EBANDS =     -5006.22402978
  atomic energy  EATOM  =     16689.68470767
  Solvation  Ediel_sol  =       229.52655871
  ---------------------------------------------------
  free energy    TOTEN  =      -775.98069500 eV

  energy without entropy =     -775.96933769  energy(sigma->0) =     -775.97501634


--------------------------------------------------------------------------------------------------------




--------------------------------------- Iteration      1(   4)  ---------------------------------------


    POTLOK:  cpu time   51.0637: real time   51.1769
    SETDIJ:  cpu time   22.4858: real time   22.1395
    EDDIAG:  cpu time   35.4697: real time   25.7363
  RMM-DIIS:  cpu time  195.3180: real time  144.1499
    ORTHCH:  cpu time    1.5085: real time    0.7669
       DOS:  cpu time    0.0027: real time    0.0014
    CHARGE:  cpu time   22.5803: real time   21.0554
    MIXING:  cpu time    0.2132: real time    0.1577
    --------------------------------------------
      LOOP:  cpu time  328.6419: real time  265.1839

 eigenvalue-minimisations  :  5280
 total energy-change (2. order) : 0.1263349E-01  (-0.1998576E-02)
 number of electron     346.3999976 magnetization       0.9999885
 augmentation part       16.0698193 magnetization       0.1190752

 Broyden mixing:
  rms(total) = 0.14534E-01    rms(broyden)= 0.14529E-01
  rms(prec ) = 0.26534E-01
  weight for this iteration     100.00

 eigenvalues of (default mixing * dielectric matrix)
  average eigenvalue GAMMA=   1.6016
  2.1883  1.1391  1.4774

 Free energy of the ion-electron system (eV)
  ---------------------------------------------------
  alpha Z        PSCENC =        92.14382556
  Ewald energy   TEWEN  =    112124.21154146
  -Hartree energ DENC   =   -126184.22373754
  -exchange      EXHF   =         0.00000000
  -V(xc)+E(xc)   XCENC  =      1587.82448136
  PAW double counting   =     40575.65967735   -40742.44175271
  entropy T*S    EENTRO =        -0.01135996
  eigenvalues    EBANDS =     -5028.13525631
  atomic energy  EATOM  =     16689.68470767
  Solvation  Ediel_sol  =       109.31981162
  ---------------------------------------------------
  free energy    TOTEN  =      -775.96806151 eV

  energy without entropy =     -775.95670154  energy(sigma->0) =     -775.96238152


--------------------------------------------------------------------------------------------------------




--------------------------------------- Iteration      1(   5)  ---------------------------------------


    POTLOK:  cpu time   48.7071: real time   48.8160
    SETDIJ:  cpu time   20.8961: real time   20.5459
    EDDIAG:  cpu time   35.5947: real time   25.8218
  RMM-DIIS:  cpu time  194.9923: real time  143.8852
    ORTHCH:  cpu time    1.5108: real time    0.7679
       DOS:  cpu time    0.0028: real time    0.0014
    CHARGE:  cpu time   22.6826: real time   21.2113
    MIXING:  cpu time    0.2068: real time    0.1566
    --------------------------------------------
      LOOP:  cpu time  324.5934: real time  261.2061

 eigenvalue-minimisations  :  5280
 total energy-change (2. order) :-0.2398668E-02  (-0.4921878E-03)
 number of electron     346.3999976 magnetization       0.9999767
 augmentation part       16.0763279 magnetization       0.1190671

 Broyden mixing:
  rms(total) = 0.88107E-02    rms(broyden)= 0.88038E-02
  rms(prec ) = 0.17276E-01
  weight for this iteration     100.00

 eigenvalues of (default mixing * dielectric matrix)
  average eigenvalue GAMMA=   2.3334
  4.0053  3.2392  0.9242  1.1651

 Free energy of the ion-electron system (eV)
  ---------------------------------------------------
  alpha Z        PSCENC =        92.14382556
  Ewald energy   TEWEN  =    112124.21154146
  -Hartree energ DENC   =   -126126.18941127
  -exchange      EXHF   =         0.00000000
  -V(xc)+E(xc)   XCENC  =      1587.65463387
  PAW double counting   =     40596.44358739   -40763.25811030
  entropy T*S    EENTRO =        -0.01136757
  eigenvalues    EBANDS =     -5032.26955612
  atomic energy  EATOM  =     16689.68470767
  Solvation  Ediel_sol  =        55.61968913
  ---------------------------------------------------
  free energy    TOTEN  =      -775.97046017 eV

  energy without entropy =     -775.95909260  energy(sigma->0) =     -775.96477639


--------------------------------------------------------------------------------------------------------




--------------------------------------- Iteration      1(   6)  ---------------------------------------


    POTLOK:  cpu time   49.7826: real time   49.9442
    SETDIJ:  cpu time   21.4400: real time   21.0909
    EDDIAG:  cpu time   35.6838: real time   26.0100
  RMM-DIIS:  cpu time  195.2156: real time  144.0262
    ORTHCH:  cpu time    1.5124: real time    0.7696
       DOS:  cpu time    0.0068: real time    0.0034
    CHARGE:  cpu time   22.6967: real time   21.1640
    MIXING:  cpu time    0.2234: real time    0.1710
    --------------------------------------------
      LOOP:  cpu time  326.5612: real time  263.1793

 eigenvalue-minimisations  :  5280
 total energy-change (2. order) : 0.6498945E-03  (-0.7266058E-03)
 number of electron     346.3999976 magnetization       0.9999746
 augmentation part       16.0787087 magnetization       0.1190605

 Broyden mixing:
  rms(total) = 0.48231E-02    rms(broyden)= 0.48157E-02
  rms(prec ) = 0.59079E-02
  weight for this iteration     100.00

 eigenvalues of (default mixing * dielectric matrix)
  average eigenvalue GAMMA=   2.3430
  5.9182  2.7315  1.1524  1.1524  0.7604

 Free energy of the ion-electron system (eV)
  ---------------------------------------------------
  alpha Z        PSCENC =        92.14382556
  Ewald energy   TEWEN  =    112124.21154146
  -Hartree energ DENC   =   -126028.61851520
  -exchange      EXHF   =         0.00000000
  -V(xc)+E(xc)   XCENC  =      1587.51090466
  PAW double counting   =     40621.27473175   -40788.14261237
  entropy T*S    EENTRO =        -0.01137107
  eigenvalues    EBANDS =     -5037.05259784
  atomic energy  EATOM  =     16689.68470767
  Solvation  Ediel_sol  =       -36.97042492
  ---------------------------------------------------
  free energy    TOTEN  =      -775.96981028 eV

  energy without entropy =     -775.95843921  energy(sigma->0) =     -775.96412475


--------------------------------------------------------------------------------------------------------




--------------------------------------- Iteration      1(   7)  ---------------------------------------


    POTLOK:  cpu time   46.4127: real time   46.5218
    SETDIJ:  cpu time   19.9758: real time   19.6238
    EDDIAG:  cpu time   35.6520: real time   25.9354
  RMM-DIIS:  cpu time  194.9741: real time  143.9509
    ORTHCH:  cpu time    1.5185: real time    0.7713
       DOS:  cpu time    0.0027: real time    0.0013
    CHARGE:  cpu time   22.6642: real time   21.1127
    MIXING:  cpu time    0.2206: real time    0.1680
    --------------------------------------------
      LOOP:  cpu time  321.4205: real time  258.0852

 eigenvalue-minimisations  :  5280
 total energy-change (2. order) :-0.1638994E-02  (-0.6310982E-04)
 number of electron     346.3999976 magnetization       0.9999689
 augmentation part       16.0772179 magnetization       0.1190897

 Broyden mixing:
  rms(total) = 0.38604E-02    rms(broyden)= 0.38591E-02
  rms(prec ) = 0.46588E-02
  weight for this iteration     100.00

 eigenvalues of (default mixing * dielectric matrix)
  average eigenvalue GAMMA=   2.4415
  6.9166  2.8043  2.1257  1.1978  0.9192  0.6851

 Free energy of the ion-electron system (eV)
  ---------------------------------------------------
  alpha Z        PSCENC =        92.14382556
  Ewald energy   TEWEN  =    112124.21154146
  -Hartree energ DENC   =   -126023.29079594
  -exchange      EXHF   =         0.00000000
  -V(xc)+E(xc)   XCENC  =      1587.54022768
  PAW double counting   =     40619.71421243   -40786.57631393
  entropy T*S    EENTRO =        -0.01136928
  eigenvalues    EBANDS =     -5035.92609979
  atomic energy  EATOM  =     16689.68470767
  Solvation  Ediel_sol  =       -43.46138515
  ---------------------------------------------------
  free energy    TOTEN  =      -775.97144927 eV

  energy without entropy =     -775.96007999  energy(sigma->0) =     -775.96576463


--------------------------------------------------------------------------------------------------------




--------------------------------------- Iteration      1(   8)  ---------------------------------------


    POTLOK:  cpu time   47.8472: real time   47.9540
    SETDIJ:  cpu time   20.6594: real time   20.3089
    EDDIAG:  cpu time   35.5848: real time   25.8626
  RMM-DIIS:  cpu time  195.3895: real time  144.2426
    ORTHCH:  cpu time    1.5116: real time    0.7670
       DOS:  cpu time    0.0027: real time    0.0013
    CHARGE:  cpu time   22.5996: real time   21.0695
    MIXING:  cpu time    0.2163: real time    0.1655
    --------------------------------------------
      LOOP:  cpu time  323.8112: real time  260.3715

 eigenvalue-minimisations  :  5280
 total energy-change (2. order) :-0.2341991E-02  (-0.6537935E-04)
 number of electron     346.3999976 magnetization       0.9999669
 augmentation part       16.0762719 magnetization       0.1190386

 Broyden mixing:
  rms(total) = 0.28340E-02    rms(broyden)= 0.28338E-02
  rms(prec ) = 0.31169E-02
  weight for this iteration     100.00

 eigenvalues of (default mixing * dielectric matrix)
  average eigenvalue GAMMA=   2.4918
  7.9844  3.4951  2.4562  1.0717  1.0717  0.7629  0.6003

 Free energy of the ion-electron system (eV)
  ---------------------------------------------------
  alpha Z        PSCENC =        92.14382556
  Ewald energy   TEWEN  =    112124.21154146
  -Hartree energ DENC   =   -126018.94392344
  -exchange      EXHF   =         0.00000000
  -V(xc)+E(xc)   XCENC  =      1587.60422123
  PAW double counting   =     40627.16473328   -40794.02535435
  entropy T*S    EENTRO =        -0.01136862
  eigenvalues    EBANDS =     -5032.60910648
  atomic energy  EATOM  =     16689.68470767
  Solvation  Ediel_sol  =       -51.19306759
  ---------------------------------------------------
  free energy    TOTEN  =      -775.97379127 eV

  energy without entropy =     -775.96242265  energy(sigma->0) =     -775.96810696


--------------------------------------------------------------------------------------------------------




--------------------------------------- Iteration      1(   9)  ---------------------------------------


    POTLOK:  cpu time   45.7352: real time   45.8380
    SETDIJ:  cpu time   20.2540: real time   19.9021
    EDDIAG:  cpu time   35.5633: real time   25.8312
  RMM-DIIS:  cpu time  194.3792: real time  143.8986
    ORTHCH:  cpu time    1.5085: real time    0.7671
       DOS:  cpu time    0.0026: real time    0.0013
    CHARGE:  cpu time   22.7653: real time   21.2173
    MIXING:  cpu time    0.2391: real time    0.1777
    --------------------------------------------
      LOOP:  cpu time  320.4472: real time  257.6334

 eigenvalue-minimisations  :  5251
 total energy-change (2. order) :-0.6318932E-03  (-0.1451284E-04)
 number of electron     346.3999976 magnetization       0.9999654
 augmentation part       16.0770279 magnetization       0.1190300

 Broyden mixing:
  rms(total) = 0.11107E-02    rms(broyden)= 0.11106E-02
  rms(prec ) = 0.13713E-02
  weight for this iteration     100.00

 eigenvalues of (default mixing * dielectric matrix)
  average eigenvalue GAMMA=   2.4669
  8.4040  3.9637  2.4625  1.3463  1.3463  0.8960  0.7264  0.5901

 Free energy of the ion-electron system (eV)
  ---------------------------------------------------
  alpha Z        PSCENC =        92.14382556
  Ewald energy   TEWEN  =    112124.21154146
  -Hartree energ DENC   =   -126017.50903683
  -exchange      EXHF   =         0.00000000
  -V(xc)+E(xc)   XCENC  =      1587.60444345
  PAW double counting   =     40628.80453426   -40795.66282870
  entropy T*S    EENTRO =        -0.01136952
  eigenvalues    EBANDS =     -5031.99815182
  atomic energy  EATOM  =     16689.68470767
  Solvation  Ediel_sol  =       -53.24208869
  ---------------------------------------------------
  free energy    TOTEN  =      -775.97442316 eV

  energy without entropy =     -775.96305363  energy(sigma->0) =     -775.96873840


--------------------------------------------------------------------------------------------------------




--------------------------------------- Iteration      1(  10)  ---------------------------------------


    POTLOK:  cpu time   44.5703: real time   44.6718
    SETDIJ:  cpu time   18.7446: real time   18.3892
    EDDIAG:  cpu time   35.5847: real time   25.8691
  RMM-DIIS:  cpu time  193.2253: real time  143.5148
    ORTHCH:  cpu time    1.5113: real time    0.7689
       DOS:  cpu time    0.0026: real time    0.0013
    CHARGE:  cpu time   22.6269: real time   21.1336
    MIXING:  cpu time    0.2275: real time    0.1726
    --------------------------------------------
      LOOP:  cpu time  316.4931: real time  254.5214

 eigenvalue-minimisations  :  5215
 total energy-change (2. order) :-0.7681925E-03  (-0.9945766E-05)
 number of electron     346.3999976 magnetization       0.9999641
 augmentation part       16.0778836 magnetization       0.1190271

 Broyden mixing:
  rms(total) = 0.15774E-02    rms(broyden)= 0.15772E-02
  rms(prec ) = 0.16852E-02
  weight for this iteration     100.00

 eigenvalues of (default mixing * dielectric matrix)
  average eigenvalue GAMMA=   2.4798
  8.6093  4.3869  2.8871  2.0881  1.0916  1.0916  0.8454  0.7248  0.5931

 Free energy of the ion-electron system (eV)
  ---------------------------------------------------
  alpha Z        PSCENC =        92.14382556
  Ewald energy   TEWEN  =    112124.21154146
  -Hartree energ DENC   =   -126016.45198922
  -exchange      EXHF   =         0.00000000
  -V(xc)+E(xc)   XCENC  =      1587.60148090
  PAW double counting   =     40627.05267010   -40793.90801685
  entropy T*S    EENTRO =        -0.01137006
  eigenvalues    EBANDS =     -5032.04079006
  atomic energy  EATOM  =     16689.68470767
  Solvation  Ediel_sol  =       -54.25725087
  ---------------------------------------------------
  free energy    TOTEN  =      -775.97519135 eV

  energy without entropy =     -775.96382129  energy(sigma->0) =     -775.96950632


--------------------------------------------------------------------------------------------------------




--------------------------------------- Iteration      1(  11)  ---------------------------------------


    POTLOK:  cpu time   43.9934: real time   44.0928
    SETDIJ:  cpu time   18.9669: real time   18.6126
    EDDIAG:  cpu time   35.5464: real time   25.8376
  RMM-DIIS:  cpu time  166.9336: real time  125.8022
    ORTHCH:  cpu time    1.5138: real time    0.7689
       DOS:  cpu time    0.0028: real time    0.0014
    CHARGE:  cpu time   22.6117: real time   21.0906
    MIXING:  cpu time    0.2226: real time    0.1762
    --------------------------------------------
      LOOP:  cpu time  289.7913: real time  236.3823

 eigenvalue-minimisations  :  4130
 total energy-change (2. order) :-0.6663329E-03  (-0.6579364E-05)
 number of electron     346.3999976 magnetization       0.9999630
 augmentation part       16.0774184 magnetization       0.1190298

 Broyden mixing:
  rms(total) = 0.40222E-03    rms(broyden)= 0.40201E-03
  rms(prec ) = 0.49702E-03
  weight for this iteration     100.00

 eigenvalues of (default mixing * dielectric matrix)
  average eigenvalue GAMMA=   2.4851
  9.0343  4.8144  3.2063  2.2916  1.2405  1.2405  0.8679  0.8679  0.6856  0.6027

 Free energy of the ion-electron system (eV)
  ---------------------------------------------------
  alpha Z        PSCENC =        92.14382556
  Ewald energy   TEWEN  =    112124.21154146
  -Hartree energ DENC   =   -126015.91937360
  -exchange      EXHF   =         0.00000000
  -V(xc)+E(xc)   XCENC  =      1587.61076131
  PAW double counting   =     40624.17254908   -40791.02730728
  entropy T*S    EENTRO =        -0.01136927
  eigenvalues    EBANDS =     -5032.00128737
  atomic energy  EATOM  =     16689.68470767
  Solvation  Ediel_sol  =       -54.83990525
  ---------------------------------------------------
  free energy    TOTEN  =      -775.97585768 eV

  energy without entropy =     -775.96448841  energy(sigma->0) =     -775.97017305


--------------------------------------------------------------------------------------------------------




--------------------------------------- Iteration      1(  12)  ---------------------------------------


    POTLOK:  cpu time   42.1530: real time   42.2476
    SETDIJ:  cpu time   18.3211: real time   17.9651
    EDDIAG:  cpu time   35.6363: real time   25.9445
  RMM-DIIS:  cpu time  165.8331: real time  125.0480
    ORTHCH:  cpu time    1.5042: real time    0.7632
       DOS:  cpu time    0.0029: real time    0.0015
    CHARGE:  cpu time   22.5543: real time   21.0300
    MIXING:  cpu time    0.2319: real time    0.1778
    --------------------------------------------
      LOOP:  cpu time  286.2367: real time  233.2669

 eigenvalue-minimisations  :  4062
 total energy-change (2. order) :-0.3116899E-03  (-0.3207018E-05)
 number of electron     346.3999976 magnetization       0.9999621
 augmentation part       16.0769811 magnetization       0.1190305

 Broyden mixing:
  rms(total) = 0.60627E-03    rms(broyden)= 0.60618E-03
  rms(prec ) = 0.64158E-03
  weight for this iteration     100.00

 eigenvalues of (default mixing * dielectric matrix)
  average eigenvalue GAMMA=   2.4499
  9.3894  5.1210  3.1603  2.5272  1.6291  1.0804  1.0804  0.8437  0.8437  0.6645
  0.6092

 Free energy of the ion-electron system (eV)
  ---------------------------------------------------
  alpha Z        PSCENC =        92.14382556
  Ewald energy   TEWEN  =    112124.21154146
  -Hartree energ DENC   =   -126015.86252508
  -exchange      EXHF   =         0.00000000
  -V(xc)+E(xc)   XCENC  =      1587.61451385
  PAW double counting   =     40623.96919904   -40790.82523344
  entropy T*S    EENTRO =        -0.01136895
  eigenvalues    EBANDS =     -5031.87412347
  atomic energy  EATOM  =     16689.68470767
  Solvation  Ediel_sol  =       -55.02670603
  ---------------------------------------------------
  free energy    TOTEN  =      -775.97616937 eV

  energy without entropy =     -775.96480042  energy(sigma->0) =     -775.97048490


--------------------------------------------------------------------------------------------------------




--------------------------------------- Iteration      1(  13)  ---------------------------------------


    POTLOK:  cpu time   40.9839: real time   41.1638
    SETDIJ:  cpu time   17.5835: real time   17.2255
    EDDIAG:  cpu time   35.5587: real time   25.8432
  RMM-DIIS:  cpu time  154.0049: real time  115.4956
    ORTHCH:  cpu time    1.5097: real time    0.7667
       DOS:  cpu time    0.0025: real time    0.0013
    CHARGE:  cpu time   22.6003: real time   21.0634
    MIXING:  cpu time    0.2377: real time    0.1820
    --------------------------------------------
      LOOP:  cpu time  272.4812: real time  221.6523

 eigenvalue-minimisations  :  3620
 total energy-change (2. order) :-0.1379494E-03  (-0.1105525E-05)
 number of electron     346.3999976 magnetization       0.9999614
 augmentation part       16.0771067 magnetization       0.1190269

 Broyden mixing:
  rms(total) = 0.24196E-03    rms(broyden)= 0.24192E-03
  rms(prec ) = 0.27305E-03
  weight for this iteration     100.00

 eigenvalues of (default mixing * dielectric matrix)
  average eigenvalue GAMMA=   2.3988
  9.4845  5.3486  3.1339  2.7630  1.7993  1.2060  1.2060  0.9298  0.9298  0.7212
  0.6108  0.6522

 Free energy of the ion-electron system (eV)
  ---------------------------------------------------
  alpha Z        PSCENC =        92.14382556
  Ewald energy   TEWEN  =    112124.21154146
  -Hartree energ DENC   =   -126015.78287347
  -exchange      EXHF   =         0.00000000
  -V(xc)+E(xc)   XCENC  =      1587.61095444
  PAW double counting   =     40624.42122696   -40791.27741986
  entropy T*S    EENTRO =        -0.01136917
  eigenvalues    EBANDS =     -5031.89189603
  atomic energy  EATOM  =     16689.68470767
  Solvation  Ediel_sol  =       -55.08500489
  ---------------------------------------------------
  free energy    TOTEN  =      -775.97630732 eV

  energy without entropy =     -775.96493815  energy(sigma->0) =     -775.97062274


--------------------------------------------------------------------------------------------------------




--------------------------------------- Iteration      1(  14)  ---------------------------------------


    POTLOK:  cpu time   40.5473: real time   40.6385
    SETDIJ:  cpu time   17.6234: real time   17.2682
    EDDIAG:  cpu time   35.5480: real time   25.8280
  RMM-DIIS:  cpu time  152.4442: real time  113.9740
    ORTHCH:  cpu time    1.5001: real time    0.7602
       DOS:  cpu time    0.0026: real time    0.0013
    CHARGE:  cpu time   22.5462: real time   21.0447
    MIXING:  cpu time    0.2515: real time    0.1895
    --------------------------------------------
      LOOP:  cpu time  270.4633: real time  219.7045

 eigenvalue-minimisations  :  3562
 total energy-change (2. order) :-0.9227308E-04  (-0.8292791E-06)
 number of electron     346.3999976 magnetization       0.9999606
 augmentation part       16.0772758 magnetization       0.1190274

 Broyden mixing:
  rms(total) = 0.18132E-03    rms(broyden)= 0.18130E-03
  rms(prec ) = 0.20216E-03
  weight for this iteration     100.00

 eigenvalues of (default mixing * dielectric matrix)
  average eigenvalue GAMMA=   2.3583
  9.5073  5.5519  3.3504  2.6472  1.9284  1.6298  1.1444  1.1444  0.8884  0.8884
  0.7236  0.6136  0.6408

 Free energy of the ion-electron system (eV)
  ---------------------------------------------------
  alpha Z        PSCENC =        92.14382556
  Ewald energy   TEWEN  =    112124.21154146
  -Hartree energ DENC   =   -126015.66189193
  -exchange      EXHF   =         0.00000000
  -V(xc)+E(xc)   XCENC  =      1587.60921249
  PAW double counting   =     40624.56943210   -40791.42548776
  entropy T*S    EENTRO =        -0.01136932
  eigenvalues    EBANDS =     -5031.96161478
  atomic energy  EATOM  =     16689.68470767
  Solvation  Ediel_sol  =       -55.13475509
  ---------------------------------------------------
  free energy    TOTEN  =      -775.97639960 eV

  energy without entropy =     -775.96503027  energy(sigma->0) =     -775.97071493


--------------------------------------------------------------------------------------------------------




--------------------------------------- Iteration      1(  15)  ---------------------------------------


    POTLOK:  cpu time   39.8566: real time   40.2618
    SETDIJ:  cpu time   16.7688: real time   16.4088
    EDDIAG:  cpu time   35.5549: real time   25.8443
  RMM-DIIS:  cpu time  150.4851: real time  111.9710
    ORTHCH:  cpu time    1.5222: real time    0.7712
       DOS:  cpu time    0.0027: real time    0.0014
    CHARGE:  cpu time   22.6168: real time   21.0971
    MIXING:  cpu time    0.2384: real time    0.1858
    --------------------------------------------
      LOOP:  cpu time  267.0455: real time  216.5415

 eigenvalue-minimisations  :  3552
 total energy-change (2. order) :-0.6151179E-04  (-0.5467977E-06)
 number of electron     346.3999976 magnetization       0.9999599
 augmentation part       16.0772280 magnetization       0.1190263

 Broyden mixing:
  rms(total) = 0.58609E-04    rms(broyden)= 0.58577E-04
  rms(prec ) = 0.78578E-04
  weight for this iteration     100.00

 eigenvalues of (default mixing * dielectric matrix)
  average eigenvalue GAMMA=   2.3963
  9.6092  6.1540  3.8895  2.7491  2.4698  1.5608  1.2220  1.2220  0.9627  0.9627
  0.8009  0.6958  0.6134  0.6358

 Free energy of the ion-electron system (eV)
  ---------------------------------------------------
  alpha Z        PSCENC =        92.14382556
  Ewald energy   TEWEN  =    112124.21154146
  -Hartree energ DENC   =   -126015.64941954
  -exchange      EXHF   =         0.00000000
  -V(xc)+E(xc)   XCENC  =      1587.61143537
  PAW double counting   =     40624.58938141   -40791.44546555
  entropy T*S    EENTRO =        -0.01136922
  eigenvalues    EBANDS =     -5031.94811929
  atomic energy  EATOM  =     16689.68470767
  Solvation  Ediel_sol  =       -55.16297899
  ---------------------------------------------------
  free energy    TOTEN  =      -775.97646111 eV

  energy without entropy =     -775.96509189  energy(sigma->0) =     -775.97077650


--------------------------------------------------------------------------------------------------------




[...]
   -.295E+02 0.882E+01 0.870E+02   0.296E+02 -.879E+01 -.870E+02   -.149E-01 0.210E-02 0.202E-01   0.124E-02 -.233E-03 -.515E-04
   -.202E+02 0.452E+00 0.785E+02   0.202E+02 -.433E+00 -.784E+02   -.852E-02 -.828E-03 0.151E-01   0.591E-03 0.131E-03 0.920E-03
   -.610E+01 -.132E+01 0.708E+02   0.609E+01 0.130E+01 -.707E+02   -.426E-02 -.142E-02 -.910E-02   0.359E-03 -.193E-03 -.464E-03
   0.177E+02 -.836E+01 0.764E+02   -.177E+02 0.837E+01 -.763E+02   0.381E-02 -.500E-02 0.521E-03   -.800E-03 0.385E-03 -.452E-03
   0.112E+02 -.729E+01 0.771E+02   -.112E+02 0.728E+01 -.770E+02   0.220E-02 -.434E-02 0.748E-02   -.594E-03 0.320E-04 0.500E-03
   -.259E+01 -.224E+01 0.751E+02   0.258E+01 0.223E+01 -.751E+02   -.196E-02 -.533E-02 0.482E-02   -.230E-03 0.831E-04 -.640E-03
   -.862E+01 0.238E+01 0.726E+02   0.861E+01 -.236E+01 -.726E+02   -.328E-02 -.537E-02 0.172E-01   0.861E-04 0.806E-04 0.468E-03
   -.681E+00 0.216E+01 0.720E+02   0.662E+00 -.213E+01 -.719E+02   -.871E-03 -.312E-02 -.112E-02   -.191E-03 0.273E-03 0.307E-03
   0.123E+02 -.355E+01 0.747E+02   -.123E+02 0.357E+01 -.747E+02   0.176E-02 -.397E-02 0.198E-01   -.447E-03 0.324E-03 0.114E-02
   -.209E+00 0.152E+02 -.374E+03   -.233E+01 -.174E+02 0.367E+03   0.250E+01 0.199E+01 0.827E+01   -.145E-02 -.139E-02 0.862E-03
   -.460E+02 -.774E+02 -.264E+03   0.541E+02 0.886E+02 0.267E+03   -.835E+01 -.117E+02 -.199E+01   -.983E-03 0.208E-03 0.491E-03
   -.326E+02 -.865E+02 -.372E+03   0.325E+02 0.865E+02 0.373E+03   -.167E-01 -.382E-01 -.702E-01   0.152E-02 -.127E-02 -.132E-02
   -.541E+03 0.431E+02 -.783E+03   0.600E+03 -.452E+02 0.793E+03   -.577E+02 0.167E+01 -.745E+01   0.182E-02 -.289E-02 0.849E-02
   0.202E+03 0.380E+03 -.102E+04   -.224E+03 -.419E+03 0.106E+04   0.222E+02 0.387E+02 -.340E+02   0.152E-03 -.322E-02 0.136E-01
   0.181E+03 -.428E+03 -.889E+03   -.202E+03 0.481E+03 0.909E+03   0.195E+02 -.518E+02 -.179E+02   -.507E-02 -.286E-02 0.819E-02
   -.166E+03 0.395E+03 -.393E+03   0.190E+03 -.445E+03 0.370E+03   -.228E+02 0.488E+02 0.240E+02   -.310E-02 0.730E-02 0.292E-02
   0.474E+03 -.315E+02 -.471E+03   -.533E+03 0.380E+02 0.459E+03   0.572E+02 -.649E+01 0.131E+02   0.412E-02 0.268E-02 0.605E-02
   -.329E+03 -.650E+00 -.534E+03   0.394E+03 -.250E+02 0.528E+03   -.614E+02 0.244E+02 0.668E+01   -.222E-02 0.739E-04 0.490E-02
   0.244E+03 -.233E+03 -.587E+03   -.309E+03 0.258E+03 0.595E+03   0.615E+02 -.243E+02 -.638E+01   -.113E-02 -.342E-02 -.842E-02
 -----------------------------------------------------------------------------------------------
   -.126E+02 -.214E+02 0.153E+02   -.341E-12 0.227E-12 -.341E-12   0.125E+02 0.212E+02 -.155E+02   -.685E-02 -.602E-02 0.528E-01
 
 
 POSITION                                       TOTAL-FORCE (eV/Angst)
 -----------------------------------------------------------------------------------
      1.25663     -0.72436     17.56973        -0.001410     -0.000437     -0.000055
      2.51262      1.45128     17.57062        -0.002293      0.001638     -0.000833
      3.76876      3.62700     17.56935         0.002026     -0.001366     -0.000921
      5.02501      5.80267     17.56788        -0.000952      0.000461     -0.002646
      6.28121      7.97823     17.56664        -0.001491      0.000954      0.001806
      7.53726     10.15377     17.56801        -0.002721      0.002025     -0.000444
      2.51273     -2.90016     17.57153         0.003083      0.001587     -0.001657
      3.76863     -0.72442     17.57324         0.004441     -0.004762      0.001244
      5.02484      1.45113     17.57176         0.004121      0.002758     -0.003398
      6.28122      3.62737     17.56599         0.005423     -0.007076      0.000949
      7.53741      5.80275     17.56754         0.001794     -0.003363     -0.003602
      8.79339      7.97821     17.56774         0.001918     -0.002849      0.002099
      3.76898     -5.07581     17.57036         0.002215     -0.001279     -0.001004
      5.02501     -2.90041     17.57398         0.002026      0.003029      0.002271
      6.28132     -0.72459     17.57511        -0.001671     -0.000733     -0.001563
      7.53751      1.45120     17.57032         0.003110      0.004142     -0.001044
      8.79357      3.62709     17.56813        -0.002762     -0.008981     -0.001366
     10.04950      5.80253     17.56767         0.004402     -0.002744      0.001414
      5.02513     -7.25126     17.56793         0.001584     -0.003919      0.000678
      6.28113     -5.07580     17.57007         0.002155     -0.000624     -0.000101
      7.53728     -2.90015     17.57160         0.000887     -0.001845     -0.000627
      8.79342     -0.72445     17.57022         0.002451      0.001462      0.000167
     10.04949      1.45127     17.56879         0.002239      0.001518     -0.000804
     11.30557      3.62694     17.56822         0.001726     -0.003193     -0.001472
      6.28122     -9.42685     17.56757        -0.002941      0.000418     -0.000079
      7.53735     -7.25125     17.56738        -0.003655     -0.000605      0.001154
      8.79339     -5.07563     17.56820        -0.001936     -0.000642     -0.000388
     10.04948     -2.90004     17.56778        -0.000812      0.002950      0.001029
     11.30559     -0.72436     17.56743        -0.001234      0.003096      0.000047
     12.56165      1.45126     17.56734        -0.001785      0.003317      0.001387
      7.53724    -11.60246     17.56784        -0.006274      0.004038      0.000503
      8.79337     -9.42682     17.56839        -0.006711      0.001494     -0.000794
     10.04946     -7.25119     17.56783        -0.004520      0.001436      0.000857
     11.30559     -5.07552     17.56696        -0.003831      0.000587      0.000610
     12.56167     -2.89996     17.56675        -0.003030      0.003988      0.000522
     13.81772     -0.72434     17.56753        -0.004003      0.003893      0.000042
      1.25667      0.72604     17.56878         0.008020     -0.001245      0.003151
      2.51290      2.90168     17.56952         0.004156     -0.003829      0.000781
      3.76900      5.07724     17.56828         0.003813      0.000941      0.001137
      5.02508      7.25304     17.56678         0.003036     -0.004176      0.001419
      6.28115      9.42862     17.56656         0.003572     -0.001444      0.000681
      7.53719     11.60424     17.56850         0.004815     -0.003313     -0.002023
      2.51293     -1.44963     17.57158        -0.004403      0.000768      0.004661
      3.76898      0.72593     17.57331        -0.002607      0.003232      0.000243
      5.02535      2.90165     17.56918        -0.007714     -0.001069      0.005849
      6.28125      5.07734     17.56762        -0.001937      0.007130     -0.003510
      7.53734      7.25305     17.56696        -0.001336     -0.002392      0.000425
      8.79336      9.42856     17.56864         0.000271      0.000526      0.001302
      3.76904     -3.62518     17.57322        -0.004941     -0.003530      0.000221
      5.02494     -1.44969     17.57682         0.000099      0.005145      0.004245
      6.28118      0.72613     17.57494        -0.003855     -0.004072      0.001692
      7.53710      2.90170     17.56752         0.000486      0.002516      0.002678
      8.79340      5.07724     17.56755        -0.002957      0.006727      0.001679
     10.04948      7.25286     17.56787        -0.001990      0.004308      0.002099
      5.02511     -5.80093     17.56933        -0.002433      0.004761     -0.000306
      6.28107     -3.62521     17.57257         0.001208     -0.001751      0.002241
      7.53716     -1.44964     17.57245         0.001343      0.002122      0.005387
      8.79330      0.72615     17.57003        -0.001300     -0.006137      0.000286
     10.04938      2.90168     17.56847         0.000716      0.001635      0.000875
     11.30561      5.07728     17.56778        -0.003658      0.002613     -0.000705
      6.28123     -7.97648     17.56698         0.000260      0.002621      0.002145
      7.53729     -5.80086     17.56791        -0.000687      0.002777      0.001763
      8.79335     -3.62522     17.56899        -0.001438      0.001637     -0.000926
     10.04947     -1.44956     17.56782        -0.004061     -0.000057      0.001651
     11.30552      0.72608     17.56735        -0.001136     -0.000644      0.001722
     12.56164      2.90169     17.56786        -0.000422      0.000686     -0.002298
      7.53725    -10.15201     17.56781         0.005453     -0.002864     -0.001158
      8.79336     -7.97643     17.56753         0.005040     -0.000696     -0.000116
     10.04945     -5.80079     17.56740         0.003432     -0.000745     -0.000907
     11.30552     -3.62512     17.56654         0.002856     -0.002074      0.000925
     12.56159     -1.44948     17.56713         0.003919     -0.003540     -0.001586
     13.81767      0.72615     17.56691         0.004401     -0.003954      0.001877
      5.08966     -1.02621     23.12589        -0.003496     -0.003866     -0.010042
      4.73850     -1.24941     21.67712         0.002865     -0.012303      0.001113
      6.30841      2.71823     21.39431        -0.014073      0.008029     -0.002318
      6.42039     -1.06823     23.28634        -0.000582      0.008275     -0.000371
      4.54833     -1.96587     23.93596        -0.004370     -0.002614     -0.000281
      4.63369      0.16929     23.52882         0.007619      0.003752     -0.001634
      5.24373     -2.36228     21.16158        -0.002650     -0.000018     -0.008028
      3.44699     -1.11911     21.40595        -0.007792     -0.002091     -0.009855
      7.38388      2.28998     21.27647         0.017806     -0.004830     -0.005458
      5.23067      3.14306     21.50521         0.003085      0.002682      0.005289
 -----------------------------------------------------------------------------------
    total drift:                               -0.158172     -0.183780     -0.150291


--------------------------------------------------------------------------------------------------------



  FREE ENERGIE OF THE ION-ELECTRON SYSTEM (eV)
  ---------------------------------------------------
  free  energy   TOTEN  =      -775.97665323 eV

  energy  without entropy=     -775.96528398  energy(sigma->0) =     -775.97096860
 
 d Force = 0.1335302E-04[ 0.116E-04, 0.151E-04]  d Energy = 0.1556708E-04-0.221E-05
 d Force =-0.6818898E+00[-0.682E+00,-0.682E+00]  d Ewald  =-0.6818897E+00-0.779E-07


--------------------------------------------------------------------------------------------------------


    POTLOK:  cpu time   55.7435: real time   55.4677


--------------------------------------------------------------------------------------------------------


 Conjugate gradient step on ions:
 trial-energy change:   -0.000016  1 .order   -0.000013   -0.000015   -0.000012
  (g-gl).g = 0.231E-03      g.g   = 0.192E-03  gl.gl    = 0.562E-03
 g(Force)  = 0.192E-03   g(Stress)= 0.000E+00 ortho     = 0.100E-04
 gamma     =   0.41084
 trial     =   0.07701
 opt step  =   0.30802  (harmonic =   0.32691) maximal distance =0.00058190
 next E    =  -775.976670   (d E  =  -0.00003)


--------------------------------------------------------------------------------------------------------


  
 reached required accuracy - stopping structural energy minimisation
 writing wavefunctions
     LOOP+:  cpu time 1114.8483: real time  938.3457
    4ORBIT:  cpu time    0.0000: real time    0.0000
 


 total charge     
 
# of ion       s       p       d       tot
------------------------------------------
    1        0.744   1.393   0.000   2.136
    2        0.744   1.393   0.000   2.136
    3        0.744   1.393   0.000   2.136
    4        0.744   1.393   0.000   2.136
    5        0.744   1.393   0.000   2.137
    6        0.744   1.393   0.000   2.137
    7        0.744   1.393   0.000   2.137
    8        0.744   1.393   0.000   2.137
    9        0.744   1.393   0.000   2.137
   10        0.744   1.394   0.000   2.138
   11        0.744   1.393   0.000   2.136
   12        0.744   1.393   0.000   2.137
   13        0.744   1.393   0.000   2.136
   14        0.744   1.393   0.000   2.137
   15        0.744   1.393   0.000   2.137
   16        0.744   1.393   0.000   2.137
   17        0.744   1.393   0.000   2.137
   18        0.744   1.393   0.000   2.137
   19        0.744   1.393   0.000   2.137
   20        0.744   1.393   0.000   2.137
   21        0.744   1.393   0.000   2.137
   22        0.744   1.393   0.000   2.136
   23        0.744   1.393   0.000   2.137
   24        0.744   1.393   0.000   2.137
   25        0.744   1.393   0.000   2.137
   26        0.744   1.393   0.000   2.137
   27        0.744   1.393   0.000   2.137
   28        0.744   1.393   0.000   2.137
   29        0.744   1.393   0.000   2.137
   30        0.744   1.393   0.000   2.137
   31        0.744   1.393   0.000   2.137
   32        0.744   1.393   0.000   2.137
   33        0.744   1.393   0.000   2.137
   34        0.744   1.393   0.000   2.137
   35        0.744   1.393   0.000   2.137
   36        0.744   1.393   0.000   2.137
   37        1.239   2.820   0.000   4.058
   38        1.239   2.820   0.000   4.058
   39        1.239   2.819   0.000   4.058
   40        1.239   2.820   0.000   4.058
   41        1.239   2.820   0.000   4.058
   42        1.239   2.820   0.000   4.058
   43        1.239   2.819   0.000   4.058
   44        1.239   2.819   0.000   4.058
   45        1.239   2.819   0.000   4.058
   46        1.239   2.819   0.000   4.058
   47        1.239   2.820   0.000   4.058
   48        1.239   2.820   0.000   4.058
   49        1.239   2.819   0.000   4.058
   50        1.239   2.819   0.000   4.058
   51        1.239   2.819   0.000   4.058
   52        1.239   2.819   0.000   4.058
   53        1.239   2.820   0.000   4.058
   54        1.239   2.820   0.000   4.058
   55        1.239   2.820   0.000   4.058
   56        1.239   2.819   0.000   4.058
   57        1.239   2.819   0.000   4.058
   58        1.239   2.819   0.000   4.058
   59        1.239   2.819   0.000   4.058
   60        1.239   2.820   0.000   4.058
   61        1.239   2.819   0.000   4.058
   62        1.239   2.819   0.000   4.058
   63        1.239   2.820   0.000   4.058
   64        1.239   2.820   0.000   4.058
   65        1.239   2.820   0.000   4.058
   66        1.239   2.819   0.000   4.058
   67        1.239   2.819   0.000   4.058
   68        1.239   2.820   0.000   4.058
   69        1.239   2.819   0.000   4.058
   70        1.239   2.820   0.000   4.058
   71        1.239   2.820   0.000   4.058
   72        1.239   2.820   0.000   4.058
   73        0.814   1.560   0.000   2.374
   74        0.836   1.566   0.000   2.402
   75        0.945   1.794   0.000   2.738
   76        1.758   4.413   0.000   6.171
   77        1.758   4.405   0.000   6.163
   78        1.758   4.413   0.000   6.171
   79        1.757   4.399   0.000   6.156
   80        1.757   4.400   0.000   6.157
   81        1.608   3.595   0.000   5.204
   82        1.608   3.595   0.000   5.204
--------------------------------------------------
tot         85.972 185.783   0.000 271.755
 


 magnetization (x)
 
# of ion       s       p       d       tot
------------------------------------------
    1        0.000   0.000   0.000   0.000
    2       -0.000  -0.000   0.000  -0.000
    3        0.000   0.000   0.000   0.000
    4        0.000   0.000   0.000   0.000
    5        0.000   0.000   0.000   0.000
    6        0.000   0.000   0.000   0.000
    7        0.000   0.000   0.000   0.000
    8       -0.000   0.000   0.000   0.000
    9        0.000   0.000   0.000   0.000
   10        0.000  -0.000   0.000  -0.000
   11        0.000   0.000   0.000   0.000
   12        0.000   0.000   0.000   0.000
   13        0.000   0.000   0.000   0.000
   14       -0.000   0.000   0.000   0.000
   15        0.000   0.000   0.000   0.000
   16       -0.000   0.000   0.000   0.000
   17       -0.000   0.000   0.000   0.000
   18        0.000   0.000   0.000   0.000
   19        0.000   0.000   0.000   0.000
   20        0.000   0.000   0.000   0.000
   21        0.000  -0.000   0.000  -0.000
   22        0.000  -0.000   0.000  -0.000
   23       -0.000  -0.000   0.000  -0.000
   24        0.000   0.000   0.000   0.000
   25        0.000   0.000   0.000   0.000
   26        0.000   0.000   0.000   0.000
   27        0.000   0.000   0.000   0.000
   28        0.000   0.000   0.000   0.000
   29        0.000   0.000   0.000   0.000
   30        0.000   0.000   0.000   0.000
   31        0.000   0.000   0.000   0.000
   32        0.000   0.000   0.000   0.000
   33        0.000   0.000   0.000   0.000
   34        0.000   0.000   0.000   0.000
   35        0.000   0.000   0.000   0.000
   36        0.000   0.000   0.000   0.000
   37        0.000   0.000   0.000   0.000
   38       -0.000  -0.000   0.000  -0.000
   39        0.000  -0.000   0.000  -0.000
   40       -0.000  -0.000   0.000  -0.000
   41       -0.000  -0.000   0.000  -0.000
   42        0.000  -0.000   0.000  -0.000
   43       -0.000  -0.000   0.000  -0.000
   44       -0.000  -0.000   0.000  -0.000
   45       -0.000  -0.000   0.000  -0.000
   46        0.000  -0.000   0.000  -0.000
   47        0.000  -0.000   0.000  -0.000
   48        0.000  -0.000   0.000  -0.000
   49       -0.000  -0.000   0.000  -0.000
   50       -0.000  -0.000   0.000  -0.000
   51        0.000   0.000   0.000   0.000
   52        0.000   0.000   0.000   0.000
   53       -0.000  -0.000   0.000  -0.000
   54       -0.000  -0.000   0.000  -0.000
   55        0.000   0.000   0.000   0.000
   56        0.000   0.000   0.000   0.000
   57       -0.000  -0.000   0.000  -0.000
   58       -0.000  -0.000   0.000  -0.000
   59        0.000  -0.000   0.000  -0.000
   60        0.000  -0.000   0.000  -0.000
   61       -0.000  -0.000   0.000  -0.000
   62        0.000   0.000   0.000   0.000
   63       -0.000  -0.000   0.000  -0.000
   64        0.000  -0.000   0.000  -0.000
   65       -0.000  -0.000   0.000  -0.000
   66       -0.000  -0.000   0.000  -0.000
   67        0.000  -0.000   0.000  -0.000
   68       -0.000  -0.000   0.000  -0.000
   69       -0.000  -0.000   0.000  -0.000
   70       -0.000  -0.000   0.000  -0.000
   71        0.000  -0.000   0.000  -0.000
   72       -0.000  -0.000   0.000  -0.000
   73        0.004   0.011   0.000   0.015
   74        0.071   0.377   0.000   0.447
   75       -0.000   0.000   0.000   0.000
   76       -0.000  -0.000   0.000  -0.001
   77        0.001   0.030   0.000   0.031
   78       -0.000  -0.000   0.000  -0.001
   79        0.003   0.077   0.000   0.080
   80        0.003   0.077   0.000   0.080
   81        0.000   0.000   0.000   0.000
   82        0.000  -0.000   0.000   0.000
--------------------------------------------------
tot          0.082   0.570   0.000   0.652
 

 total amount of memory used by VASP MPI-rank0  1200915. kBytes
=======================================================================

   base      :      30000. kBytes
   nonlr-proj:      37377. kBytes
   fftplans  :      59250. kBytes
   grid      :     716351. kBytes
   one-center:        503. kBytes
   wavefun   :     357434. kBytes
 
  
  
 General timing and accounting informations for this job:
 ========================================================
  
                  Total CPU time used (sec):    24373.727
                            User time (sec):    23706.482
                          System time (sec):      667.244
                         Elapsed time (sec):    20329.470
  
                   Maximum memory used (kb):     2645476.
                   Average memory used (kb):           0.
  
                          Minor page faults:     67507337
                          Major page faults:           61
                 Voluntary context switches:       202682
