 vasp.5.4.4.18Apr17-6-g9f103f2a35 (build May 01 2020 14:57:12) complex          
  
 executed on             LinuxIFC date 2020.10.18  11:00:27
 running on   48 total cores
 distrk:  each k-point on   12 cores,    4 groups
 distr:  one band on NCORES_PER_BAND=   1 cores,   12 groups


--------------------------------------------------------------------------------------------------------


 INCAR:
 POTCAR:    PAW_PBE B 06Sep2000                   
 POTCAR:    PAW_PBE N 08Apr2002                   
 POTCAR:    PAW_PBE C 08Apr2002                   
 POTCAR:    PAW_PBE F 08Apr2002                   
 POTCAR:    PAW_PBE O 08Apr2002                   

 ----------------------------------------------------------------------------- 
|                                                                             |
|           W    W    AA    RRRRR   N    N  II  N    N   GGGG   !!!           |
|           W    W   A  A   R    R  NN   N  II  NN   N  G    G  !!!           |
|           W    W  A    A  R    R  N N  N  II  N N  N  G       !!!           |
|           W WW W  AAAAAA  RRRRR   N  N N  II  N  N N  G  GGG   !            |
|           WW  WW  A    A  R   R   N   NN  II  N   NN  G    G                |
|           W    W  A    A  R    R  N    N  II  N    N   GGGG   !!!           |
|                                                                             |
|      For optimal performance we recommend to set                            |
|        NCORE= 4 - approx SQRT( number of cores)                             |
|      NCORE specifies how many cores store one orbital (NPAR=cpu/NCORE).     |
|      This setting can  greatly improve the performance of VASP for DFT.     |
|      The default,   NCORE=1            might be grossly inefficient         |
|      on modern multi-core architectures or massively parallel machines.     |
|      Do your own testing !!!!                                               |
|      Unfortunately you need to use the default for GW and RPA calculations. |
|      (for HF NCORE is supported but not extensively tested yet)             |
|                                                                             |
 ----------------------------------------------------------------------------- 


 ----------------------------------------------------------------------------- 
|                                                                             |
|           W    W    AA    RRRRR   N    N  II  N    N   GGGG   !!!           |
|           W    W   A  A   R    R  NN   N  II  NN   N  G    G  !!!           |
|           W    W  A    A  R    R  N N  N  II  N N  N  G       !!!           |
|           W WW W  AAAAAA  RRRRR   N  N N  II  N  N N  G  GGG   !            |
|           WW  WW  A    A  R   R   N   NN  II  N   NN  G    G                |
|           W    W  A    A  R    R  N    N  II  N    N   GGGG   !!!           |
|                                                                             |
|      You have enabled k-point parallelism (KPAR>1).                         |
|      This developmental code was originally  written by Paul Kent at ORNL,  |
|      and carefully double checked in Vienna.                                |
|      GW as well as linear response parallelism added by Martijn Marsman     |
|      and Georg Kresse.                                                      |
|      Carefully verify results versus KPAR=1.                                |
|      Report problems to Paul Kent and Vienna.                               |
|                                                                             |
 ----------------------------------------------------------------------------- 

 POTCAR:    PAW_PBE B 06Sep2000                   
   VRHFIN =B: s2p1                                                              
   LEXCH  = PE                                                                  
   EATOM  =    71.1703 eV,    5.2309 Ry                                         
                                                                                
   TITEL  = PAW_PBE B 06Sep2000                                                 
   LULTRA =        F    use ultrasoft PP ?                                      
   IUNSCR =        1    unscreen: 0-lin 1-nonlin 2-no                           
   RPACOR =    1.200    partial core radius                                     
   POMASS =   10.811; ZVAL   =    3.000    mass and valenz                      
   RCORE  =    1.700    outmost cutoff radius                                   
   RWIGS  =    1.710; RWIGS  =    0.905    wigner-seitz radius (au A)           
   ENMAX  =  318.614; ENMIN  =  238.960 eV                                      
   ICORE  =        2    local potential                                         
   LCOR   =        T    correct aug charges                                     
   LPAW   =        T    paw PP                                                  
   EAUG   =  535.514                                                            
   DEXC   =    0.000                                                            
   RMAX   =    1.732    core radius for proj-oper                               
   RAUG   =    1.300    factor for augmentation sphere                          
   RDEP   =    1.757    radius for radial grids                                 
   RDEPT  =    1.436    core radius for aug-charge                              
                                                                                
   Atomic configuration                                                         
    4 entries                                                                   
     n  l   j            E        occ.                                          
     1  0  0.50      -180.5896   2.0000                                         
     2  0  0.50        -9.4431   2.0000                                         
     2  1  0.50        -3.6068   1.0000                                         
     3  2  1.50        -4.0817   0.0000                                         
   Description                                                                  
     l       E           TYP  RCUT    TYP  RCUT                                 
     0     -9.4430752     23  1.500                                             
     0      0.8675899     23  1.500                                             
     1     -3.6067955     23  1.700                                             
     1      6.1086146     23  1.700                                             
     2     -4.0817478      7  1.700                                             
  local pseudopotential read in
  partial core-charges read in
  partial kinetic energy density read in
  atomic valenz-charges read in
  non local Contribution for L=           0  read in
    real space projection operators read in
  non local Contribution for L=           0  read in
    real space projection operators read in
  non local Contribution for L=           1  read in
    real space projection operators read in
  non local Contribution for L=           1  read in
    real space projection operators read in
    PAW grid and wavefunctions read in
 
   number of l-projection  operators is LMAX  =           4
   number of lm-projection operators is LMMAX =           8
 
 POTCAR:    PAW_PBE N 08Apr2002                   
   VRHFIN =N: s2p3                                                              
   LEXCH  = PE                                                                  
   EATOM  =   264.5486 eV,   19.4438 Ry                                         
                                                                                
   TITEL  = PAW_PBE N 08Apr2002                                                 
   LULTRA =        F    use ultrasoft PP ?                                      
   IUNSCR =        1    unscreen: 0-lin 1-nonlin 2-no                           
   RPACOR =    1.200    partial core radius                                     
   POMASS =   14.001; ZVAL   =    5.000    mass and valenz                      
   RCORE  =    1.500    outmost cutoff radius                                   
   RWIGS  =    1.400; RWIGS  =    0.741    wigner-seitz radius (au A)           
   ENMAX  =  400.000; ENMIN  =  300.000 eV                                      
   ICORE  =        2    local potential                                         
   LCOR   =        T    correct aug charges                                     
   LPAW   =        T    paw PP                                                  
   EAUG   =  627.112                                                            
   DEXC   =    0.000                                                            
   RMAX   =    1.529    core radius for proj-oper                               
   RAUG   =    1.300    factor for augmentation sphere                          
   RDEP   =    1.514    radius for radial grids                                 
   RDEPT  =    1.338    core radius for aug-charge                              
                                                                                
   Atomic configuration                                                         
    4 entries                                                                   
     n  l   j            E        occ.                                          
     1  0  0.50      -384.7179   2.0000                                         
     2  0  0.50       -18.5828   2.0000                                         
     2  1  0.50        -7.0898   3.0000                                         
     3  2  1.50        -6.8029   0.0000                                         
   Description                                                                  
     l       E           TYP  RCUT    TYP  RCUT                                 
     0    -18.5828119     23  1.200                                             
     0    -13.5018863     23  1.200                                             
     1     -7.0897853     23  1.500                                             
     1      9.5240782     23  1.500                                             
     2     -6.8029130      7  1.500                                             
  local pseudopotential read in
  partial core-charges read in
  partial kinetic energy density read in
  atomic valenz-charges read in
  non local Contribution for L=           0  read in
    real space projection operators read in
  non local Contribution for L=           0  read in
    real space projection operators read in
  non local Contribution for L=           1  read in
    real space projection operators read in
  non local Contribution for L=           1  read in
    real space projection operators read in
    PAW grid and wavefunctions read in
 
   number of l-projection  operators is LMAX  =           4
   number of lm-projection operators is LMMAX =           8
 
 POTCAR:    PAW_PBE C 08Apr2002                   
   VRHFIN =C: s2p2                                                              
   LEXCH  = PE                                                                  
   EATOM  =   147.1560 eV,   10.8157 Ry                                         
                                                                                
   TITEL  = PAW_PBE C 08Apr2002                                                 
   LULTRA =        F    use ultrasoft PP ?                                      
   IUNSCR =        1    unscreen: 0-lin 1-nonlin 2-no                           
   RPACOR =    1.200    partial core radius                                     
   POMASS =   12.011; ZVAL   =    4.000    mass and valenz                      
   RCORE  =    1.500    outmost cutoff radius                                   
   RWIGS  =    1.630; RWIGS  =    0.863    wigner-seitz radius (au A)           
   ENMAX  =  400.000; ENMIN  =  300.000 eV                                      
   ICORE  =        2    local potential                                         
   LCOR   =        T    correct aug charges                                     
   LPAW   =        T    paw PP                                                  
   EAUG   =  644.873                                                            
   DEXC   =    0.000                                                            
   RMAX   =    1.529    core radius for proj-oper                               
   RAUG   =    1.300    factor for augmentation sphere                          
   RDEP   =    1.501    radius for radial grids                                 
   RDEPT  =    1.300    core radius for aug-charge                              
                                                                                
   Atomic configuration                                                         
    4 entries                                                                   
     n  l   j            E        occ.                                          
     1  0  0.50      -273.3789   2.0000                                         
     2  0  0.50       -13.7508   2.0000                                         
     2  1  0.50        -5.2854   2.0000                                         
     3  2  1.50        -5.4423   0.0000                                         
   Description                                                                  
     l       E           TYP  RCUT    TYP  RCUT                                 
     0    -13.7508458     23  1.200                                             
     0     -8.2022199     23  1.200                                             
     1     -5.2854383     23  1.500                                             
     1     34.0145650     23  1.500                                             
     2     -5.4423304      7  1.500                                             
  local pseudopotential read in
  partial core-charges read in
  partial kinetic energy density read in
  atomic valenz-charges read in
  non local Contribution for L=           0  read in
    real space projection operators read in
  non local Contribution for L=           0  read in
    real space projection operators read in
  non local Contribution for L=           1  read in
    real space projection operators read in
  non local Contribution for L=           1  read in
    real space projection operators read in
    PAW grid and wavefunctions read in
 
   number of l-projection  operators is LMAX  =           4
   number of lm-projection operators is LMMAX =           8
 
 POTCAR:    PAW_PBE F 08Apr2002                   
   VRHFIN =F: s2p5                                                              
   LEXCH  = PE                                                                  
   EATOM  =   659.6475 eV,   48.4827 Ry                                         
                                                                                
   TITEL  = PAW_PBE F 08Apr2002                                                 
   LULTRA =        F    use ultrasoft PP ?                                      
   IUNSCR =        1    unscreen: 0-lin 1-nonlin 2-no                           
   RPACOR =    1.200    partial core radius                                     
   POMASS =   18.998; ZVAL   =    7.000    mass and valenz                      
   RCORE  =    1.520    outmost cutoff radius                                   
   RWIGS  =    1.500; RWIGS  =    0.794    wigner-seitz radius (au A)           
   ENMAX  =  400.000; ENMIN  =  300.000 eV                                      
   ICORE  =        2    local potential                                         
   LCOR   =        T    correct aug charges                                     
   LPAW   =        T    paw PP                                                  
   EAUG   =  613.614                                                            
   RMAX   =    1.555    core radius for proj-oper                               
   RAUG   =    1.300    factor for augmentation sphere                          
   RDEP   =    1.539    radius for radial grids                                 
   RDEPT  =    1.299    core radius for aug-charge                              
                                                                                
   Atomic configuration                                                         
    4 entries                                                                   
     n  l   j            E        occ.                                          
     1  0  0.50      -663.3661   2.0000                                         
     2  0  0.50       -29.8995   2.0000                                         
     2  1  0.50       -11.1114   5.0000                                         
     3  2  1.50       -10.8847   0.0000                                         
   Description                                                                  
     l       E           TYP  RCUT    TYP  RCUT                                 
     0    -29.8995018     23  1.200                                             
     0     -9.5240782     23  1.200                                             
     1    -11.1113914     23  1.520                                             
     1      1.3605826     23  1.520                                             
     2    -10.8846608      7  1.500                                             
  local pseudopotential read in
  partial core-charges read in
  partial kinetic energy density read in
  atomic valenz-charges read in
  non local Contribution for L=           0  read in
    real space projection operators read in
  non local Contribution for L=           0  read in
    real space projection operators read in
  non local Contribution for L=           1  read in
    real space projection operators read in
  non local Contribution for L=           1  read in
    real space projection operators read in
    PAW grid and wavefunctions read in
 
   number of l-projection  operators is LMAX  =           4
   number of lm-projection operators is LMMAX =           8
 
 POTCAR:    PAW_PBE O 08Apr2002                   
   VRHFIN =O: s2p4                                                              
   LEXCH  = PE                                                                  
   EATOM  =   432.3788 eV,   31.7789 Ry                                         
                                                                                
   TITEL  = PAW_PBE O 08Apr2002                                                 
   LULTRA =        F    use ultrasoft PP ?                                      
   IUNSCR =        1    unscreen: 0-lin 1-nonlin 2-no                           
   RPACOR =    1.200    partial core radius                                     
   POMASS =   16.000; ZVAL   =    6.000    mass and valenz                      
   RCORE  =    1.520    outmost cutoff radius                                   
   RWIGS  =    1.550; RWIGS  =    0.820    wigner-seitz radius (au A)           
   ENMAX  =  400.000; ENMIN  =  300.000 eV                                      
   ICORE  =        2    local potential                                         
   LCOR   =        T    correct aug charges                                     
   LPAW   =        T    paw PP                                                  
   EAUG   =  605.392                                                            
   DEXC   =    0.000                                                            
   RMAX   =    1.553    core radius for proj-oper                               
   RAUG   =    1.300    factor for augmentation sphere                          
   RDEP   =    1.550    radius for radial grids                                 
   RDEPT  =    1.329    core radius for aug-charge                              
                                                                                
   Atomic configuration                                                         
    4 entries                                                                   
     n  l   j            E        occ.                                          
     1  0  0.50      -514.6923   2.0000                                         
     2  0  0.50       -23.9615   2.0000                                         
     2  1  0.50        -9.0305   4.0000                                         
     3  2  1.50        -9.5241   0.0000                                         
   Description                                                                  
     l       E           TYP  RCUT    TYP  RCUT                                 
     0    -23.9615318     23  1.200                                             
     0     -9.5240782     23  1.200                                             
     1     -9.0304911     23  1.520                                             
     1      8.1634956     23  1.520                                             
     2     -9.5240782      7  1.500                                             
  local pseudopotential read in
  partial core-charges read in
  partial kinetic energy density read in
  kinetic energy density of atom read in
  atomic valenz-charges read in
  non local Contribution for L=           0  read in
    real space projection operators read in
  non local Contribution for L=           0  read in
    real space projection operators read in
  non local Contribution for L=           1  read in
    real space projection operators read in
  non local Contribution for L=           1  read in
    real space projection operators read in
    PAW grid and wavefunctions read in
 
   number of l-projection  operators is LMAX  =           4
   number of lm-projection operators is LMMAX =           8
 
 Optimization of the real space projectors (new method)

 maximal supplied QI-value         = 22.11
 optimisation between [QCUT,QGAM] = [ 11.94, 23.88] = [ 39.92,159.67] Ry 
 Optimized for a Real-space Cutoff    1.18 Angstroem

   l    n(q)    QCUT    max X(q) W(low)/X(q) W(high)/X(q)  e(spline) 
   0      8    11.939    53.033    0.11E-03    0.34E-03    0.60E-07
   0      8    11.939    34.740    0.11E-03    0.34E-03    0.59E-07
   1      8    11.939    30.949    0.22E-03    0.20E-03    0.17E-06
   1      8    11.939    19.518    0.20E-03    0.18E-03    0.16E-06
 Optimization of the real space projectors (new method)

 maximal supplied QI-value         = 25.13
 optimisation between [QCUT,QGAM] = [ 11.81, 23.88] = [ 39.08,159.64] Ry 
 Optimized for a Real-space Cutoff    1.41 Angstroem

   l    n(q)    QCUT    max X(q) W(low)/X(q) W(high)/X(q)  e(spline) 
   0     10    11.813    79.467    0.48E-04    0.30E-04    0.67E-06
   0     10    11.813    66.151    0.47E-04    0.30E-04    0.67E-06
   1     10    11.813    20.169    0.11E-03    0.17E-03    0.11E-05
   1     10    11.813    14.454    0.11E-03    0.17E-03    0.11E-05
 Optimization of the real space projectors (new method)

 maximal supplied QI-value         = 25.13
 optimisation between [QCUT,QGAM] = [ 11.81, 23.88] = [ 39.08,159.64] Ry 
 Optimized for a Real-space Cutoff    1.18 Angstroem

   l    n(q)    QCUT    max X(q) W(low)/X(q) W(high)/X(q)  e(spline) 
   0      8    11.813   115.676    0.10E-03    0.16E-03    0.35E-06
   0      8    11.813    87.132    0.10E-03    0.16E-03    0.35E-06
   1      8    11.813     4.429    0.16E-03    0.13E-04    0.22E-06
   1      8    11.813     2.733    0.13E-03    0.10E-04    0.18E-06
 Optimization of the real space projectors (new method)

 maximal supplied QI-value         = 24.76
 optimisation between [QCUT,QGAM] = [ 11.88, 24.01] = [ 39.54,161.47] Ry 
 Optimized for a Real-space Cutoff    1.18 Angstroem

   l    n(q)    QCUT    max X(q) W(low)/X(q) W(high)/X(q)  e(spline) 
   0      8    11.883    14.049    0.56E-04    0.86E-04    0.22E-06
   0      8    11.883     8.945    0.81E-04    0.11E-03    0.30E-06
   1      8    11.883     7.086    0.16E-03    0.15E-04    0.31E-06
   1      8    11.883     6.747    0.15E-03    0.14E-04    0.28E-06
 Optimization of the real space projectors (new method)

 maximal supplied QI-value         = 24.76
 optimisation between [QCUT,QGAM] = [ 11.88, 24.01] = [ 39.54,161.47] Ry 
 Optimized for a Real-space Cutoff    1.18 Angstroem

   l    n(q)    QCUT    max X(q) W(low)/X(q) W(high)/X(q)  e(spline) 
   0      8    11.883    20.381    0.86E-04    0.11E-03    0.31E-06
   0      8    11.883    15.268    0.94E-04    0.12E-03    0.33E-06
   1      8    11.883     5.964    0.19E-03    0.18E-04    0.33E-06
   1      8    11.883     5.382    0.17E-03    0.20E-04    0.29E-06
  PAW_PBE B 06Sep2000                   :
 energy of atom  1       EATOM=  -71.1703
 kinetic energy error for atom=    0.0009 (will be added to EATOM!!)
  PAW_PBE N 08Apr2002                   :
 energy of atom  2       EATOM= -264.5486
 kinetic energy error for atom=    0.0116 (will be added to EATOM!!)
  PAW_PBE C 08Apr2002                   :
 energy of atom  3       EATOM= -147.1560
 kinetic energy error for atom=    0.0066 (will be added to EATOM!!)
  PAW_PBE F 08Apr2002                   :
 energy of atom  4       EATOM= -659.6475
 kinetic energy error for atom=    0.0296 (will be added to EATOM!!)
  PAW_PBE O 08Apr2002                   :
 energy of atom  5       EATOM= -432.3788
 kinetic energy error for atom=    0.0194 (will be added to EATOM!!)
 
 
 POSCAR: B N C F O                               
  positions in direct lattice
  velocities in cartesian coordinates

 METAGGA = SCAN     LMAXTAU =  6    LMIXTAU =  F

 exchange correlation table for  LEXCH =        8
   RHO(1)=    0.500       N(1)  =     2000
   RHO(2)=  100.500       N(2)  =     4000
 


--------------------------------------------------------------------------------------------------------


 ion  position               nearest neighbor table
   1  0.167  0.084  0.502-  17 1.45  21 1.45  20 1.45
   2  0.167  0.333  0.502-  17 1.45  18 1.45  22 1.45
   3  0.166  0.583  0.502-  19 1.45  18 1.45  23 1.45
   4  0.167  0.833  0.502-  20 1.45  19 1.45  24 1.45
   5  0.417  0.083  0.502-  21 1.45  25 1.45  24 1.45
   6  0.417  0.333  0.502-  21 1.45  22 1.45  26 1.45
   7  0.417  0.583  0.502-  22 1.45  23 1.45  27 1.45
   8  0.417  0.833  0.502-  28 1.45  24 1.45  23 1.45
   9  0.667  0.083  0.502-  29 1.45  25 1.45  28 1.45
  10  0.667  0.333  0.502-  30 1.45  25 1.45  26 1.45
  11  0.667  0.584  0.502-  31 1.45  27 1.45  26 1.45
  12  0.667  0.834  0.502-  32 1.45  28 1.45  27 1.45
  13  0.917  0.084  0.502-  29 1.45  32 1.45  17 1.45
  14  0.917  0.333  0.502-  18 1.45  29 1.45  30 1.45
  15  0.917  0.583  0.502-  19 1.45  30 1.45  31 1.45
  16  0.917  0.834  0.502-  20 1.45  32 1.45  31 1.45
  17  0.083  0.167  0.502-   2 1.45   1 1.45  13 1.45
  18  0.083  0.417  0.502-   3 1.45  14 1.45   2 1.45
  19  0.083  0.667  0.502-   3 1.45  15 1.45   4 1.45
  20  0.083  0.917  0.502-  16 1.45   4 1.45   1 1.45
  21  0.333  0.167  0.502-   6 1.45   5 1.45   1 1.45
  22  0.333  0.417  0.502-   7 1.45   6 1.45   2 1.45
  23  0.333  0.667  0.502-   7 1.45   8 1.45   3 1.45
  24  0.333  0.917  0.502-   8 1.45   4 1.45   5 1.45
  25  0.583  0.167  0.502-   5 1.45   9 1.45  10 1.45
  26  0.583  0.417  0.502-   6 1.45  10 1.45  11 1.45
  27  0.583  0.667  0.502-   7 1.45  11 1.45  12 1.45
  28  0.583  0.917  0.502-   8 1.45  12 1.45   9 1.45
  29  0.833  0.167  0.502-   9 1.45  13 1.45  14 1.45
  30  0.833  0.417  0.502-  10 1.45  14 1.45  15 1.45
  31  0.833  0.667  0.502-  11 1.45  15 1.45  16 1.45
  32  0.833  0.917  0.502-  12 1.45  16 1.45  13 1.45
  33  0.564  0.447  0.653-  36 1.34  38 1.34  37 1.35  34 1.51
  34  0.547  0.398  0.612-  40 1.33  39 1.33  33 1.51
  35  0.472  0.787  0.606-  42 1.16  41 1.17
  36  0.699  0.577  0.659-  33 1.34
  37  0.560  0.340  0.677-  33 1.35
  38  0.450  0.473  0.663-  33 1.34
  39  0.662  0.382  0.599-  34 1.33
  40  0.411  0.278  0.604-  34 1.33
  41  0.603  0.868  0.602-  35 1.17
  42  0.340  0.707  0.611-  35 1.16
 

IMPORTANT INFORMATION: All symmetrisations will be switched off!
NOSYMM: (Re-)initialisation of all symmetry stuff for point group C_1.

 
 
 KPOINTS: K-Point Grid                            

Automatic generation of k-mesh.
Space group operators:
 irot       det(A)        alpha          n_x          n_y          n_z        tau_x        tau_y        tau_z
    1     1.000000     0.000000     1.000000     0.000000     0.000000     0.000000     0.000000     0.000000
 
 Subroutine IBZKPT returns following result:
 ===========================================
 
 Found     24 irreducible k-points:
 
 Following reciprocal coordinates:
            Coordinates               Weight
  0.125000  0.125000  0.000000     16.000000
  0.250000 -0.125000  0.000000     16.000000
  0.125000 -0.250000  0.000000     16.000000
  0.375000  0.125000  0.000000     16.000000
  0.500000 -0.375000  0.000000     16.000000
  0.125000  0.500000  0.000000     16.000000
 -0.125000 -0.375000  0.000000     16.000000
  0.375000  0.500000  0.000000     16.000000
  0.500000 -0.125000  0.000000     16.000000
 -0.375000  0.125000  0.000000     16.000000
 -0.250000  0.375000  0.000000     16.000000
  0.125000  0.250000  0.000000     16.000000
 -0.125000  0.375000  0.000000     16.000000
 -0.375000  0.250000  0.000000     16.000000
 -0.250000 -0.125000  0.000000     16.000000
 -0.125000  0.125000  0.000000     16.000000
  0.000000  0.125000  0.000000     16.000000
  0.125000  0.000000  0.000000     16.000000
  0.375000  0.375000  0.000000     16.000000
 -0.250000 -0.375000  0.000000     16.000000
  0.375000  0.250000  0.000000     16.000000
 -0.375000  0.375000  0.000000     16.000000
  0.000000  0.375000  0.000000     16.000000
  0.375000  0.000000  0.000000     16.000000
 
 Following cartesian coordinates:
            Coordinates               Weight
  0.024879  0.000000  0.000000     16.000000
  0.012439 -0.021546  0.000000     16.000000
 -0.012439 -0.021546  0.000000     16.000000
  0.049758 -0.014364  0.000000     16.000000
  0.012439 -0.050273  0.000000     16.000000
  0.062197  0.021546  0.000000     16.000000
 -0.049758 -0.014364  0.000000     16.000000
  0.087076  0.007182  0.000000     16.000000
  0.037318 -0.035909  0.000000     16.000000
 -0.024879  0.028727  0.000000     16.000000
  0.012439  0.035909  0.000000     16.000000
  0.037318  0.007182  0.000000     16.000000
  0.024879  0.028727  0.000000     16.000000
 -0.012439  0.035909  0.000000     16.000000
 -0.037318  0.007182  0.000000     16.000000
  0.000000  0.014364  0.000000     16.000000
  0.012439  0.007182  0.000000     16.000000
  0.012439 -0.007182  0.000000     16.000000
  0.074636  0.000000  0.000000     16.000000
 -0.062197 -0.007182  0.000000     16.000000
  0.062197 -0.007182  0.000000     16.000000
  0.000000  0.043091  0.000000     16.000000
  0.037318  0.021546  0.000000     16.000000
  0.037318 -0.021546  0.000000     16.000000
 


--------------------------------------------------------------------------------------------------------




 Dimension of arrays:
   k-points           NKPTS =     24   k-points in BZ     NKDIM =     24   number of bands    NBANDS=    144
   number of dos      NEDOS =   1200   number of ions     NIONS =     42
   non local maximal  LDIM  =      4   non local SUM 2l+1 LMDIM =      8
   total plane-waves  NPLWV = ******
   max r-space proj   IRMAX =   6598   max aug-charges    IRDMAX=   8974
   dimension x,y,z NGX =    80 NGY =   80 NGZ =  270
   dimension x,y,z NGXF=   160 NGYF=  160 NGZF=  540
   support grid    NGXF=   160 NGYF=  160 NGZF=  540
   ions per type =              16  16   3   5   2
   NGX,Y,Z   is equivalent  to a cutoff of  13.24, 13.24, 12.78 a.u.
   NGXF,Y,Z  is equivalent  to a cutoff of  26.47, 26.47, 25.57 a.u.

 SYSTEM =  SiC                                     
 POSCAR =  B N C F O                               

 Startparameter for this run:
   NWRITE =      2    write-flag & timer
   PREC   = accura    normal or accurate (medium, high low for compatibility)
   ISTART =      1    job   : 0-new  1-cont  2-samecut
   ICHARG =      0    charge: 1-file 2-atom 10-const
   ISPIN  =      2    spin polarized calculation?
   LNONCOLLINEAR =      F non collinear calculations
   LSORBIT =      F    spin-orbit coupling
   INIWAV =      1    electr: 0-lowe 1-rand  2-diag
   LASPH  =      T    aspherical Exc in radial PAW
   METAGGA=      F    non-selfconsistent MetaGGA calc.

 Electronic Relaxation 1
   ENCUT  =  550.0 eV  40.42 Ry    6.36 a.u.  19.22 19.22 67.15*2*pi/ulx,y,z
   ENINI  =  550.0     initial cutoff
   ENAUG  =  644.9 eV  augmentation charge cutoff
   NELM   =    100;   NELMIN=  2; NELMDL=  0     # of ELM steps 
   EDIFF  = 0.1E-04   stopping-criterion for ELM
   LREAL  =      T    real-space projection
   NLSPLINE    = F    spline interpolate recip. space projectors
   LCOMPAT=      F    compatible to vasp.4.4
   GGA_COMPAT  = T    GGA compatible to vasp.4.4-vasp.4.6
   LMAXPAW     = -100 max onsite density
   LMAXMIX     =    2 max onsite mixed and CHGCAR
   VOSKOWN=      0    Vosko Wilk Nusair interpolation
   ROPT   =   -0.00025  -0.00025  -0.00025  -0.00025
   ROPT   =   -0.00025
 Ionic relaxation
   EDIFFG = -.2E-01   stopping-criterion for IOM
   NSW    =    500    number of steps for IOM
   NBLOCK =      1;   KBLOCK =    500    inner block; outer block 
   IBRION =      2    ionic relax: 0-MD 1-quasi-New 2-CG
   NFREE  =      1    steps in history (QN), initial steepest desc. (CG)
   ISIF   =      2    stress and relaxation
   IWAVPR =     11    prediction:  0-non 1-charg 2-wave 3-comb
   ISYM   =      0    0-nonsym 1-usesym 2-fastsym
   LCORR  =      T    Harris-Foulkes like correction to forces

   POTIM  = 0.5000    time-step for ionic-motion
   TEIN   =    0.0    initial temperature
   TEBEG  =    0.0;   TEEND  =   0.0 temperature during run
   SMASS  =  -3.00    Nose mass-parameter (am)
   estimated Nose-frequenzy (Omega)   =  0.10E-29 period in steps =****** mass=  -0.231E-26a.u.
   SCALEE = 1.0000    scale energy and forces
   NPACO  =    256;   APACO  = 16.0  distance and # of slots for P.C.
   PSTRESS=    0.0 pullay stress

  Mass of Ions in am
   POMASS =  10.81 14.00 12.01 19.00 16.00
  Ionic Valenz
   ZVAL   =   3.00  5.00  4.00  7.00  6.00
  Atomic Wigner-Seitz radii
   RWIGS  =  -1.00 -1.00 -1.00 -1.00 -1.00
  virtual crystal weights 
   VCA    =   1.00  1.00  1.00  1.00  1.00
   NELECT =     187.0000    total number of electrons
   NUPDOWN=      -1.0000    fix difference up-down

 DOS related values:
   EMIN   =  10.00;   EMAX   =-10.00  energy-range for DOS
   EFERMI =   0.00
   ISMEAR =     0;   SIGMA  =   0.05  broadening in eV -4-tet -1-fermi 0-gaus

 Electronic relaxation 2 (details)
   IALGO  =     68    algorithm
   LDIAG  =      T    sub-space diagonalisation (order eigenvalues)
   LSUBROT=      F    optimize rotation matrix (better conditioning)
   TURBO    =      0    0=normal 1=particle mesh
   IRESTART =      0    0=no restart 2=restart with 2 vectors
   NREBOOT  =      0    no. of reboots
   NMIN     =      0    reboot dimension
   EREF     =   0.00    reference energy to select bands
   IMIX   =      4    mixing-type and parameters
     AMIX     =   0.40;   BMIX     =  1.00
     AMIX_MAG =   1.60;   BMIX_MAG =  1.00
     AMIN     =   0.10
     WC   =   100.;   INIMIX=   1;  MIXPRE=   1;  MAXMIX= -45

 Intra band minimization:
   WEIMIN = 0.0010     energy-eigenvalue tresh-hold
   EBREAK =  0.17E-07  absolut break condition
   DEPER  =   0.30     relativ break condition  

   TIME   =   0.40     timestep for ELM

  volume/ion in A,a.u.               =      73.11       493.39
  Fermi-wavevector in a.u.,A,eV,Ry     =   0.644081  1.217137  5.644253  0.414841
  Thomas-Fermi vector in A             =   1.711293
 
 Write flags
   LWAVE        =      T    write WAVECAR
   LDOWNSAMPLE  =      F    k-point downsampling of WAVECAR
   LCHARG       =      F    write CHGCAR
   LVTOT        =      F    write LOCPOT, total local potential
   LVHAR        =      T    write LOCPOT, Hartree potential only
   LELF         =      F    write electronic localiz. function (ELF)
   LORBIT       =     11    0 simple, 1 ext, 2 COOP (PROOUT), +10 PAW based schemes


 Dipole corrections
   LMONO  =      F    monopole corrections only (constant potential shift)
   LDIPOL =      F    correct potential (dipole corrections)
   IDIPOL =      0    1-x, 2-y, 3-z, 4-all directions 
   EPSILON=  1.0000000 bulk dielectric constant

 Exchange correlation treatment:
   GGA     =    --    GGA type
   LEXCH   =     8    internal setting for exchange type
   VOSKOWN=      0    Vosko Wilk Nusair interpolation
   LHFCALC =     F    Hartree Fock is set to
   LHFONE  =     F    Hartree Fock one center treatment
   AEXX    =    0.0000 exact exchange contribution

 Linear response parameters
   LEPSILON=     F    determine dielectric tensor
   LRPA    =     F    only Hartree local field effects (RPA)
   LNABLA  =     F    use nabla operator in PAW spheres
   LVEL    =     F    velocity operator in full k-point grid
   LINTERFAST=   F  fast interpolation
   KINTER  =     0    interpolate to denser k-point grid
   CSHIFT  =0.1000    complex shift for real part using Kramers Kronig
   OMEGAMAX=  -1.0    maximum frequency
   DEG_THRESHOLD= 0.2000000E-02 threshold for treating states as degnerate
   RTIME   =   -0.100 relaxation time in fs
  (WPLASMAI=    0.000 imaginary part of plasma frequency in eV, 0.658/RTIME)
   DFIELD  = 0.0000000 0.0000000 0.0000000 field for delta impulse in time
 
 Orbital magnetization related:
   ORBITALMAG=     F  switch on orbital magnetization
   LCHIMAG   =     F  perturbation theory with respect to B field
   DQ        =  0.001000  dq finite difference perturbation B field
   LLRAUG    =     F  two centre corrections for induced B field

 Solvation model:
   LSOL    =     T         switch on solvation model
   EB_K    = 78.400000     relative permittivity of the bulk solvent
   SIGMA_K =  0.600000     width of the dielectric cavity
   NC_K    =  0.002500     cutoff charge density
   TAU     =  0.000000     cavity surface tension
   LAMBDA_D_K    =  3.040000     Debye length in Angstroms
   LRHOB     =     F     write boundcharge  density
   LRHOION     =     F     write ioniccharge density



--------------------------------------------------------------------------------------------------------


 conjugate gradient relaxation of ions
   using selective dynamics as specified on POSCAR
 charge density and potential will be updated during run
 spin polarized calculation
 RMM-DIIS sequential band-by-band and
  variant of blocked Davidson during initial phase
 perform sub-space diagonalisation
    before iterative eigenvector-optimisation
 modified Broyden-mixing scheme, WC =      100.0
 initial mixing is a Kerker type mixing with AMIX =  0.4000 and BMIX =      1.0000
 Hartree-type preconditioning will be used
 using additional bands           50
 real space projection scheme for non local part
 use partial core corrections
 calculate Harris-corrections to forces 
   (improved forces if not selfconsistent)
 use gradient corrections 
 use of overlap-Matrix (Vanderbilt PP)
 Gauss-broadening in eV      SIGMA  =   0.05


--------------------------------------------------------------------------------------------------------


  energy-cutoff  :      550.00
  volume of cell :     3070.74
      direct lattice vectors                 reciprocal lattice vectors
     5.024366704 -8.702497373  0.000000000     0.099515029 -0.057454772  0.000000000
     5.024366704  8.702497373  0.000000000     0.099515029  0.057454772  0.000000000
     0.000000000  0.000000000 35.114664386     0.000000000  0.000000000  0.028478131

  length of vectors
    10.048767154 10.048767154 35.114664386     0.114909929  0.114909929  0.028478131


 
 old parameters found on file WAVECAR:
  energy-cutoff  :      550.00
  volume of cell :     3070.74
      direct lattice vectors                 reciprocal lattice vectors
     5.024366704 -8.702497373  0.000000000     0.099515029 -0.057454772  0.000000000
     5.024366704  8.702497373  0.000000000     0.099515029  0.057454772  0.000000000
     0.000000000  0.000000000 35.114664386     0.000000000  0.000000000  0.028478131

  length of vectors

 
 k-points in units of 2pi/SCALE and weight: K-Point Grid                            
   0.02487876  0.00000000  0.00000000       0.042
   0.01243938 -0.02154554  0.00000000       0.042
  -0.01243938 -0.02154554  0.00000000       0.042
   0.04975751 -0.01436369  0.00000000       0.042
   0.01243938 -0.05027293  0.00000000       0.042
   0.06219689  0.02154554  0.00000000       0.042
  -0.04975751 -0.01436369  0.00000000       0.042
   0.08707565  0.00718185  0.00000000       0.042
   0.03731814 -0.03590923  0.00000000       0.042
  -0.02487876  0.02872739  0.00000000       0.042
   0.01243938  0.03590923  0.00000000       0.042
   0.03731814  0.00718185  0.00000000       0.042
   0.02487876  0.02872739  0.00000000       0.042
  -0.01243938  0.03590923  0.00000000       0.042
  -0.03731814  0.00718185  0.00000000       0.042
   0.00000000  0.01436369  0.00000000       0.042
   0.01243938  0.00718185  0.00000000       0.042
   0.01243938 -0.00718185  0.00000000       0.042
   0.07463627  0.00000000  0.00000000       0.042
  -0.06219689 -0.00718185  0.00000000       0.042
   0.06219689 -0.00718185  0.00000000       0.042
   0.00000000  0.04309108  0.00000000       0.042
   0.03731814  0.02154554  0.00000000       0.042
   0.03731814 -0.02154554  0.00000000       0.042
 
 k-points in reciprocal lattice and weights: K-Point Grid                            
   0.12500000  0.12500000  0.00000000       0.042
   0.25000000 -0.12500000  0.00000000       0.042
   0.12500000 -0.25000000  0.00000000       0.042
   0.37500000  0.12500000  0.00000000       0.042
   0.50000000 -0.37500000  0.00000000       0.042
   0.12500000  0.50000000  0.00000000       0.042
  -0.12500000 -0.37500000  0.00000000       0.042
   0.37500000  0.50000000  0.00000000       0.042
   0.50000000 -0.12500000  0.00000000       0.042
  -0.37500000  0.12500000  0.00000000       0.042
  -0.25000000  0.37500000  0.00000000       0.042
   0.12500000  0.25000000  0.00000000       0.042
  -0.12500000  0.37500000  0.00000000       0.042
  -0.37500000  0.25000000  0.00000000       0.042
  -0.25000000 -0.12500000  0.00000000       0.042
  -0.12500000  0.12500000  0.00000000       0.042
   0.00000000  0.12500000  0.00000000       0.042
   0.12500000  0.00000000  0.00000000       0.042
   0.37500000  0.37500000  0.00000000       0.042
  -0.25000000 -0.37500000  0.00000000       0.042
   0.37500000  0.25000000  0.00000000       0.042
  -0.37500000  0.37500000  0.00000000       0.042
   0.00000000  0.37500000  0.00000000       0.042
   0.37500000  0.00000000  0.00000000       0.042
 
 position of ions in fractional coordinates (direct lattice) 
   0.16662155  0.08352707  0.50213824
   0.16657951  0.33348134  0.50217007
   0.16649808  0.58341401  0.50212786
   0.16652641  0.83344568  0.50211220
   0.41655561  0.08345426  0.50208835
   0.41659497  0.33346182  0.50209906
   0.41659382  0.58345747  0.50210205
   0.41652915  0.83344695  0.50193434
   0.66653998  0.08343451  0.50207810
   0.66659190  0.33345454  0.50218038
   0.66666752  0.58355504  0.50218008
   0.66662570  0.83355799  0.50208552
   0.91658324  0.08352031  0.50211450
   0.91653973  0.33344067  0.50214794
   0.91656825  0.58347511  0.50215125
   0.91663181  0.83357347  0.50213634
   0.08327404  0.16683570  0.50215954
   0.08320214  0.41677279  0.50217789
   0.08322578  0.66677633  0.50216384
   0.08327001  0.91684555  0.50214564
   0.33328428  0.16683134  0.50205720
   0.33328821  0.41681152  0.50214666
   0.33321457  0.66674515  0.50202277
   0.33319960  0.91677009  0.50202167
   0.58320757  0.16677200  0.50217308
   0.58326668  0.41683332  0.50223702
   0.58326948  0.66684904  0.50219194
   0.58317642  0.91675807  0.50196764
   0.83318214  0.16677585  0.50208203
   0.83321667  0.41679554  0.50212793
   0.83327696  0.66686599  0.50211992
   0.83325079  0.91685262  0.50210291
   0.56448760  0.44725466  0.65342048
   0.54721411  0.39804507  0.61226161
   0.47182738  0.78732626  0.60638350
   0.69943576  0.57656293  0.65861886
   0.56009846  0.33950865  0.67733552
   0.45022294  0.47271029  0.66338707
   0.66180058  0.38153966  0.59903970
   0.41121562  0.27819852  0.60382751
   0.60346675  0.86786087  0.60191614
   0.34046935  0.70663273  0.61060836
 
 position of ions in cartesian coordinates  (Angst):
   1.25683840 -0.72312957 17.63241584
   2.51248909  1.45246270 17.63353354
   3.76783331  3.62820979 17.63205142
   5.02422648  5.80386322 17.63150123
   2.51223291 -2.89881365 17.63066383
   3.76856039 -0.72346605 17.63104012
   5.02462439  1.45213051 17.63114510
   6.28033830  3.62822610 17.62525603
   3.76814686 -5.07447375 17.63030396
   5.02460003 -2.89912701 17.63389565
   6.28157662 -0.72328610 17.63388481
   7.53747295  1.45272779 17.63056456
   5.02488701 -7.24972795 17.63158215
   6.28035990 -5.07441811 17.63275649
   7.53676791 -2.89874214 17.63287255
   8.79367316 -0.72281497 17.63234895
   1.25664301  0.72719512 17.63316361
   2.51205740  2.90289777 17.63380822
   3.76828562  5.07834711 17.63331470
   5.02494731  7.25418889 17.63267550
   2.51276424 -1.44855630 17.62956994
   3.76877610  0.72686141 17.63271141
   5.02416433  2.90254896 17.62836104
   6.28030610  5.07852060 17.62832250
   3.76817240 -3.62402946 17.63363917
   5.02486910 -1.44838587 17.63588422
   6.28105390  0.72735091 17.63430134
   7.53622093  2.90299347 17.62642531
   5.02415567 -5.79939899 17.63044187
   6.28051972 -3.62390371 17.63205388
   7.53726833 -1.44819102 17.63177242
   8.79316132  0.72754476 17.63117515
   5.08336414 -1.02021931 22.94464103
   4.74932878 -1.29814314 21.49936103
   6.32644964  2.74562816 21.29295317
   6.41108531 -1.06930051 23.12718021
   4.51995600 -1.91968223 23.78440936
   4.63715500  0.19569613 23.29461435
   5.24212400 -2.43896994 21.03507809
   3.46386944 -1.15758093 21.20320025
   7.39248953  2.30088910 21.13608327
   5.26102480  3.18653582 21.44130762
 


--------------------------------------------------------------------------------------------------------


 k-point  1 :   0.1250 0.1250 0.0000  plane waves:   89921
 k-point  2 :   0.2500-0.1250 0.0000  plane waves:   89921
 k-point  3 :   0.1250-0.2500 0.0000  plane waves:   89921
 k-point  4 :   0.3750 0.1250 0.0000  plane waves:   89970
 k-point  5 :   0.5000-0.3750 0.0000  plane waves:   89970
 k-point  6 :   0.1250 0.5000 0.0000  plane waves:   89970
 k-point  7 :  -0.1250-0.3750 0.0000  plane waves:   89970
 k-point  8 :   0.3750 0.5000 0.0000  plane waves:   89970
 k-point  9 :   0.5000-0.1250 0.0000  plane waves:   89970
 k-point 10 :  -0.3750 0.1250 0.0000  plane waves:   89943
 k-point 11 :  -0.2500 0.3750 0.0000  plane waves:   89943
 k-point 12 :   0.1250 0.2500 0.0000  plane waves:   89943
 k-point 13 :  -0.1250 0.3750 0.0000  plane waves:   89943
 k-point 14 :  -0.3750 0.2500 0.0000  plane waves:   89943
 k-point 15 :  -0.2500-0.1250 0.0000  plane waves:   89943
 k-point 16 :  -0.1250 0.1250 0.0000  plane waves:   89893
 k-point 17 :   0.0000 0.1250 0.0000  plane waves:   89893
 k-point 18 :   0.1250 0.0000 0.0000  plane waves:   89893
 k-point 19 :   0.3750 0.3750 0.0000  plane waves:   89957
 k-point 20 :  -0.2500-0.3750 0.0000  plane waves:   89957
 k-point 21 :   0.3750 0.2500 0.0000  plane waves:   89957
 k-point 22 :  -0.3750 0.3750 0.0000  plane waves:   89980
 k-point 23 :   0.0000 0.3750 0.0000  plane waves:   89980
 k-point 24 :   0.3750 0.0000 0.0000  plane waves:   89980

 maximum and minimum number of plane-waves per node :     89980    89893

 maximum number of plane-waves:     89980
 maximum index in each direction: 
   IXMAX=   19   IYMAX=   19   IZMAX=   67
   IXMIN=  -19   IYMIN=  -19   IZMIN=  -67


 serial   3D FFT for wavefunctions
 parallel 3D FFT for charge:
    minimum data exchange during FFTs selected (reduces bandwidth)


 total amount of memory used by VASP MPI-rank0  1323169. kBytes
=======================================================================

   base      :      30000. kBytes
   nonlr-proj:      18683. kBytes
   fftplans  :      47149. kBytes
   grid      :     394654. kBytes
   one-center:        258. kBytes
   wavefun   :     832425. kBytes
 
     INWAV:  cpu time   23.0706: real time   23.5080
 Broyden mixing: mesh for mixing (old mesh)
   NGX = 39   NGY = 39   NGZ =135
  (NGX  =160   NGY  =160   NGZ  =540)
  gives a total of 205335 points

 charge density for first step will be calculated from the start-wavefunctions


--------------------------------------------------------------------------------------------------------


 Maximum index for non-local projection operator         6368
 Maximum index for augmentation-charges          741 (set IRDMAX)


--------------------------------------------------------------------------------------------------------


 initial charge from wavefunction
 First call to EWALD:  gamma=   0.122
 Maximum number of real-space cells 4x 4x 1
 Maximum number of reciprocal cells 2x 2x 6

    FEWALD:  cpu time    0.0311: real time    0.0290


--------------------------------------- Iteration      1(   1)  ---------------------------------------


    POTLOK:  cpu time   55.8829: real time   55.9572
    SETDIJ:  cpu time    0.7362: real time    0.4824
     EDDAV:  cpu time  310.9234: real time  171.5605
       DOS:  cpu time    0.0906: real time    0.0859
    CHARGE:  cpu time   33.2241: real time   32.3483
    MIXING:  cpu time    0.1442: real time    0.0896
    --------------------------------------------
      LOOP:  cpu time  401.0015: real time  260.5240

 eigenvalue-minimisations  : 13212
 total energy-change (2. order) :-0.3874444E+03  (-0.1551343E-05)
 number of electron     186.9999985 magnetization       1.0000000
 augmentation part       11.5342530 magnetization       0.1188172

 Broyden mixing:
  rms(total) = 0.34484E-03    rms(broyden)= 0.34464E-03
  rms(prec ) = 0.35559E-03
  weight for this iteration     100.00

 Free energy of the ion-electron system (eV)
  ---------------------------------------------------
  alpha Z        PSCENC =        57.55240194
  Ewald energy   TEWEN  =     64922.35702295
  -Hartree energ DENC   =    -73520.67241659
  -exchange      EXHF   =         0.00000000
  -V(xc)+E(xc)   XCENC  =       896.41825936
  PAW double counting   =     21165.29277418   -21261.64970043
  entropy T*S    EENTRO =        -0.00000000
  eigenvalues    EBANDS =     -2807.91614154
  atomic energy  EATOM  =      9975.55785330
  Solvation  Ediel_sol  =       185.61551954
  ---------------------------------------------------
  free energy    TOTEN  =      -387.44442729 eV

  energy without entropy =     -387.44442729  energy(sigma->0) =     -387.44442729


--------------------------------------------------------------------------------------------------------




--------------------------------------- Iteration      1(   2)  ---------------------------------------


    POTLOK:  cpu time   35.3494: real time   35.4586
    SETDIJ:  cpu time    1.2098: real time    0.8171
    EDDIAG:  cpu time   55.8814: real time   40.7044
  RMM-DIIS:  cpu time  301.2661: real time  184.3189
    ORTHCH:  cpu time    1.5613: real time    0.7837
       DOS:  cpu time    0.0213: real time    0.0107
    --------------------------------------------
      LOOP:  cpu time  395.2894: real time  262.0934

 eigenvalue-minimisations  :  9331
 total energy-change (2. order) :-0.3369645E-05  (-0.3128115E-06)
 number of electron     186.9999985 magnetization       1.0000000
 augmentation part       11.5342530 magnetization       0.1188172

 Free energy of the ion-electron system (eV)
  ---------------------------------------------------
  alpha Z        PSCENC =        57.55240194
  Ewald energy   TEWEN  =     64922.35702295
  -Hartree energ DENC   =    -73520.67672647
  -exchange      EXHF   =         0.00000000
  -V(xc)+E(xc)   XCENC  =       896.41834805
  PAW double counting   =     21165.29392579   -21261.65089855
  entropy T*S    EENTRO =        -0.00000000
  eigenvalues    EBANDS =     -2807.91638996
  atomic energy  EATOM  =      9975.55785330
  Solvation  Ediel_sol  =       185.62003229
  ---------------------------------------------------
  free energy    TOTEN  =      -387.44443066 eV

  energy without entropy =     -387.44443066  energy(sigma->0) =     -387.44443066


--------------------------------------------------------------------------------------------------------




 average (electrostatic) potential at core
  the test charge radii are     0.7672  0.7089  0.6991  0.7167  0.7215
  (the norm of the test charge is              1.0000)
       1 -38.5908       2 -38.5936       3 -38.5948       4 -38.5923       5 -38.5944
       6 -38.5974       7 -38.6018       8 -38.5982       9 -38.5921      10 -38.5953
      11 -38.5996      12 -38.5949      13 -38.5899      14 -38.5905      15 -38.5923
      16 -38.5914      17 -76.1405      18 -76.1425      19 -76.1431      20 -76.1403
      21 -76.1452      22 -76.1519      23 -76.1553      24 -76.1472      25 -76.1473
      26 -76.1558      27 -76.1555      28 -76.1453      29 -76.1405      30 -76.1427
      31 -76.1450      32 -76.1420      33 -67.7294      34 -65.7733      35 -65.9845
      36 -92.1020      37 -91.9775      38 -92.1047      39 -92.3105      40 -92.3115
      41 -86.5896      42 -86.6205
 
 
 
 E-fermi :  -5.9423     XC(G=0):  -1.6192     alpha+bet : -1.2828


 spin component 1

 k-point     1 :       0.1250    0.1250    0.0000
  band No.  band energies     occupation 
      1     -35.8417      1.00000
      2     -35.1125      1.00000
      3     -33.7634      1.00000
      4     -33.4384      1.00000
      5     -33.3589      1.00000
      6     -30.9038      1.00000
      7     -29.9019      1.00000
      8     -24.7680      1.00000
      9     -24.0120      1.00000
     10     -24.0109      1.00000
     11     -23.5830      1.00000
     12     -23.5826      1.00000
     13     -23.1810      1.00000
     14     -23.1799      1.00000
     15     -22.3313      1.00000
     16     -22.0376      1.00000
     17     -22.0369      1.00000
     18     -21.7941      1.00000
     19     -21.7938      1.00000
     20     -21.6433      1.00000
     21     -21.5673      1.00000
     22     -21.5666      1.00000
     23     -21.3755      1.00000
     24     -21.1266      1.00000
     25     -18.0887      1.00000
     26     -16.4590      1.00000
     27     -16.3000      1.00000
     28     -16.1060      1.00000
     29     -15.3781      1.00000
     30     -15.3337      1.00000
     31     -15.1742      1.00000
     32     -15.1730      1.00000
     33     -14.4833      1.00000
     34     -14.4389      1.00000
     35     -14.4381      1.00000
     36     -14.3711      1.00000
     37     -14.2957      1.00000
     38     -13.9598      1.00000
     39     -13.9591      1.00000
     40     -13.4213      1.00000
     41     -13.3116      1.00000
     42     -13.1145      1.00000
     43     -13.0929      1.00000
     44     -12.9230      1.00000
     45     -12.8946      1.00000
     46     -12.5398      1.00000
     47     -12.5359      1.00000
     48     -12.5339      1.00000
     49     -12.4678      1.00000
     50     -12.3524      1.00000
     51     -12.3515      1.00000
     52     -12.2494      1.00000
     53     -11.8348      1.00000
     54     -11.6789      1.00000
     55     -11.6781      1.00000
     56     -11.5104      1.00000
     57     -11.5048      1.00000
     58     -11.5046      1.00000
     59     -11.4945      1.00000
     60     -11.4303      1.00000
     61     -11.3113      1.00000
     62     -10.9484      1.00000
     63     -10.8425      1.00000
     64     -10.6629      1.00000
     65     -10.4413      1.00000
     66     -10.4404      1.00000
     67     -10.4172      1.00000
     68     -10.4160      1.00000
     69     -10.4125      1.00000
     70     -10.4032      1.00000
     71      -9.8289      1.00000
     72      -9.8240      1.00000
     73      -9.6490      1.00000
     74      -9.6478      1.00000
     75      -9.4865      1.00000
     76      -9.4652      1.00000
     77      -9.4094      1.00000
     78      -9.4087      1.00000
     79      -9.2673      1.00000
     80      -9.2468      1.00000
     81      -8.8319      1.00000
     82      -8.8304      1.00000
     83      -8.0672      1.00000
     84      -7.7871      1.00000
     85      -7.6518      1.00000
     86      -7.6365      1.00000
     87      -7.6351      1.00000
     88      -7.2491      1.00000
     89      -7.2465      1.00000
     90      -7.0120      1.00000
     91      -6.9215      1.00000
     92      -6.9180      1.00000
     93      -6.8432      1.00000
     94      -6.6138      1.00000
     95      -1.0096      0.00000
     96      -0.7813      0.00000
     97      -0.5660      0.00000
     98      -0.5338      0.00000
     99      -0.4792      0.00000
    100      -0.3472      0.00000
    101      -0.2739      0.00000
    102      -0.2525      0.00000
    103      -0.1190      0.00000
    104       0.0410      0.00000
    105       0.0879      0.00000
    106       0.0952      0.00000
    107       0.1181      0.00000
    108       0.1708      0.00000
    109       0.2104      0.00000
    110       0.4976      0.00000
    111       0.5100      0.00000
    112       0.5632      0.00000
    113       0.6806      0.00000
    114       0.7247      0.00000
    115       0.8758      0.00000
    116       0.9405      0.00000
    117       1.0205      0.00000
    118       1.0593      0.00000
    119       1.1110      0.00000
    120       1.1201      0.00000
    121       1.1407      0.00000
    122       1.2840      0.00000
    123       1.3410      0.00000
    124       1.4292      0.00000
    125       1.4506      0.00000
    126       1.4824      0.00000
    127       1.6131      0.00000
    128       1.6235      0.00000
    129       1.7026      0.00000
    130       1.7762      0.00000
    131       1.8106      0.00000
    132       1.8617      0.00000
    133       1.8682      0.00000
    134       1.9006      0.00000
    135       1.9285      0.00000
    136       1.9484      0.00000
    137       1.9718      0.00000
    138       2.0394      0.00000
    139       2.0546      0.00000
    140       2.1195      0.00000
    141       2.1509      0.00000
    142       2.1739      0.00000
    143       2.2026      0.00000
    144       2.3241      0.00000

 k-point     2 :       0.2500   -0.1250    0.0000
  band No.  band energies     occupation 
      1     -35.8417      1.00000
      2     -35.1125      1.00000
      3     -33.7634      1.00000
      4     -33.4384      1.00000
      5     -33.3589      1.00000
      6     -30.9038      1.00000
      7     -29.9019      1.00000
      8     -24.7680      1.00000
      9     -24.0130      1.00000
     10     -24.0099      1.00000
     11     -23.5830      1.00000
     12     -23.5824      1.00000
     13     -23.1820      1.00000
     14     -23.1790      1.00000
     15     -22.3314      1.00000
     16     -22.0383      1.00000
     17     -22.0360      1.00000
     18     -21.7942      1.00000
     19     -21.7939      1.00000
     20     -21.6431      1.00000
     21     -21.5681      1.00000
     22     -21.5658      1.00000
     23     -21.3756      1.00000
     24     -21.1266      1.00000
     25     -18.0887      1.00000
     26     -16.4590      1.00000
     27     -16.3000      1.00000
     28     -16.1060      1.00000
     29     -15.3777      1.00000
     30     -15.3339      1.00000
     31     -15.1738      1.00000
     32     -15.1736      1.00000
     33     -14.4835      1.00000
     34     -14.4393      1.00000
     35     -14.4378      1.00000
     36     -14.3713      1.00000
     37     -14.2955      1.00000
     38     -13.9601      1.00000
     39     -13.9582      1.00000
     40     -13.4216      1.00000
     41     -13.3115      1.00000
     42     -13.1145      1.00000
     43     -13.0929      1.00000
     44     -12.9222      1.00000
     45     -12.8950      1.00000
     46     -12.5409      1.00000
     47     -12.5367      1.00000
     48     -12.5330      1.00000
     49     -12.4678      1.00000
     50     -12.3522      1.00000
     51     -12.3512      1.00000
     52     -12.2491      1.00000
     53     -11.8348      1.00000
     54     -11.6802      1.00000
     55     -11.6780      1.00000
     56     -11.5099      1.00000
     57     -11.5042      1.00000
     58     -11.5037      1.00000
     59     -11.4945      1.00000
     60     -11.4302      1.00000
     61     -11.3113      1.00000
     62     -10.9484      1.00000
     63     -10.8425      1.00000
     64     -10.6639      1.00000
     65     -10.4404      1.00000
     66     -10.4403      1.00000
     67     -10.4178      1.00000
     68     -10.4161      1.00000
     69     -10.4122      1.00000
     70     -10.4032      1.00000
     71      -9.8322      1.00000
     72      -9.8245      1.00000
     73      -9.6485      1.00000
     74      -9.6472      1.00000
     75      -9.4795      1.00000
     76      -9.4649      1.00000
     77      -9.4102      1.00000
     78      -9.4099      1.00000
     79      -9.2678      1.00000
     80      -9.2503      1.00000
     81      -8.8316      1.00000
     82      -8.8297      1.00000
     83      -8.0676      1.00000
     84      -7.7885      1.00000
     85      -7.6504      1.00000
     86      -7.6371      1.00000
     87      -7.6339      1.00000
     88      -7.2486      1.00000
     89      -7.2475      1.00000
     90      -7.0115      1.00000
     91      -6.9208      1.00000
     92      -6.9185      1.00000
     93      -6.8438      1.00000
     94      -6.6138      1.00000
     95      -1.0107      0.00000
     96      -0.7847      0.00000
     97      -0.5610      0.00000
     98      -0.5347      0.00000
     99      -0.4777      0.00000
    100      -0.3478      0.00000
    101      -0.2757      0.00000
    102      -0.2512      0.00000
    103      -0.1192      0.00000
    104       0.0403      0.00000
    105       0.0899      0.00000
    106       0.0920      0.00000
    107       0.1220      0.00000
    108       0.1843      0.00000
    109       0.2197      0.00000
    110       0.5003      0.00000
    111       0.5124      0.00000
    112       0.5557      0.00000
    113       0.6662      0.00000
    114       0.7175      0.00000
    115       0.8698      0.00000
    116       0.9149      0.00000
    117       1.0296      0.00000
    118       1.0601      0.00000
    119       1.1099      0.00000
    120       1.1236      0.00000
    121       1.1327      0.00000
    122       1.2955      0.00000
    123       1.3394      0.00000
    124       1.4295      0.00000
    125       1.4487      0.00000
    126       1.4713      0.00000
    127       1.6163      0.00000
    128       1.6396      0.00000
    129       1.7147      0.00000
    130       1.7666      0.00000
    131       1.8134      0.00000
    132       1.8602      0.00000
    133       1.8702      0.00000
    134       1.8995      0.00000
    135       1.9287      0.00000
    136       1.9513      0.00000
    137       1.9676      0.00000
    138       2.0301      0.00000
    139       2.0619      0.00000
    140       2.1201      0.00000
    141       2.1531      0.00000
    142       2.1782      0.00000
    143       2.2014      0.00000
    144       2.3249      0.00000

 k-point     3 :       0.1250   -0.2500    0.0000
  band No.  band energies     occupation 
      1     -35.8417      1.00000
      2     -35.1125      1.00000
      3     -33.7634      1.00000
      4     -33.4384      1.00000
      5     -33.3589      1.00000
      6     -30.9038      1.00000
      7     -29.9019      1.00000
      8     -24.7680      1.00000
      9     -24.0144      1.00000
     10     -24.0084      1.00000
     11     -23.5832      1.00000
     12     -23.5823      1.00000
     13     -23.1833      1.00000
     14     -23.1776      1.00000
     15     -22.3313      1.00000
     16     -22.0388      1.00000
     17     -22.0356      1.00000
     18     -21.7942      1.00000
     19     -21.7937      1.00000
     20     -21.6432      1.00000
     21     -21.5687      1.00000
     22     -21.5652      1.00000
     23     -21.3755      1.00000
     24     -21.1266      1.00000
     25     -18.0887      1.00000
     26     -16.4590      1.00000
     27     -16.3000      1.00000
     28     -16.1060      1.00000
     29     -15.3781      1.00000
     30     -15.3338      1.00000
     31     -15.1739      1.00000
     32     -15.1732      1.00000
     33     -14.4828      1.00000
     34     -14.4397      1.00000
     35     -14.4377      1.00000
     36     -14.3715      1.00000
     37     -14.2954      1.00000
     38     -13.9612      1.00000
     39     -13.9577      1.00000
     40     -13.4211      1.00000
     41     -13.3116      1.00000
     42     -13.1145      1.00000
     43     -13.0931      1.00000
     44     -12.9227      1.00000
     45     -12.8947      1.00000
     46     -12.5393      1.00000
     47     -12.5360      1.00000
     48     -12.5341      1.00000
     49     -12.4679      1.00000
     50     -12.3527      1.00000
     51     -12.3511      1.00000
     52     -12.2495      1.00000
     53     -11.8348      1.00000
     54     -11.6808      1.00000
     55     -11.6762      1.00000
     56     -11.5105      1.00000
     57     -11.5051      1.00000
     58     -11.5044      1.00000
     59     -11.4946      1.00000
     60     -11.4303      1.00000
     61     -11.3114      1.00000
     62     -10.9484      1.00000
     63     -10.8426      1.00000
     64     -10.6630      1.00000
     65     -10.4413      1.00000
     66     -10.4403      1.00000
     67     -10.4178      1.00000
     68     -10.4150      1.00000
     69     -10.4086      1.00000
     70     -10.4065      1.00000
     71      -9.8379      1.00000
     72      -9.8256      1.00000
     73      -9.6496      1.00000
     74      -9.6472      1.00000
     75      -9.4683      1.00000
     76      -9.4611      1.00000
     77      -9.4095      1.00000
     78      -9.4083      1.00000
     79      -9.2709      1.00000
     80      -9.2558      1.00000
     81      -8.8328      1.00000
     82      -8.8295      1.00000
     83      -8.0690      1.00000
     84      -7.7868      1.00000
     85      -7.6521      1.00000
     86      -7.6355      1.00000
     87      -7.6343      1.00000
     88      -7.2490      1.00000
     89      -7.2471      1.00000
     90      -7.0120      1.00000
     91      -6.9200      1.00000
     92      -6.9166      1.00000
     93      -6.8454      1.00000
     94      -6.6141      1.00000
     95      -1.0101      0.00000
     96      -0.7978      0.00000
     97      -0.5417      0.00000
     98      -0.5345      0.00000
     99      -0.4712      0.00000
    100      -0.3478      0.00000
    101      -0.2769      0.00000
    102      -0.2472      0.00000
    103      -0.1193      0.00000
    104       0.0468      0.00000
    105       0.0657      0.00000
    106       0.0940      0.00000
    107       0.1400      0.00000
    108       0.1660      0.00000
    109       0.2056      0.00000
    110       0.4732      0.00000
    111       0.5144      0.00000
    112       0.5380      0.00000
    113       0.6766      0.00000
    114       0.7645      0.00000
    115       0.8791      0.00000
    116       0.8937      0.00000
    117       0.9930      0.00000
    118       1.0523      0.00000
    119       1.1150      0.00000
    120       1.1262      0.00000
    121       1.2500      0.00000
    122       1.2758      0.00000
    123       1.3690      0.00000
    124       1.3874      0.00000
    125       1.4520      0.00000
    126       1.4654      0.00000
    127       1.5434      0.00000
    128       1.6354      0.00000
    129       1.7511      0.00000
    130       1.7931      0.00000
    131       1.8152      0.00000
    132       1.8629      0.00000
    133       1.8731      0.00000
    134       1.8813      0.00000
    135       1.9381      0.00000
    136       1.9409      0.00000
    137       1.9740      0.00000
    138       2.0459      0.00000
    139       2.0760      0.00000
    140       2.1304      0.00000
    141       2.1389      0.00000
    142       2.1763      0.00000
    143       2.2005      0.00000
    144       2.2998      0.00000

 k-point     4 :       0.3750    0.1250    0.0000
  band No.  band energies     occupation 
      1     -35.8417      1.00000
      2     -35.1125      1.00000
      3     -33.7634      1.00000
      4     -33.4384      1.00000
      5     -33.3589      1.00000
      6     -30.9038      1.00000
      7     -29.9019      1.00000
      8     -24.5746      1.00000
      9     -24.4216      1.00000
     10     -24.1215      1.00000
     11     -23.6867      1.00000
     12     -23.1423      1.00000
     13     -22.8857      1.00000
     14     -22.7719      1.00000
     15     -22.5545      1.00000
     16     -22.5368      1.00000
     17     -22.2556      1.00000
     18     -21.9646      1.00000
     19     -21.9120      1.00000
     20     -21.5902      1.00000
     21     -21.5762      1.00000
     22     -21.3097      1.00000
     23     -21.1625      1.00000
     24     -21.1266      1.00000
     25     -18.0887      1.00000
     26     -16.4590      1.00000
     27     -16.3000      1.00000
     28     -16.1060      1.00000
     29     -15.3775      1.00000
     30     -15.1058      1.00000
     31     -14.9062      1.00000
     32     -14.7820      1.00000
     33     -14.7635      1.00000
     34     -14.4985      1.00000
     35     -14.4830      1.00000
     36     -14.4481      1.00000
     37     -14.3859      1.00000
     38     -14.2955      1.00000
     39     -13.8331      1.00000
     40     -13.4829      1.00000
     41     -13.3255      1.00000
     42     -13.3112      1.00000
     43     -13.1937      1.00000
     44     -13.1130      1.00000
     45     -13.0927      1.00000
     46     -12.8949      1.00000
     47     -12.6595      1.00000
     48     -12.5560      1.00000
     49     -12.5366      1.00000
     50     -12.4678      1.00000
     51     -12.2795      1.00000
     52     -12.2474      1.00000
     53     -11.8348      1.00000
     54     -11.6411      1.00000
     55     -11.4946      1.00000
     56     -11.3117      1.00000
     57     -11.2675      1.00000
     58     -11.1739      1.00000
     59     -11.0868      1.00000
     60     -11.0594      1.00000
     61     -10.9745      1.00000
     62     -10.9483      1.00000
     63     -10.8293      1.00000
     64     -10.8036      1.00000
     65     -10.7297      1.00000
     66     -10.6591      1.00000
     67     -10.5534      1.00000
     68     -10.2990      1.00000
     69     -10.2341      1.00000
     70     -10.2077      1.00000
     71     -10.0727      1.00000
     72      -9.9745      1.00000
     73      -9.9668      1.00000
     74      -9.5494      1.00000
     75      -9.4842      1.00000
     76      -9.4668      1.00000
     77      -9.2099      1.00000
     78      -9.1107      1.00000
     79      -8.8546      1.00000
     80      -8.8385      1.00000
     81      -8.6935      1.00000
     82      -8.5576      1.00000
     83      -8.3819      1.00000
     84      -8.3608      1.00000
     85      -8.2636      1.00000
     86      -8.0120      1.00000
     87      -7.9471      1.00000
     88      -7.5213      1.00000
     89      -7.4371      1.00000
     90      -6.9390      1.00000
     91      -6.9230      1.00000
     92      -6.8465      1.00000
     93      -6.4984      1.00000
     94      -6.2596      1.00000
     95      -0.8104      0.00000
     96      -0.7376      0.00000
     97      -0.7166      0.00000
     98      -0.6386      0.00000
     99      -0.5103      0.00000
    100      -0.4577      0.00000
    101      -0.1264      0.00000
    102      -0.0641      0.00000
    103       0.0212      0.00000
    104       0.0395      0.00000
    105       0.0913      0.00000
    106       0.1263      0.00000
    107       0.1723      0.00000
    108       0.1918      0.00000
    109       0.4071      0.00000
    110       0.4380      0.00000
    111       0.4513      0.00000
    112       0.5005      0.00000
    113       0.5775      0.00000
    114       0.6330      0.00000
    115       0.7419      0.00000
    116       0.7904      0.00000
    117       0.8530      0.00000
    118       0.9328      0.00000
    119       1.0152      0.00000
    120       1.0487      0.00000
    121       1.1279      0.00000
    122       1.1995      0.00000
    123       1.2186      0.00000
    124       1.2412      0.00000
    125       1.2721      0.00000
    126       1.3416      0.00000
    127       1.4547      0.00000
    128       1.5498      0.00000
    129       1.6279      0.00000
    130       1.6828      0.00000
    131       1.7675      0.00000
    132       1.8491      0.00000
    133       1.8829      0.00000
    134       1.9191      0.00000
    135       1.9345      0.00000
    136       1.9788      0.00000
    137       2.0282      0.00000
    138       2.0794      0.00000
    139       2.1471      0.00000
    140       2.1769      0.00000
    141       2.3280      0.00000
    142       2.4080      0.00000
    143       2.4509      0.00000
    144       2.5917      0.00000

 k-point     5 :       0.5000   -0.3750    0.0000
  band No.  band energies     occupation 
      1     -35.8417      1.00000
      2     -35.1125      1.00000
      3     -33.7634      1.00000
      4     -33.4384      1.00000
      5     -33.3589      1.00000
      6     -30.9038      1.00000
      7     -29.9019      1.00000
      8     -24.5746      1.00000
      9     -24.4217      1.00000
     10     -24.1214      1.00000
     11     -23.6866      1.00000
     12     -23.1423      1.00000
     13     -22.8858      1.00000
     14     -22.7720      1.00000
     15     -22.5545      1.00000
     16     -22.5368      1.00000
     17     -22.2556      1.00000
     18     -21.9644      1.00000
     19     -21.9122      1.00000
     20     -21.5897      1.00000
     21     -21.5767      1.00000
     22     -21.3097      1.00000
     23     -21.1625      1.00000
     24     -21.1266      1.00000
     25     -18.0887      1.00000
     26     -16.4590      1.00000
     27     -16.3000      1.00000
     28     -16.1060      1.00000
     29     -15.3774      1.00000
     30     -15.1055      1.00000
     31     -14.9066      1.00000
     32     -14.7819      1.00000
     33     -14.7642      1.00000
     34     -14.4978      1.00000
     35     -14.4819      1.00000
     36     -14.4489      1.00000
     37     -14.3866      1.00000
     38     -14.2954      1.00000
     39     -13.8332      1.00000
     40     -13.4823      1.00000
     41     -13.3253      1.00000
     42     -13.3116      1.00000
     43     -13.1932      1.00000
     44     -13.1138      1.00000
     45     -13.0932      1.00000
     46     -12.8943      1.00000
     47     -12.6603      1.00000
     48     -12.5562      1.00000
     49     -12.5365      1.00000
     50     -12.4680      1.00000
     51     -12.2761      1.00000
     52     -12.2497      1.00000
     53     -11.8348      1.00000
     54     -11.6403      1.00000
     55     -11.4946      1.00000
     56     -11.3117      1.00000
     57     -11.2683      1.00000
     58     -11.1738      1.00000
     59     -11.0876      1.00000
     60     -11.0593      1.00000
     61     -10.9753      1.00000
     62     -10.9483      1.00000
     63     -10.8269      1.00000
     64     -10.8026      1.00000
     65     -10.7307      1.00000
     66     -10.6583      1.00000
     67     -10.5557      1.00000
     68     -10.2980      1.00000
     69     -10.2340      1.00000
     70     -10.2087      1.00000
     71     -10.0727      1.00000
     72      -9.9759      1.00000
     73      -9.9705      1.00000
     74      -9.5496      1.00000
     75      -9.4732      1.00000
     76      -9.4664      1.00000
     77      -9.2143      1.00000
     78      -9.1102      1.00000
     79      -8.8549      1.00000
     80      -8.8380      1.00000
     81      -8.6930      1.00000
     82      -8.5579      1.00000
     83      -8.3834      1.00000
     84      -8.3619      1.00000
     85      -8.2642      1.00000
     86      -8.0116      1.00000
     87      -7.9486      1.00000
     88      -7.5199      1.00000
     89      -7.4365      1.00000
     90      -6.9368      1.00000
     91      -6.9242      1.00000
     92      -6.8455      1.00000
     93      -6.4994      1.00000
     94      -6.2599      1.00000
     95      -0.8059      0.00000
     96      -0.7336      0.00000
     97      -0.7183      0.00000
     98      -0.6417      0.00000
     99      -0.5251      0.00000
    100      -0.4344      0.00000
    101      -0.1710      0.00000
    102      -0.0525      0.00000
    103      -0.0126      0.00000
    104       0.0665      0.00000
    105       0.0963      0.00000
    106       0.1685      0.00000
    107       0.1869      0.00000
    108       0.2174      0.00000
    109       0.4013      0.00000
    110       0.4249      0.00000
    111       0.4390      0.00000
    112       0.4894      0.00000
    113       0.5049      0.00000
    114       0.6505      0.00000
    115       0.7264      0.00000
    116       0.7754      0.00000
    117       0.9258      0.00000
    118       0.9644      0.00000
    119       1.0065      0.00000
    120       1.0257      0.00000
    121       1.1578      0.00000
    122       1.1861      0.00000
    123       1.2174      0.00000
    124       1.2350      0.00000
    125       1.2707      0.00000
    126       1.3316      0.00000
    127       1.4534      0.00000
    128       1.5602      0.00000
    129       1.6196      0.00000
    130       1.6804      0.00000
    131       1.7509      0.00000
    132       1.8546      0.00000
    133       1.8697      0.00000
    134       1.9195      0.00000
    135       1.9401      0.00000
    136       1.9926      0.00000
    137       2.0107      0.00000
    138       2.0641      0.00000
    139       2.1254      0.00000
    140       2.2014      0.00000
    141       2.3559      0.00000
    142       2.3863      0.00000
    143       2.4565      0.00000
    144       2.5837      0.00000

 k-point     6 :       0.1250    0.5000    0.0000
  band No.  band energies     occupation 
      1     -35.8417      1.00000
      2     -35.1125      1.00000
      3     -33.7634      1.00000
      4     -33.4384      1.00000
      5     -33.3589      1.00000
      6     -30.9038      1.00000
      7     -29.9019      1.00000
      8     -24.5745      1.00000
      9     -24.4217      1.00000
     10     -24.1215      1.00000
     11     -23.6867      1.00000
     12     -23.1423      1.00000
     13     -22.8858      1.00000
     14     -22.7720      1.00000
     15     -22.5543      1.00000
     16     -22.5368      1.00000
     17     -22.2554      1.00000
     18     -21.9645      1.00000
     19     -21.9122      1.00000
     20     -21.5900      1.00000
     21     -21.5766      1.00000
     22     -21.3096      1.00000
     23     -21.1625      1.00000
     24     -21.1266      1.00000
     25     -18.0887      1.00000
     26     -16.4590      1.00000
     27     -16.3000      1.00000
     28     -16.1060      1.00000
     29     -15.3775      1.00000
     30     -15.1058      1.00000
     31     -14.9065      1.00000
     32     -14.7815      1.00000
     33     -14.7640      1.00000
     34     -14.5009      1.00000
[...]
   13       -0.000  -0.000   0.000  -0.000
   14       -0.000   0.000   0.000   0.000
   15       -0.000  -0.000   0.000  -0.000
   16       -0.000  -0.000   0.000  -0.000
   17        0.000   0.000   0.000   0.000
   18        0.000   0.000   0.000   0.000
   19       -0.000  -0.000   0.000  -0.000
   20       -0.000  -0.000   0.000  -0.000
   21       -0.000  -0.000   0.000  -0.000
   22       -0.000  -0.000   0.000  -0.000
   23       -0.000  -0.000   0.000  -0.000
   24        0.000   0.000   0.000   0.000
   25       -0.000  -0.000   0.000  -0.000
   26        0.000   0.000   0.000   0.000
   27        0.000   0.000   0.000   0.000
   28        0.000   0.000   0.000   0.000
   29        0.000   0.000   0.000   0.000
   30        0.000   0.000   0.000   0.000
   31       -0.000  -0.000   0.000  -0.000
   32       -0.000  -0.000   0.000  -0.000
   33        0.004   0.011   0.000   0.015
   34        0.071   0.376   0.000   0.447
   35       -0.000   0.000   0.000   0.000
   36       -0.000  -0.000   0.000  -0.001
   37        0.001   0.030   0.000   0.031
   38       -0.000  -0.000   0.000  -0.001
   39        0.003   0.077   0.000   0.080
   40        0.003   0.077   0.000   0.080
   41        0.000   0.000   0.000   0.000
   42        0.000  -0.000   0.000  -0.000
--------------------------------------------------
tot          0.082   0.570   0.000   0.652
 
    CHARGE:  cpu time    3.8795: real time    3.5528
    FORLOC:  cpu time    0.3461: real time    0.2640
    FORNL :  cpu time   27.3506: real time   13.8089
    STRESS:  cpu time  643.3686: real time  593.2915
    FORCOR:  cpu time    3.2856: real time    3.2932
    FORHAR:  cpu time    0.4185: real time    0.4194
    MIXING:  cpu time    0.0632: real time    0.0633
    OFIELD:  cpu time    0.0001: real time    0.0001

  FORCE on cell =-STRESS in cart. coord.  units (eV):
  Direction    XX          YY          ZZ          XY          YZ          ZX
  --------------------------------------------------------------------------------------
  Alpha Z    57.55240    57.55240    57.55240
  Ewald   68852.15728 68948.82134-72870.69375   -26.44680   150.79600    43.22700
  Hartree 69696.72105 70099.59210-66267.65253   182.39940    71.66733    67.24614
  E(xc)    -834.42935  -834.26423  -838.89812     0.15129     0.07211     0.14965
  Local  ************************136663.46575  -197.82794  -213.31475  -120.92952
  n-local  -491.02727  -486.97015  -484.73604     2.02327     0.03204     0.94976
  augment   118.64620   122.00631   130.45845     2.77877    -0.40850     0.90238
  Kinetic  3258.58597  3315.25582  3610.18275    38.32454    -9.20888     8.56419
  Fock        0.00000     0.00000     0.00000     0.00000     0.00000     0.00000
  -------------------------------------------------------------------------------------
  Total     -13.25794   -11.07548    -0.32109     1.40254    -0.36464     0.10961
  in kB      -6.91740    -5.77869    -0.16753     0.73178    -0.19025     0.05719
  external pressure =       -4.29 kB  Pullay stress =        0.00 kB


 VOLUME and BASIS-vectors are now :
 -----------------------------------------------------------------------------
  energy-cutoff  :      550.00
  volume of cell :     3070.74
      direct lattice vectors                 reciprocal lattice vectors
     5.024366704 -8.702497373  0.000000000     0.099515029 -0.057454772  0.000000000
     5.024366704  8.702497373  0.000000000     0.099515029  0.057454772  0.000000000
     0.000000000  0.000000000 35.114664386     0.000000000  0.000000000  0.028478131

  length of vectors
    10.048767154 10.048767154 35.114664386     0.114909929  0.114909929  0.028478131


 FORCES acting on ions
    electron-ion (+dipol)            ewald-force                    non-local-force                 convergence-correction
 -----------------------------------------------------------------------------------------------
   0.119E+02 -.388E+01 0.127E+03   -.119E+02 0.393E+01 -.127E+03   0.514E-02 -.526E-02 0.993E-03   -.907E-03 -.108E-03 -.580E-03
   0.112E+02 -.628E+01 0.128E+03   -.113E+02 0.633E+01 -.128E+03   0.118E-01 -.556E-02 0.421E-02   -.918E-03 0.307E-03 -.417E-03
   0.738E+01 -.505E+01 0.130E+03   -.749E+01 0.510E+01 -.130E+03   0.115E-01 -.819E-02 0.250E-02   -.857E-04 -.534E-03 -.631E-03
   0.479E+01 -.509E+01 0.125E+03   -.486E+01 0.514E+01 -.125E+03   0.383E-02 -.680E-02 0.189E-02   0.214E-03 -.152E-03 -.259E-03
   0.112E+02 0.169E+01 0.141E+03   -.112E+02 -.165E+01 -.141E+03   -.742E-03 -.301E-02 0.150E-02   -.126E-03 -.421E-03 -.739E-03
   0.107E+02 -.596E+01 0.155E+03   -.108E+02 0.595E+01 -.155E+03   0.120E-01 -.597E-03 -.151E-02   -.169E-04 -.126E-03 -.123E-02
   0.565E+01 -.629E+01 0.148E+03   -.571E+01 0.631E+01 -.148E+03   0.480E-02 0.142E-02 0.115E-02   0.707E-04 0.286E-03 -.110E-02
   0.321E+01 -.736E+01 0.145E+03   -.321E+01 0.740E+01 -.145E+03   -.944E-02 -.102E-01 -.145E-01   -.214E-03 -.218E-04 -.732E-03
   -.683E+01 0.603E+01 0.136E+03   0.694E+01 -.609E+01 -.136E+03   -.715E-02 0.393E-02 -.119E-02   -.223E-03 -.154E-03 -.209E-03
   -.491E+01 0.122E+02 0.152E+03   0.496E+01 -.123E+02 -.152E+03   -.568E-02 0.114E-01 0.179E-02   -.115E-03 -.615E-03 -.808E-03
   -.131E+02 0.363E-01 0.149E+03   0.132E+02 -.920E-01 -.149E+03   -.121E-01 0.544E-02 0.571E-02   -.170E-03 0.647E-05 -.113E-02
   -.118E+02 0.311E+01 0.143E+03   0.120E+02 -.313E+01 -.143E+03   -.168E-01 -.317E-02 -.264E-02   -.243E-03 0.337E-03 -.171E-03
   -.504E+01 0.263E+01 0.122E+03   0.502E+01 -.261E+01 -.122E+03   -.276E-02 -.223E-02 0.176E-02   0.326E-03 -.112E-03 -.587E-03
   -.377E+01 0.776E+01 0.125E+03   0.376E+01 -.778E+01 -.125E+03   0.103E-02 -.102E-03 0.532E-03   -.932E-03 -.208E-03 -.899E-03
   -.111E+02 0.486E+01 0.131E+03   0.111E+02 -.491E+01 -.131E+03   0.102E-03 0.113E-02 0.137E-02   0.338E-03 0.126E-03 -.108E-02
   -.953E+01 0.170E+01 0.125E+03   0.957E+01 -.167E+01 -.124E+03   -.463E-02 -.140E-02 0.286E-03   -.172E-03 -.110E-03 -.849E-03
   0.123E+02 -.554E+01 0.205E+03   -.124E+02 0.559E+01 -.204E+03   0.663E-02 -.188E-02 -.243E-01   0.386E-03 0.384E-02 0.773E-03
   0.955E+01 -.201E+01 0.207E+03   -.965E+01 0.207E+01 -.207E+03   0.520E-02 -.497E-02 -.265E-01   0.196E-02 -.267E-02 0.475E-03
   0.400E+00 -.437E+01 0.209E+03   -.482E+00 0.437E+01 -.209E+03   0.155E-03 -.111E-01 -.823E-02   -.604E-03 0.366E-02 0.975E-03
   0.436E+01 -.348E+01 0.203E+03   -.440E+01 0.354E+01 -.202E+03   -.233E-02 -.655E-02 -.254E-01   0.381E-02 0.127E-02 0.804E-03
   0.278E+02 -.392E+01 0.239E+03   -.279E+02 0.397E+01 -.239E+03   0.232E-01 -.302E-02 0.298E-01   0.579E-03 -.609E-03 -.448E-02
   0.193E+02 -.162E+02 0.239E+03   -.195E+02 0.162E+02 -.239E+03   0.238E-01 -.125E-01 -.477E-02   0.548E-03 0.161E-02 -.244E-02
   0.141E+02 -.126E+02 0.238E+03   -.143E+02 0.127E+02 -.238E+03   0.192E-01 -.224E-01 0.221E-01   0.466E-02 0.229E-02 -.482E-02
   0.131E+02 -.995E+01 0.224E+03   -.132E+02 0.101E+02 -.224E+03   0.664E-02 -.259E-01 0.179E-01   -.168E-03 -.268E-02 -.166E-02
   0.314E+01 0.159E+02 0.240E+03   -.302E+01 -.160E+02 -.240E+03   0.140E-02 0.499E-02 -.371E-01   0.223E-02 0.119E-02 0.679E-03
   -.640E+01 0.192E+01 0.266E+03   0.640E+01 -.208E+01 -.266E+03   -.559E-02 0.112E-01 -.267E-01   0.222E-02 0.449E-03 -.253E-02
   -.120E+02 -.138E+01 0.246E+03   0.122E+02 0.135E+01 -.246E+03   -.212E-01 0.244E-02 -.377E-01   0.225E-02 0.610E-03 0.356E-04
   -.119E+02 -.107E+01 0.242E+03   0.122E+02 0.970E+00 -.243E+03   -.292E-01 0.216E-02 0.675E-01   -.118E-02 0.158E-02 0.150E-02
   -.117E+02 0.118E+02 0.210E+03   0.117E+02 -.118E+02 -.210E+03   -.573E-02 0.146E-02 0.936E-02   0.218E-02 0.228E-04 -.372E-02
   -.167E+02 0.195E+02 0.228E+03   0.168E+02 -.196E+02 -.228E+03   -.101E-01 0.453E-02 -.276E-02   -.713E-03 0.216E-03 -.353E-02
   -.257E+02 0.504E+01 0.224E+03   0.258E+02 -.511E+01 -.224E+03   -.206E-01 0.761E-02 0.158E-01   0.360E-02 -.312E-03 -.530E-02
   -.196E+02 0.637E+01 0.213E+03   0.197E+02 -.632E+01 -.213E+03   -.149E-01 0.926E-03 -.605E-02   0.298E-02 0.149E-02 -.159E-02
   -.321E+01 0.518E+01 -.399E+03   0.809E+00 -.769E+01 0.391E+03   0.240E+01 0.230E+01 0.820E+01   -.986E-03 -.108E-02 0.307E-02
   -.591E+02 -.896E+02 -.258E+03   0.675E+02 0.101E+03 0.260E+03   -.851E+01 -.116E+02 -.167E+01   -.109E-02 -.148E-02 0.162E-03
   -.135E+02 -.444E+02 -.359E+03   0.133E+02 0.445E+02 0.359E+03   -.191E-01 -.379E-01 -.832E-01   0.371E-03 0.518E-03 -.106E-03
   -.512E+03 0.254E+02 -.840E+03   0.571E+03 -.279E+02 0.850E+03   -.576E+02 0.195E+01 -.838E+01   -.434E-03 0.201E-02 0.808E-02
   0.193E+03 0.325E+03 -.111E+04   -.216E+03 -.363E+03 0.114E+04   0.231E+02 0.371E+02 -.351E+02   -.330E-02 -.544E-02 0.162E-01
   0.167E+03 -.425E+03 -.922E+03   -.187E+03 0.478E+03 0.939E+03   0.191E+02 -.527E+02 -.155E+02   -.315E-03 -.444E-02 0.211E-01
   -.174E+03 0.353E+03 -.386E+03   0.197E+03 -.404E+03 0.363E+03   -.223E+02 0.501E+02 0.218E+02   -.687E-02 -.658E-03 -.612E-02
   0.425E+03 -.630E+02 -.444E+03   -.483E+03 0.701E+02 0.429E+03   0.568E+02 -.685E+01 0.143E+02   0.233E-02 -.437E-02 0.486E-02
   -.281E+03 0.637E+02 -.498E+03   0.345E+03 -.903E+02 0.489E+03   -.608E+02 0.253E+02 0.892E+01   0.871E-02 -.499E-03 -.104E-02
   0.244E+03 -.172E+03 -.581E+03   -.308E+03 0.199E+03 0.590E+03   0.608E+02 -.252E+02 -.857E+01   -.349E-03 -.259E-02 -.220E-03
 -----------------------------------------------------------------------------------------------
   -.131E+02 -.205E+02 0.161E+02   0.171E-12 -.114E-12 -.682E-12   0.131E+02 0.203E+02 -.162E+02   0.196E-01 -.757E-02 0.976E-02
 
 
 POSITION                                       TOTAL-FORCE (eV/Angst)
 -----------------------------------------------------------------------------------
      1.25618     -0.72307     17.63176         0.001291     -0.002681      0.004962
      2.51214      1.45250     17.63317         0.002145      0.000642      0.001183
      3.76842      3.62814     17.63245        -0.002037      0.001391      0.000063
      5.02456      5.80382     17.63146        -0.002833     -0.000331     -0.001214
      2.51253     -2.89872     17.63073         0.000234      0.001874      0.003702
      3.76821     -0.72321     17.63240        -0.001936     -0.000492     -0.000773
      5.02453      1.45236     17.63087        -0.000716     -0.001523      0.006970
      6.28102      3.62844     17.62522        -0.000661     -0.001227      0.005083
      3.76866     -5.07453     17.63058        -0.000517      0.000044     -0.000637
      5.02478     -2.89912     17.63387        -0.001471     -0.000230      0.004040
      6.28095     -0.72337     17.63446        -0.000077      0.000764      0.002973
      7.53718      1.45264     17.63020        -0.000038     -0.001200      0.001163
      5.02467     -7.25004     17.63209        -0.003288      0.000442      0.001934
      6.28069     -5.07446     17.63271        -0.000279     -0.001501      0.006399
      7.53675     -2.89889     17.63314         0.000919     -0.001420      0.005473
      8.79290     -0.72317     17.63247         0.001042      0.000889      0.004892
      1.25632      0.72725     17.63293         0.001001     -0.000536     -0.003632
      2.51251      2.90282     17.63351         0.000860      0.002255     -0.002527
      3.76855      5.07845     17.63257         0.001254     -0.001781     -0.000827
      5.02456      7.25414     17.63247         0.000378      0.000060     -0.004276
      2.51240     -1.44837     17.63069         0.001721      0.000318      0.003655
      3.76852      0.72722     17.63304         0.001565     -0.001311      0.001793
      5.02501      2.90282     17.62992        -0.003576     -0.000438      0.001610
      6.28078      5.07854     17.62880         0.000122      0.002828     -0.000287
      3.76864     -3.62395     17.63322        -0.001797     -0.001124     -0.001307
      5.02451     -1.44834     17.63590        -0.001448      0.001099      0.005286
      6.28073      0.72728     17.63417         0.002069      0.002360     -0.002727
      7.53664      2.90306     17.62594         0.002835     -0.001720     -0.002904
      5.02460     -5.79963     17.63150        -0.000635      0.000833      0.003652
      6.28065     -3.62398     17.63319         0.001410     -0.001330      0.000843
      7.53667     -1.44842     17.63322         0.002893      0.000531      0.004428
      8.79283      0.72730     17.63162        -0.000034      0.000751      0.000628
      5.08329     -1.02045     22.94359        -0.003113      0.000527     -0.010070
      4.74931     -1.29758     21.49971         0.000945     -0.003738     -0.014817
      6.32767      2.74574     21.29235        -0.017125      0.005923      0.005712
      6.41088     -1.06991     23.12595        -0.001390     -0.002099     -0.002244
      4.51946     -1.92071     23.78301        -0.000744      0.009212     -0.008049
      4.63693      0.19611     23.29049        -0.001677      0.002751     -0.005686
      5.24234     -2.43830     21.03655         0.009534     -0.012358     -0.002816
      3.46429     -1.15784     21.20237        -0.005391      0.002781     -0.005645
      7.39158      2.30082     21.13637         0.003293     -0.001796     -0.002787
      5.26099      3.18709     21.44161         0.015271      0.000562     -0.003219
 -----------------------------------------------------------------------------------
    total drift:                               -0.033351     -0.144224     -0.052803


--------------------------------------------------------------------------------------------------------



  FREE ENERGIE OF THE ION-ELECTRON SYSTEM (eV)
  ---------------------------------------------------
  free  energy   TOTEN  =      -387.44489367 eV

  energy  without entropy=     -387.44489367  energy(sigma->0) =     -387.44489367
 
 d Force = 0.3889364E-04[ 0.240E-04, 0.538E-04]  d Energy = 0.3546748E-04 0.343E-05
 d Force =-0.1335933E+01[-0.134E+01,-0.134E+01]  d Ewald  =-0.1335933E+01 0.517E-09


--------------------------------------------------------------------------------------------------------


    POTLOK:  cpu time   36.8038: real time   36.6780


--------------------------------------------------------------------------------------------------------


 Conjugate gradient step on ions:
 trial-energy change:   -0.000035  1 .order   -0.000039   -0.000054   -0.000024
  (g-gl).g = 0.133E-03      g.g   = 0.169E-03  gl.gl    = 0.404E-03
 g(Force)  = 0.169E-03   g(Stress)= 0.000E+00 ortho     = 0.290E-04
 gamma     =   0.32941
 trial     =   0.30046
 opt step  =   0.54234  (harmonic =   0.54234) maximal distance =0.00038704
 next E    =  -387.444907   (d E  =  -0.00005)


--------------------------------------------------------------------------------------------------------


  
 reached required accuracy - stopping structural energy minimisation
 writing wavefunctions
     LOOP+:  cpu time 2121.7844: real time 1602.9077
    4ORBIT:  cpu time    0.0000: real time    0.0000
 


 total charge     
 
# of ion       s       p       d       tot
------------------------------------------
    1        0.744   1.394   0.000   2.138
    2        0.744   1.394   0.000   2.138
    3        0.744   1.393   0.000   2.137
    4        0.744   1.394   0.000   2.138
    5        0.744   1.394   0.000   2.138
    6        0.744   1.394   0.000   2.138
    7        0.744   1.394   0.000   2.138
    8        0.744   1.395   0.000   2.139
    9        0.744   1.393   0.000   2.138
   10        0.744   1.394   0.000   2.138
   11        0.744   1.394   0.000   2.138
   12        0.744   1.394   0.000   2.138
   13        0.744   1.394   0.000   2.138
   14        0.744   1.393   0.000   2.138
   15        0.744   1.394   0.000   2.138
   16        0.744   1.393   0.000   2.138
   17        1.238   2.823   0.000   4.061
   18        1.238   2.823   0.000   4.061
   19        1.238   2.823   0.000   4.061
   20        1.238   2.823   0.000   4.061
   21        1.238   2.822   0.000   4.061
   22        1.238   2.822   0.000   4.060
   23        1.238   2.822   0.000   4.060
   24        1.238   2.822   0.000   4.061
   25        1.238   2.822   0.000   4.060
   26        1.238   2.822   0.000   4.060
   27        1.238   2.822   0.000   4.060
   28        1.238   2.823   0.000   4.061
   29        1.238   2.823   0.000   4.061
   30        1.238   2.823   0.000   4.061
   31        1.238   2.823   0.000   4.061
   32        1.238   2.823   0.000   4.061
   33        0.814   1.560   0.000   2.374
   34        0.836   1.566   0.000   2.401
   35        0.944   1.794   0.000   2.738
   36        1.758   4.413   0.000   6.171
   37        1.758   4.405   0.000   6.163
   38        1.758   4.413   0.000   6.171
   39        1.757   4.399   0.000   6.156
   40        1.757   4.399   0.000   6.156
   41        1.609   3.594   0.000   5.203
   42        1.608   3.595   0.000   5.203
--------------------------------------------------
tot         46.313 101.595   0.000 147.908
 


 magnetization (x)
 
# of ion       s       p       d       tot
------------------------------------------
    1        0.000   0.000   0.000   0.000
    2       -0.000  -0.000   0.000  -0.000
    3        0.000   0.000   0.000   0.000
    4        0.000   0.000   0.000   0.000
    5        0.000   0.000   0.000   0.000
    6       -0.000   0.000   0.000   0.000
    7        0.000   0.000   0.000   0.000
    8        0.000   0.000   0.000   0.000
    9       -0.000  -0.000   0.000  -0.000
   10       -0.000   0.000   0.000   0.000
   11        0.000   0.000   0.000   0.000
   12       -0.000   0.000   0.000  -0.000
   13       -0.000  -0.000   0.000  -0.000
   14       -0.000   0.000   0.000   0.000
   15       -0.000  -0.000   0.000  -0.000
   16       -0.000  -0.000   0.000  -0.000
   17        0.000   0.000   0.000   0.000
   18        0.000   0.000   0.000   0.000
   19       -0.000  -0.000   0.000  -0.000
   20       -0.000  -0.000   0.000  -0.000
   21       -0.000  -0.000   0.000  -0.000
   22       -0.000  -0.000   0.000  -0.000
   23       -0.000  -0.000   0.000  -0.000
   24        0.000   0.000   0.000   0.000
   25       -0.000  -0.000   0.000  -0.000
   26        0.000   0.000   0.000   0.000
   27        0.000   0.000   0.000   0.000
   28        0.000   0.000   0.000   0.000
   29        0.000   0.000   0.000   0.000
   30        0.000   0.000   0.000   0.000
   31       -0.000  -0.000   0.000  -0.000
   32       -0.000  -0.000   0.000  -0.000
   33        0.004   0.011   0.000   0.015
   34        0.071   0.376   0.000   0.447
   35       -0.000   0.000   0.000   0.000
   36       -0.000  -0.000   0.000  -0.001
   37        0.001   0.030   0.000   0.031
   38       -0.000  -0.000   0.000  -0.001
   39        0.003   0.077   0.000   0.080
   40        0.003   0.077   0.000   0.080
   41        0.000   0.000   0.000   0.000
   42        0.000  -0.000   0.000  -0.000
--------------------------------------------------
tot          0.082   0.570   0.000   0.652
 

 total amount of memory used by VASP MPI-rank0  1323169. kBytes
=======================================================================

   base      :      30000. kBytes
   nonlr-proj:      18683. kBytes
   fftplans  :      47149. kBytes
   grid      :     394654. kBytes
   one-center:        258. kBytes
   wavefun   :     832425. kBytes
 
  
  
 General timing and accounting informations for this job:
 ========================================================
  
                  Total CPU time used (sec):    26692.877
                            User time (sec):    25957.812
                          System time (sec):      735.066
                         Elapsed time (sec):    19458.027
  
                   Maximum memory used (kb):     2703284.
                   Average memory used (kb):           0.
  
                          Minor page faults:      4918083
                          Major page faults:           20
                 Voluntary context switches:       217214
