 vasp.5.4.4.18Apr17-6-g9f103f2a35 (build May 01 2020 14:57:12) complex          
  
 executed on             LinuxIFC date 2021.08.07  23:08:14
 running on   96 total cores
 distrk:  each k-point on   96 cores,    1 groups
 distr:  one band on NCORES_PER_BAND=  24 cores,    4 groups


--------------------------------------------------------------------------------------------------------


 INCAR:
 POTCAR:    PAW_PBE B 06Sep2000                   
 POTCAR:    PAW_PBE N 08Apr2002                   
 POTCAR:    PAW_PBE C 08Apr2002                   
 POTCAR:    PAW_PBE F 08Apr2002                   
 POTCAR:    PAW_PBE O 08Apr2002                   

 ----------------------------------------------------------------------------- 
|                                                                             |
|           W    W    AA    RRRRR   N    N  II  N    N   GGGG   !!!           |
|           W    W   A  A   R    R  NN   N  II  NN   N  G    G  !!!           |
|           W    W  A    A  R    R  N N  N  II  N N  N  G       !!!           |
|           W WW W  AAAAAA  RRRRR   N  N N  II  N  N N  G  GGG   !            |
|           WW  WW  A    A  R   R   N   NN  II  N   NN  G    G                |
|           W    W  A    A  R    R  N    N  II  N    N   GGGG   !!!           |
|                                                                             |
|      For optimal performance we recommend to set                            |
|        NCORE= 4 - approx SQRT( number of cores)                             |
|      NCORE specifies how many cores store one orbital (NPAR=cpu/NCORE).     |
|      This setting can  greatly improve the performance of VASP for DFT.     |
|      The default,   NCORE=1            might be grossly inefficient         |
|      on modern multi-core architectures or massively parallel machines.     |
|      Do your own testing !!!!                                               |
|      Unfortunately you need to use the default for GW and RPA calculations. |
|      (for HF NCORE is supported but not extensively tested yet)             |
|                                                                             |
 ----------------------------------------------------------------------------- 


 ----------------------------------------------------------------------------- 
|                                                                             |
|  ADVICE TO THIS USER RUNNING 'VASP/VAMP'   (HEAR YOUR MASTER'S VOICE ...):  |
|                                                                             |
|      You have switched on vdW-DFT.                                          |
|      This routine was written and supplied by Jiri Klimes.                  |
|      We recommed that you carefully read and cite the following             |
|      publication                                                            |
|      J. Klimes, D.R. Bowler, A. Michelides                                  |
|        J. Phys.: Cond Matt. 22 022201 (2010)                                |
|      J. Klimes, D.R. Bowler, A. Michelides                                  |
|        Phys. Rev. B. 83, 195131 (2011)                                      |
|      and references therein.                                                |
|                                                                             |
 ----------------------------------------------------------------------------- 

 POTCAR:    PAW_PBE B 06Sep2000                   
   VRHFIN =B: s2p1                                                              
   LEXCH  = PE                                                                  
   EATOM  =    71.1703 eV,    5.2309 Ry                                         
                                                                                
   TITEL  = PAW_PBE B 06Sep2000                                                 
   LULTRA =        F    use ultrasoft PP ?                                      
   IUNSCR =        1    unscreen: 0-lin 1-nonlin 2-no                           
   RPACOR =    1.200    partial core radius                                     
   POMASS =   10.811; ZVAL   =    3.000    mass and valenz                      
   RCORE  =    1.700    outmost cutoff radius                                   
   RWIGS  =    1.710; RWIGS  =    0.905    wigner-seitz radius (au A)           
   ENMAX  =  318.614; ENMIN  =  238.960 eV                                      
   ICORE  =        2    local potential                                         
   LCOR   =        T    correct aug charges                                     
   LPAW   =        T    paw PP                                                  
   EAUG   =  535.514                                                            
   DEXC   =    0.000                                                            
   RMAX   =    1.732    core radius for proj-oper                               
   RAUG   =    1.300    factor for augmentation sphere                          
   RDEP   =    1.757    radius for radial grids                                 
   RDEPT  =    1.436    core radius for aug-charge                              
                                                                                
   Atomic configuration                                                         
    4 entries                                                                   
     n  l   j            E        occ.                                          
     1  0  0.50      -180.5896   2.0000                                         
     2  0  0.50        -9.4431   2.0000                                         
     2  1  0.50        -3.6068   1.0000                                         
     3  2  1.50        -4.0817   0.0000                                         
   Description                                                                  
     l       E           TYP  RCUT    TYP  RCUT                                 
     0     -9.4430752     23  1.500                                             
     0      0.8675899     23  1.500                                             
     1     -3.6067955     23  1.700                                             
     1      6.1086146     23  1.700                                             
     2     -4.0817478      7  1.700                                             
  local pseudopotential read in
  partial core-charges read in
  partial kinetic energy density read in
  atomic valenz-charges read in
  non local Contribution for L=           0  read in
    real space projection operators read in
  non local Contribution for L=           0  read in
    real space projection operators read in
  non local Contribution for L=           1  read in
    real space projection operators read in
  non local Contribution for L=           1  read in
    real space projection operators read in
    PAW grid and wavefunctions read in
 
   number of l-projection  operators is LMAX  =           4
   number of lm-projection operators is LMMAX =           8
 
 POTCAR:    PAW_PBE N 08Apr2002                   
   VRHFIN =N: s2p3                                                              
   LEXCH  = PE                                                                  
   EATOM  =   264.5486 eV,   19.4438 Ry                                         
                                                                                
   TITEL  = PAW_PBE N 08Apr2002                                                 
   LULTRA =        F    use ultrasoft PP ?                                      
   IUNSCR =        1    unscreen: 0-lin 1-nonlin 2-no                           
   RPACOR =    1.200    partial core radius                                     
   POMASS =   14.001; ZVAL   =    5.000    mass and valenz                      
   RCORE  =    1.500    outmost cutoff radius                                   
   RWIGS  =    1.400; RWIGS  =    0.741    wigner-seitz radius (au A)           
   ENMAX  =  400.000; ENMIN  =  300.000 eV                                      
   ICORE  =        2    local potential                                         
   LCOR   =        T    correct aug charges                                     
   LPAW   =        T    paw PP                                                  
   EAUG   =  627.112                                                            
   DEXC   =    0.000                                                            
   RMAX   =    1.529    core radius for proj-oper                               
   RAUG   =    1.300    factor for augmentation sphere                          
   RDEP   =    1.514    radius for radial grids                                 
   RDEPT  =    1.338    core radius for aug-charge                              
                                                                                
   Atomic configuration                                                         
    4 entries                                                                   
     n  l   j            E        occ.                                          
     1  0  0.50      -384.7179   2.0000                                         
     2  0  0.50       -18.5828   2.0000                                         
     2  1  0.50        -7.0898   3.0000                                         
     3  2  1.50        -6.8029   0.0000                                         
   Description                                                                  
     l       E           TYP  RCUT    TYP  RCUT                                 
     0    -18.5828119     23  1.200                                             
     0    -13.5018863     23  1.200                                             
     1     -7.0897853     23  1.500                                             
     1      9.5240782     23  1.500                                             
     2     -6.8029130      7  1.500                                             
  local pseudopotential read in
  partial core-charges read in
  partial kinetic energy density read in
  atomic valenz-charges read in
  non local Contribution for L=           0  read in
    real space projection operators read in
  non local Contribution for L=           0  read in
    real space projection operators read in
  non local Contribution for L=           1  read in
    real space projection operators read in
  non local Contribution for L=           1  read in
    real space projection operators read in
    PAW grid and wavefunctions read in
 
   number of l-projection  operators is LMAX  =           4
   number of lm-projection operators is LMMAX =           8
 
 POTCAR:    PAW_PBE C 08Apr2002                   
   VRHFIN =C: s2p2                                                              
   LEXCH  = PE                                                                  
   EATOM  =   147.1560 eV,   10.8157 Ry                                         
                                                                                
   TITEL  = PAW_PBE C 08Apr2002                                                 
   LULTRA =        F    use ultrasoft PP ?                                      
   IUNSCR =        1    unscreen: 0-lin 1-nonlin 2-no                           
   RPACOR =    1.200    partial core radius                                     
   POMASS =   12.011; ZVAL   =    4.000    mass and valenz                      
   RCORE  =    1.500    outmost cutoff radius                                   
   RWIGS  =    1.630; RWIGS  =    0.863    wigner-seitz radius (au A)           
   ENMAX  =  400.000; ENMIN  =  300.000 eV                                      
   ICORE  =        2    local potential                                         
   LCOR   =        T    correct aug charges                                     
   LPAW   =        T    paw PP                                                  
   EAUG   =  644.873                                                            
   DEXC   =    0.000                                                            
   RMAX   =    1.529    core radius for proj-oper                               
   RAUG   =    1.300    factor for augmentation sphere                          
   RDEP   =    1.501    radius for radial grids                                 
   RDEPT  =    1.300    core radius for aug-charge                              
                                                                                
   Atomic configuration                                                         
    4 entries                                                                   
     n  l   j            E        occ.                                          
     1  0  0.50      -273.3789   2.0000                                         
     2  0  0.50       -13.7508   2.0000                                         
     2  1  0.50        -5.2854   2.0000                                         
     3  2  1.50        -5.4423   0.0000                                         
   Description                                                                  
     l       E           TYP  RCUT    TYP  RCUT                                 
     0    -13.7508458     23  1.200                                             
     0     -8.2022199     23  1.200                                             
     1     -5.2854383     23  1.500                                             
     1     34.0145650     23  1.500                                             
     2     -5.4423304      7  1.500                                             
  local pseudopotential read in
  partial core-charges read in
  partial kinetic energy density read in
  atomic valenz-charges read in
  non local Contribution for L=           0  read in
    real space projection operators read in
  non local Contribution for L=           0  read in
    real space projection operators read in
  non local Contribution for L=           1  read in
    real space projection operators read in
  non local Contribution for L=           1  read in
    real space projection operators read in
    PAW grid and wavefunctions read in
 
   number of l-projection  operators is LMAX  =           4
   number of lm-projection operators is LMMAX =           8
 
 POTCAR:    PAW_PBE F 08Apr2002                   
   VRHFIN =F: s2p5                                                              
   LEXCH  = PE                                                                  
   EATOM  =   659.6475 eV,   48.4827 Ry                                         
                                                                                
   TITEL  = PAW_PBE F 08Apr2002                                                 
   LULTRA =        F    use ultrasoft PP ?                                      
   IUNSCR =        1    unscreen: 0-lin 1-nonlin 2-no                           
   RPACOR =    1.200    partial core radius                                     
   POMASS =   18.998; ZVAL   =    7.000    mass and valenz                      
   RCORE  =    1.520    outmost cutoff radius                                   
   RWIGS  =    1.500; RWIGS  =    0.794    wigner-seitz radius (au A)           
   ENMAX  =  400.000; ENMIN  =  300.000 eV                                      
   ICORE  =        2    local potential                                         
   LCOR   =        T    correct aug charges                                     
   LPAW   =        T    paw PP                                                  
   EAUG   =  613.614                                                            
   RMAX   =    1.555    core radius for proj-oper                               
   RAUG   =    1.300    factor for augmentation sphere                          
   RDEP   =    1.539    radius for radial grids                                 
   RDEPT  =    1.299    core radius for aug-charge                              
                                                                                
   Atomic configuration                                                         
    4 entries                                                                   
     n  l   j            E        occ.                                          
     1  0  0.50      -663.3661   2.0000                                         
     2  0  0.50       -29.8995   2.0000                                         
     2  1  0.50       -11.1114   5.0000                                         
     3  2  1.50       -10.8847   0.0000                                         
   Description                                                                  
     l       E           TYP  RCUT    TYP  RCUT                                 
     0    -29.8995018     23  1.200                                             
     0     -9.5240782     23  1.200                                             
     1    -11.1113914     23  1.520                                             
     1      1.3605826     23  1.520                                             
     2    -10.8846608      7  1.500                                             
  local pseudopotential read in
  partial core-charges read in
  partial kinetic energy density read in
  atomic valenz-charges read in
  non local Contribution for L=           0  read in
    real space projection operators read in
  non local Contribution for L=           0  read in
    real space projection operators read in
  non local Contribution for L=           1  read in
    real space projection operators read in
  non local Contribution for L=           1  read in
    real space projection operators read in
    PAW grid and wavefunctions read in
 
   number of l-projection  operators is LMAX  =           4
   number of lm-projection operators is LMMAX =           8
 
 POTCAR:    PAW_PBE O 08Apr2002                   
   VRHFIN =O: s2p4                                                              
   LEXCH  = PE                                                                  
   EATOM  =   432.3788 eV,   31.7789 Ry                                         
                                                                                
   TITEL  = PAW_PBE O 08Apr2002                                                 
   LULTRA =        F    use ultrasoft PP ?                                      
   IUNSCR =        1    unscreen: 0-lin 1-nonlin 2-no                           
   RPACOR =    1.200    partial core radius                                     
   POMASS =   16.000; ZVAL   =    6.000    mass and valenz                      
   RCORE  =    1.520    outmost cutoff radius                                   
   RWIGS  =    1.550; RWIGS  =    0.820    wigner-seitz radius (au A)           
   ENMAX  =  400.000; ENMIN  =  300.000 eV                                      
   ICORE  =        2    local potential                                         
   LCOR   =        T    correct aug charges                                     
   LPAW   =        T    paw PP                                                  
   EAUG   =  605.392                                                            
   DEXC   =    0.000                                                            
   RMAX   =    1.553    core radius for proj-oper                               
   RAUG   =    1.300    factor for augmentation sphere                          
   RDEP   =    1.550    radius for radial grids                                 
   RDEPT  =    1.329    core radius for aug-charge                              
                                                                                
   Atomic configuration                                                         
    4 entries                                                                   
     n  l   j            E        occ.                                          
     1  0  0.50      -514.6923   2.0000                                         
     2  0  0.50       -23.9615   2.0000                                         
     2  1  0.50        -9.0305   4.0000                                         
     3  2  1.50        -9.5241   0.0000                                         
   Description                                                                  
     l       E           TYP  RCUT    TYP  RCUT                                 
     0    -23.9615318     23  1.200                                             
     0     -9.5240782     23  1.200                                             
     1     -9.0304911     23  1.520                                             
     1      8.1634956     23  1.520                                             
     2     -9.5240782      7  1.500                                             
  local pseudopotential read in
  partial core-charges read in
  partial kinetic energy density read in
  kinetic energy density of atom read in
  atomic valenz-charges read in
  non local Contribution for L=           0  read in
    real space projection operators read in
  non local Contribution for L=           0  read in
    real space projection operators read in
  non local Contribution for L=           1  read in
    real space projection operators read in
  non local Contribution for L=           1  read in
    real space projection operators read in
    PAW grid and wavefunctions read in
 
   number of l-projection  operators is LMAX  =           4
   number of lm-projection operators is LMMAX =           8
 
 Optimization of the real space projectors (new method)

 maximal supplied QI-value         = 22.11
 optimisation between [QCUT,QGAM] = [ 11.94, 23.88] = [ 39.92,159.67] Ry 
 Optimized for a Real-space Cutoff    1.18 Angstroem

   l    n(q)    QCUT    max X(q) W(low)/X(q) W(high)/X(q)  e(spline) 
   0      8    11.939    53.033    0.11E-03    0.34E-03    0.60E-07
   0      8    11.939    34.740    0.11E-03    0.34E-03    0.59E-07
   1      8    11.939    30.949    0.22E-03    0.20E-03    0.17E-06
   1      8    11.939    19.518    0.20E-03    0.18E-03    0.16E-06
 Optimization of the real space projectors (new method)

 maximal supplied QI-value         = 25.13
 optimisation between [QCUT,QGAM] = [ 11.81, 23.88] = [ 39.08,159.64] Ry 
 Optimized for a Real-space Cutoff    1.41 Angstroem

   l    n(q)    QCUT    max X(q) W(low)/X(q) W(high)/X(q)  e(spline) 
   0     10    11.813    79.467    0.48E-04    0.30E-04    0.67E-06
   0     10    11.813    66.151    0.47E-04    0.30E-04    0.67E-06
   1     10    11.813    20.169    0.11E-03    0.17E-03    0.11E-05
   1     10    11.813    14.454    0.11E-03    0.17E-03    0.11E-05
 Optimization of the real space projectors (new method)

 maximal supplied QI-value         = 25.13
 optimisation between [QCUT,QGAM] = [ 11.81, 23.88] = [ 39.08,159.64] Ry 
 Optimized for a Real-space Cutoff    1.18 Angstroem

   l    n(q)    QCUT    max X(q) W(low)/X(q) W(high)/X(q)  e(spline) 
   0      8    11.813   115.676    0.10E-03    0.16E-03    0.35E-06
   0      8    11.813    87.132    0.10E-03    0.16E-03    0.35E-06
   1      8    11.813     4.429    0.16E-03    0.13E-04    0.22E-06
   1      8    11.813     2.733    0.13E-03    0.10E-04    0.18E-06
 Optimization of the real space projectors (new method)

 maximal supplied QI-value         = 24.76
 optimisation between [QCUT,QGAM] = [ 11.88, 24.01] = [ 39.54,161.47] Ry 
 Optimized for a Real-space Cutoff    1.18 Angstroem

   l    n(q)    QCUT    max X(q) W(low)/X(q) W(high)/X(q)  e(spline) 
   0      8    11.883    14.049    0.56E-04    0.86E-04    0.22E-06
   0      8    11.883     8.945    0.81E-04    0.11E-03    0.30E-06
   1      8    11.883     7.086    0.16E-03    0.15E-04    0.31E-06
   1      8    11.883     6.747    0.15E-03    0.14E-04    0.28E-06
 Optimization of the real space projectors (new method)

 maximal supplied QI-value         = 24.76
 optimisation between [QCUT,QGAM] = [ 11.88, 24.01] = [ 39.54,161.47] Ry 
 Optimized for a Real-space Cutoff    1.18 Angstroem

   l    n(q)    QCUT    max X(q) W(low)/X(q) W(high)/X(q)  e(spline) 
   0      8    11.883    20.381    0.86E-04    0.11E-03    0.31E-06
   0      8    11.883    15.268    0.94E-04    0.12E-03    0.33E-06
   1      8    11.883     5.964    0.19E-03    0.18E-04    0.33E-06
   1      8    11.883     5.382    0.17E-03    0.20E-04    0.29E-06
  PAW_PBE B 06Sep2000                   :
 energy of atom  1       EATOM=  -71.1703
 kinetic energy error for atom=    0.0009 (will be added to EATOM!!)
  PAW_PBE N 08Apr2002                   :
 energy of atom  2       EATOM= -264.5486
 kinetic energy error for atom=    0.0116 (will be added to EATOM!!)
  PAW_PBE C 08Apr2002                   :
 energy of atom  3       EATOM= -147.1560
 kinetic energy error for atom=    0.0066 (will be added to EATOM!!)
  PAW_PBE F 08Apr2002                   :
 energy of atom  4       EATOM= -659.6475
 kinetic energy error for atom=    0.0296 (will be added to EATOM!!)
  PAW_PBE O 08Apr2002                   :
 energy of atom  5       EATOM= -432.3788
 kinetic energy error for atom=    0.0194 (will be added to EATOM!!)
 
 
 POSCAR: B N C F O                               
  positions in direct lattice
  velocities in cartesian coordinates

 METAGGA = SCAN     LMAXTAU =  6    LMIXTAU =  F

 exchange correlation table for  LEXCH =        8
   RHO(1)=    0.500       N(1)  =     2000
   RHO(2)=  100.500       N(2)  =     4000
 


--------------------------------------------------------------------------------------------------------


 ion  position               nearest neighbor table
   1  0.114  0.057  0.495-  37 1.45  42 1.45  43 1.45
   2  0.114  0.224  0.495-  38 1.45  44 1.45  37 1.45
   3  0.114  0.390  0.495-  45 1.45  39 1.45  38 1.45
   4  0.114  0.557  0.495-  46 1.45  39 1.45  40 1.45
   5  0.114  0.724  0.495-  47 1.45  40 1.45  41 1.45
   6  0.114  0.890  0.495-  41 1.45  48 1.45  42 1.45
   7  0.281  0.057  0.495-  48 1.45  49 1.45  43 1.45
   8  0.281  0.224  0.495-  44 1.45  50 1.45  43 1.45
   9  0.281  0.390  0.495-  45 1.45  51 1.45  44 1.45
  10  0.281  0.557  0.495-  46 1.45  52 1.45  45 1.45
  11  0.281  0.724  0.495-  46 1.45  53 1.45  47 1.45
  12  0.281  0.890  0.495-  47 1.45  54 1.45  48 1.45
  13  0.447  0.057  0.495-  54 1.45  55 1.45  49 1.45
  14  0.447  0.224  0.495-  56 1.45  50 1.45  49 1.45
  15  0.447  0.390  0.495-  51 1.45  57 1.45  50 1.45
  16  0.447  0.557  0.494-  52 1.45  51 1.45  58 1.45
  17  0.447  0.724  0.495-  52 1.45  53 1.45  59 1.45
  18  0.447  0.890  0.495-  53 1.45  54 1.45  60 1.45
  19  0.614  0.057  0.495-  60 1.45  55 1.45  61 1.45
  20  0.614  0.224  0.495-  56 1.45  55 1.45  62 1.45
  21  0.614  0.390  0.494-  57 1.45  63 1.45  56 1.45
  22  0.614  0.557  0.494-  58 1.45  57 1.45  64 1.45
  23  0.614  0.724  0.494-  58 1.45  59 1.45  65 1.45
  24  0.614  0.890  0.495-  59 1.45  60 1.45  66 1.45
  25  0.781  0.057  0.495-  66 1.45  61 1.45  67 1.45
  26  0.781  0.224  0.495-  61 1.45  68 1.45  62 1.45
  27  0.781  0.390  0.495-  63 1.45  69 1.45  62 1.45
  28  0.781  0.557  0.495-  64 1.45  63 1.45  70 1.45
  29  0.781  0.724  0.495-  64 1.45  65 1.45  71 1.45
  30  0.781  0.890  0.495-  65 1.45  66 1.45  72 1.45
  31  0.947  0.057  0.495-  72 1.45  67 1.45  37 1.45
  32  0.947  0.224  0.495-  38 1.45  68 1.45  67 1.45
  33  0.947  0.390  0.495-  39 1.45  68 1.45  69 1.45
  34  0.947  0.557  0.495-  40 1.45  70 1.45  69 1.45
  35  0.947  0.724  0.495-  70 1.45  71 1.45  41 1.45
  36  0.947  0.890  0.495-  71 1.45  72 1.45  42 1.45
  37  0.059  0.113  0.495-   1 1.45  31 1.45   2 1.45
  38  0.058  0.279  0.495-   2 1.45  32 1.45   3 1.45
  39  0.058  0.446  0.495-  33 1.45   3 1.45   4 1.45
  40  0.059  0.613  0.495-  34 1.45   5 1.45   4 1.45
  41  0.059  0.779  0.495-   6 1.45  35 1.45   5 1.45
  42  0.059  0.946  0.495-   1 1.45   6 1.45  36 1.45
  43  0.225  0.113  0.495-   1 1.45   7 1.45   8 1.45
  44  0.225  0.279  0.495-   8 1.45   2 1.45   9 1.45
  45  0.225  0.446  0.495-   3 1.45   9 1.45  10 1.45
  46  0.225  0.613  0.494-   4 1.45  11 1.45  10 1.45
  47  0.225  0.779  0.495-  12 1.45   5 1.45  11 1.45
  48  0.225  0.946  0.495-   6 1.45   7 1.45  12 1.45
  49  0.392  0.113  0.495-   7 1.45  14 1.45  13 1.45
  50  0.392  0.279  0.495-  14 1.45   8 1.45  15 1.45
  51  0.392  0.446  0.494-  15 1.45   9 1.45  16 1.45
  52  0.392  0.613  0.494-  17 1.45  16 1.45  10 1.45
  53  0.392  0.779  0.495-  18 1.45  17 1.45  11 1.45
  54  0.392  0.946  0.495-  13 1.45  12 1.45  18 1.45
  55  0.559  0.113  0.495-  20 1.45  19 1.45  13 1.45
  56  0.559  0.279  0.495-  20 1.45  14 1.45  21 1.45
  57  0.559  0.446  0.494-  21 1.45  15 1.45  22 1.45
  58  0.559  0.613  0.493-  22 1.45  23 1.45  16 1.45
  59  0.559  0.779  0.495-  24 1.45  23 1.45  17 1.45
  60  0.559  0.946  0.495-  19 1.45  24 1.45  18 1.45
  61  0.725  0.113  0.495-  26 1.45  25 1.45  19 1.45
  62  0.725  0.279  0.495-  26 1.45  20 1.45  27 1.45
  63  0.725  0.446  0.495-  27 1.45  28 1.45  21 1.45
  64  0.725  0.613  0.494-  29 1.45  28 1.45  22 1.45
  65  0.725  0.779  0.495-  30 1.45  29 1.45  23 1.45
  66  0.725  0.946  0.495-  25 1.45  30 1.45  24 1.45
  67  0.892  0.113  0.495-  31 1.45  32 1.45  25 1.45
  68  0.892  0.279  0.495-  26 1.45  32 1.45  33 1.45
  69  0.892  0.446  0.495-  27 1.45  34 1.45  33 1.45
  70  0.892  0.613  0.495-  35 1.45  34 1.45  28 1.45
  71  0.892  0.779  0.495-  36 1.45  35 1.45  29 1.45
  72  0.892  0.946  0.495-  31 1.45  36 1.45  30 1.45
  73  0.634  0.408  0.611-  80 1.34  79 1.34  81 1.34  74 1.55
  74  0.620  0.503  0.615-  82 1.35  83 1.36  73 1.55  75 1.55
  75  0.507  0.478  0.615-  84 1.36  85 1.36  74 1.55  76 1.55
  76  0.494  0.574  0.611-  86 1.36  87 1.36  77 1.54  75 1.55
  77  0.386  0.556  0.622-  88 1.37  89 1.38  76 1.54  78 1.56
  78  0.363  0.640  0.607-  91 1.24  90 1.25  77 1.56
  79  0.583  0.340  0.639-  73 1.34
  80  0.602  0.362  0.577-  73 1.34
  81  0.735  0.440  0.615-  73 1.34
  82  0.665  0.550  0.648-  74 1.35
  83  0.670  0.566  0.585-  74 1.36
  84  0.458  0.413  0.586-  75 1.36
  85  0.463  0.430  0.648-  75 1.36
  86  0.566  0.649  0.633-  76 1.36
  87  0.513  0.605  0.574-  76 1.36
  88  0.317  0.460  0.608-  77 1.37
  89  0.379  0.551  0.661-  77 1.38
  90  0.435  0.729  0.612-  78 1.25
  91  0.275  0.607  0.594-  78 1.24
 
  LATTYP: Found a hexagonal cell.
 ALAT       =    15.0731507304
 C/A-ratio  =     2.3296167479
  
  Lattice vectors:
  
 A1 = (   7.5365500567, -13.0537460594,   0.0000000000)
 A2 = (   7.5365500567,  13.0537460594,   0.0000000000)
 A3 = (   0.0000000000,   0.0000000000,  35.1146643856)


Analysis of symmetry for initial positions (statically):
=====================================================================
 Subroutine PRICEL returns:
 Original cell was already a primitive cell.
 

 Routine SETGRP: Setting up the symmetry group for a 
 hexagonal supercell.


 Subroutine GETGRP returns: Found  1 space group operations
 (whereof  1 operations were pure point group operations)
 out of a pool of 24 trial point group operations.


The static configuration has the point symmetry C_1 .


Analysis of symmetry for dynamics (positions and initial velocities):
=====================================================================
 Subroutine PRICEL returns:
 Original cell was already a primitive cell.
 

 Routine SETGRP: Setting up the symmetry group for a 
 hexagonal supercell.


 Subroutine GETGRP returns: Found  1 space group operations
 (whereof  1 operations were pure point group operations)
 out of a pool of 24 trial point group operations.


The dynamic configuration has the point symmetry C_1 .


Analysis of constrained symmetry for selective dynamics:
=====================================================================
 Subroutine PRICEL returns:
 Original cell was already a primitive cell.
 

 Routine SETGRP: Setting up the symmetry group for a 
 hexagonal supercell.


 Subroutine GETGRP returns: Found  1 space group operations
 (whereof  1 operations were pure point group operations)
 out of a pool of 24 trial point group operations.


The constrained configuration has the point symmetry C_1 .


Analysis of structural, dynamic, and magnetic symmetry:
=====================================================================
 Subroutine PRICEL returns:
 Original cell was already a primitive cell.
 

 Routine SETGRP: Setting up the symmetry group for a 
 hexagonal supercell.


 Subroutine GETGRP returns: Found  1 space group operations
 (whereof  1 operations were pure point group operations)
 out of a pool of 24 trial point group operations.


The magnetic configuration has the point symmetry C_1 .


 Subroutine INISYM returns: Found  1 space group operations
 (whereof  1 operations are pure point group operations),
 and found     1 'primitive' translations

 
 
 KPOINTS: K-Point Grid                            

Automatic generation of k-mesh.
Space group operators:
 irot       det(A)        alpha          n_x          n_y          n_z        tau_x        tau_y        tau_z
    1     1.000000     0.000000     1.000000     0.000000     0.000000     0.000000     0.000000     0.000000
 
 Subroutine IBZKPT returns following result:
 ===========================================
 
 Found      5 irreducible k-points:
 
 Following reciprocal coordinates:
            Coordinates               Weight
  0.000000  0.000000  0.000000      1.000000
  0.333333  0.000000  0.000000      2.000000
  0.000000  0.333333  0.000000      2.000000
  0.333333  0.333333  0.000000      2.000000
 -0.333333  0.333333  0.000000      2.000000
 
 Following cartesian coordinates:
            Coordinates               Weight
  0.000000  0.000000  0.000000      1.000000
  0.022114 -0.012768  0.000000      2.000000
  0.022114  0.012768  0.000000      2.000000
  0.044229  0.000000  0.000000      2.000000
  0.000000  0.025535  0.000000      2.000000
 


--------------------------------------------------------------------------------------------------------




 Dimension of arrays:
   k-points           NKPTS =      5   k-points in BZ     NKDIM =      5   number of bands    NBANDS=    296
   number of dos      NEDOS =   1200   number of ions     NIONS =     91
   non local maximal  LDIM  =      4   non local SUM 2l+1 LMDIM =      8
   total plane-waves  NPLWV = ******
   max r-space proj   IRMAX =   6598   max aug-charges    IRDMAX=   8974
   dimension x,y,z NGX =   120 NGY =  120 NGZ =  270
   dimension x,y,z NGXF=   240 NGYF=  240 NGZF=  540
   support grid    NGXF=   240 NGYF=  240 NGZF=  540
   ions per type =              36  36   6  11   2
   NGX,Y,Z   is equivalent  to a cutoff of  13.24, 13.24, 12.78 a.u.
   NGXF,Y,Z  is equivalent  to a cutoff of  26.47, 26.47, 25.57 a.u.

 SYSTEM =  SiC                                     
 POSCAR =  B N C F O                               

 Startparameter for this run:
   NWRITE =      2    write-flag & timer
   PREC   = accura    normal or accurate (medium, high low for compatibility)
   ISTART =      1    job   : 0-new  1-cont  2-samecut
   ICHARG =      0    charge: 1-file 2-atom 10-const
   ISPIN  =      2    spin polarized calculation?
   LNONCOLLINEAR =      F non collinear calculations
   LSORBIT =      F    spin-orbit coupling
   INIWAV =      1    electr: 0-lowe 1-rand  2-diag
   LASPH  =      T    aspherical Exc in radial PAW
   METAGGA=      F    non-selfconsistent MetaGGA calc.

 Electronic Relaxation 1
   ENCUT  =  550.0 eV  40.42 Ry    6.36 a.u.  28.82 28.82 67.15*2*pi/ulx,y,z
   ENINI  =  550.0     initial cutoff
   ENAUG  =  644.9 eV  augmentation charge cutoff
   NELM   =    100;   NELMIN=  2; NELMDL=  0     # of ELM steps 
   EDIFF  = 0.1E-04   stopping-criterion for ELM
   LREAL  =      T    real-space projection
   NLSPLINE    = F    spline interpolate recip. space projectors
   LCOMPAT=      F    compatible to vasp.4.4
   GGA_COMPAT  = T    GGA compatible to vasp.4.4-vasp.4.6
   LMAXPAW     = -100 max onsite density
   LMAXMIX     =    2 max onsite mixed and CHGCAR
   VOSKOWN=      0    Vosko Wilk Nusair interpolation
   ROPT   =   -0.00025  -0.00025  -0.00025  -0.00025
   ROPT   =   -0.00025
 Ionic relaxation
   EDIFFG = -.2E-01   stopping-criterion for IOM
   NSW    =    500    number of steps for IOM
   NBLOCK =      1;   KBLOCK =    500    inner block; outer block 
   IBRION =      2    ionic relax: 0-MD 1-quasi-New 2-CG
   NFREE  =      1    steps in history (QN), initial steepest desc. (CG)
   ISIF   =      2    stress and relaxation
   IWAVPR =     11    prediction:  0-non 1-charg 2-wave 3-comb
   ISYM   =      2    0-nonsym 1-usesym 2-fastsym
   LCORR  =      T    Harris-Foulkes like correction to forces

   POTIM  = 0.5000    time-step for ionic-motion
   TEIN   =    0.0    initial temperature
   TEBEG  =    0.0;   TEEND  =   0.0 temperature during run
   SMASS  =  -3.00    Nose mass-parameter (am)
   estimated Nose-frequenzy (Omega)   =  0.10E-29 period in steps =****** mass=  -0.519E-26a.u.
   SCALEE = 1.0000    scale energy and forces
   NPACO  =    256;   APACO  = 16.0  distance and # of slots for P.C.
   PSTRESS=    0.0 pullay stress

  Mass of Ions in am
   POMASS =  10.81 14.00 12.01 19.00 16.00
  Ionic Valenz
   ZVAL   =   3.00  5.00  4.00  7.00  6.00
  Atomic Wigner-Seitz radii
   RWIGS  =  -1.00 -1.00 -1.00 -1.00 -1.00
  virtual crystal weights 
   VCA    =   1.00  1.00  1.00  1.00  1.00
   NELECT =     402.0000    total number of electrons
   NUPDOWN=      -1.0000    fix difference up-down

 DOS related values:
   EMIN   =  10.00;   EMAX   =-10.00  energy-range for DOS
   EFERMI =   0.00
   ISMEAR =     0;   SIGMA  =   0.05  broadening in eV -4-tet -1-fermi 0-gaus

 Electronic relaxation 2 (details)
   IALGO  =     68    algorithm
   LDIAG  =      T    sub-space diagonalisation (order eigenvalues)
   LSUBROT=      F    optimize rotation matrix (better conditioning)
   TURBO    =      0    0=normal 1=particle mesh
   IRESTART =      0    0=no restart 2=restart with 2 vectors
   NREBOOT  =      0    no. of reboots
   NMIN     =      0    reboot dimension
   EREF     =   0.00    reference energy to select bands
   IMIX   =      4    mixing-type and parameters
     AMIX     =   0.40;   BMIX     =  1.00
     AMIX_MAG =   1.60;   BMIX_MAG =  1.00
     AMIN     =   0.10
     WC   =   100.;   INIMIX=   1;  MIXPRE=   1;  MAXMIX= -45

 Intra band minimization:
   WEIMIN = 0.0010     energy-eigenvalue tresh-hold
   EBREAK =  0.84E-08  absolut break condition
   DEPER  =   0.30     relativ break condition  

   TIME   =   0.40     timestep for ELM

  volume/ion in A,a.u.               =      75.93       512.37
  Fermi-wavevector in a.u.,A,eV,Ry     =   0.634368  1.198782  5.475298  0.402423
  Thomas-Fermi vector in A             =   1.698340
 
 Write flags
   LWAVE        =      T    write WAVECAR
   LDOWNSAMPLE  =      F    k-point downsampling of WAVECAR
   LCHARG       =      F    write CHGCAR
   LVTOT        =      F    write LOCPOT, total local potential
   LVHAR        =      T    write LOCPOT, Hartree potential only
   LELF         =      F    write electronic localiz. function (ELF)
   LORBIT       =     11    0 simple, 1 ext, 2 COOP (PROOUT), +10 PAW based schemes


 Dipole corrections
   LMONO  =      F    monopole corrections only (constant potential shift)
   LDIPOL =      F    correct potential (dipole corrections)
   IDIPOL =      0    1-x, 2-y, 3-z, 4-all directions 
   EPSILON=  1.0000000 bulk dielectric constant

 Exchange correlation treatment:
   GGA     =    --    GGA type
   LEXCH   =     8    internal setting for exchange type
   VOSKOWN=      0    Vosko Wilk Nusair interpolation
   LHFCALC =     F    Hartree Fock is set to
   LHFONE  =     F    Hartree Fock one center treatment
   AEXX    =    0.0000 exact exchange contribution

 vdW DFT:
   LUSE_VDW   =     T    switch on vdW DFT
   Zab_VDW    =-.8491    correlation parameter
   PARAM1     =0.1234
   PARAM2     =1.0000
   PARAM3     =0.0000
   -- rVV10 --
   BPARAM     =15.7000
   CPARAM     = 0.0093

 Linear response parameters
   LEPSILON=     F    determine dielectric tensor
   LRPA    =     F    only Hartree local field effects (RPA)
   LNABLA  =     F    use nabla operator in PAW spheres
   LVEL    =     F    velocity operator in full k-point grid
   LINTERFAST=   F  fast interpolation
   KINTER  =     0    interpolate to denser k-point grid
   CSHIFT  =0.1000    complex shift for real part using Kramers Kronig
   OMEGAMAX=  -1.0    maximum frequency
   DEG_THRESHOLD= 0.2000000E-02 threshold for treating states as degnerate
   RTIME   =   -0.100 relaxation time in fs
  (WPLASMAI=    0.000 imaginary part of plasma frequency in eV, 0.658/RTIME)
   DFIELD  = 0.0000000 0.0000000 0.0000000 field for delta impulse in time
 
 Orbital magnetization related:
   ORBITALMAG=     F  switch on orbital magnetization
   LCHIMAG   =     F  perturbation theory with respect to B field
   DQ        =  0.001000  dq finite difference perturbation B field
   LLRAUG    =     F  two centre corrections for induced B field

 Solvation model:
   LSOL    =     T         switch on solvation model
   EB_K    = 78.400000     relative permittivity of the bulk solvent
   SIGMA_K =  0.600000     width of the dielectric cavity
   NC_K    =  0.002500     cutoff charge density
   TAU     =  0.000000     cavity surface tension
   LAMBDA_D_K    =  3.040000     Debye length in Angstroms
   LRHOB     =     F     write boundcharge  density
   LRHOION     =     F     write ioniccharge density



--------------------------------------------------------------------------------------------------------


 conjugate gradient relaxation of ions
   using selective dynamics as specified on POSCAR
 charge density and potential will be updated during run
 spin polarized calculation
 RMM-DIIS sequential band-by-band and
  variant of blocked Davidson during initial phase
 perform sub-space diagonalisation
    before iterative eigenvector-optimisation
 modified Broyden-mixing scheme, WC =      100.0
 initial mixing is a Kerker type mixing with AMIX =  0.4000 and BMIX =      1.0000
 Hartree-type preconditioning will be used
 using additional bands           95
 real space projection scheme for non local part
 use partial core corrections
 calculate Harris-corrections to forces 
   (improved forces if not selfconsistent)
 use gradient corrections 
 use of overlap-Matrix (Vanderbilt PP)
 Gauss-broadening in eV      SIGMA  =   0.05


--------------------------------------------------------------------------------------------------------


  energy-cutoff  :      550.00
  volume of cell :     6909.18
      direct lattice vectors                 reciprocal lattice vectors
     7.536550057-13.053746059  0.000000000     0.066343353 -0.038303181  0.000000000
     7.536550057 13.053746059  0.000000000     0.066343353  0.038303181  0.000000000
     0.000000000  0.000000000 35.114664386     0.000000000  0.000000000  0.028478131

  length of vectors
    15.073150730 15.073150730 35.114664386     0.076606620  0.076606620  0.028478131


 
 old parameters found on file WAVECAR:
  energy-cutoff  :      550.00
  volume of cell :     6909.18
      direct lattice vectors                 reciprocal lattice vectors
     7.536550057-13.053746059  0.000000000     0.066343353 -0.038303181  0.000000000
     7.536550057 13.053746059  0.000000000     0.066343353  0.038303181  0.000000000
     0.000000000  0.000000000 35.114664386     0.000000000  0.000000000  0.028478131

  length of vectors

 
 k-points in units of 2pi/SCALE and weight: K-Point Grid                            
   0.00000000  0.00000000  0.00000000       0.111
   0.02211445 -0.01276773  0.00000000       0.222
   0.02211445  0.01276773  0.00000000       0.222
   0.04422890  0.00000000  0.00000000       0.222
   0.00000000  0.02553545  0.00000000       0.222
 
 k-points in reciprocal lattice and weights: K-Point Grid                            
   0.00000000  0.00000000  0.00000000       0.111
   0.33333333  0.00000000  0.00000000       0.222
   0.00000000  0.33333333  0.00000000       0.222
   0.33333333  0.33333333  0.00000000       0.222
  -0.33333333  0.33333333  0.00000000       0.222
 
 position of ions in fractional coordinates (direct lattice) 
   0.11408663  0.05706630  0.49518222
   0.11407589  0.22373228  0.49525298
   0.11410567  0.39041202  0.49506448
   0.11415531  0.55707367  0.49474424
   0.11408439  0.72369463  0.49492421
   0.11408149  0.89037384  0.49509185
   0.28074109  0.05705280  0.49512778
   0.28075355  0.22375260  0.49518453
   0.28076184  0.39045609  0.49496964
   0.28074594  0.55711978  0.49476067
   0.28072054  0.72359364  0.49472565
   0.28072732  0.89033094  0.49502915
   0.44739498  0.05702373  0.49498965
   0.44742402  0.22374460  0.49487792
   0.44742666  0.39045658  0.49460078
   0.44742264  0.55709910  0.49403566
   0.44734296  0.72363416  0.49461308
   0.44736795  0.89029009  0.49490620
   0.61405451  0.05700725  0.49500702
   0.61403459  0.22371699  0.49486575
   0.61405580  0.39041145  0.49447531
   0.61405151  0.55711701  0.49388420
   0.61401184  0.72363771  0.49406516
   0.61404352  0.89031335  0.49484424
   0.78072984  0.05703290  0.49505764
   0.78071643  0.22369063  0.49512206
   0.78071228  0.39038890  0.49493082
   0.78071129  0.55707355  0.49461505
   0.78072449  0.72370077  0.49452577
   0.78073244  0.89035922  0.49485692
   0.94741091  0.05705023  0.49513455
   0.94739465  0.22371643  0.49519228
   0.94740828  0.39037940  0.49507081
   0.94741730  0.55705978  0.49493586
   0.94739945  0.72370346  0.49492007
   0.94741897  0.89038495  0.49501207
   0.05852648  0.11260863  0.49519609
   0.05849789  0.27925515  0.49521967
   0.05849180  0.44591546  0.49495471
   0.05850699  0.61259751  0.49484194
   0.05851396  0.77926644  0.49500762
   0.05854113  0.94595438  0.49512895
   0.22519892  0.11262648  0.49520783
   0.22519147  0.27928228  0.49525112
   0.22517378  0.44593900  0.49491045
   0.22514087  0.61258292  0.49440261
   0.22517909  0.77924535  0.49491973
   0.22519179  0.94594175  0.49511505
   0.39185640  0.11261584  0.49503071
   0.39187424  0.27930550  0.49499174
   0.39186679  0.44596045  0.49449482
   0.39185428  0.61258733  0.49439438
   0.39184194  0.77925099  0.49469054
   0.39185184  0.94592826  0.49500033
   0.55852223  0.11259830  0.49494839
   0.55851304  0.27927809  0.49457330
   0.55854654  0.44598292  0.49427131
   0.55855713  0.61262276  0.49322518
   0.55851914  0.77924463  0.49452999
   0.55852530  0.94592016  0.49496044
   0.72517871  0.11259256  0.49507362
   0.72516392  0.27925864  0.49504990
   0.72518197  0.44596347  0.49461790
   0.72520388  0.61263463  0.49424420
   0.72519049  0.77926531  0.49451210
   0.72519984  0.94593739  0.49491717
   0.89185056  0.11260030  0.49515405
   0.89181783  0.27924967  0.49516816
   0.89183067  0.44593422  0.49501810
   0.89183968  0.61260385  0.49489636
   0.89186776  0.77928029  0.49484635
   0.89187239  0.94594587  0.49504070
   0.63438523  0.40830468  0.61117882
   0.61963958  0.50255999  0.61478012
   0.50674283  0.47816596  0.61485405
   0.49361526  0.57373175  0.61100383
   0.38632675  0.55555015  0.62152018
   0.36272608  0.63958550  0.60693825
   0.58341190  0.34049625  0.63884590
   0.60230853  0.36203989  0.57740195
   0.73453873  0.44024266  0.61460234
   0.66520396  0.54984300  0.64774953
   0.66973081  0.56593263  0.58522306
   0.45779573  0.41321559  0.58553650
   0.46330673  0.42954456  0.64801521
   0.56583470  0.64880423  0.63322608
   0.51287981  0.60486033  0.57409617
   0.31664273  0.45992492  0.60847518
   0.37859377  0.55133059  0.66063191
   0.43520496  0.72862288  0.61163232
   0.27476205  0.60687316  0.59435198
 
 position of ions in cartesian coordinates  (Angst):
   1.28990262 -0.74432893 17.38815761
   2.54590815  1.43142670 17.39064232
   3.80232282  3.60683296 17.38402311
   5.05875087  5.78174377 17.37277786
   6.31396356  7.95769731 17.37909745
   7.57012790 10.13352328 17.38498419
   2.54580057 -2.91997021 17.38624586
   3.80223583 -0.74407587 17.38823850
   5.05866756  1.43192085 17.38069266
   6.31461692  3.60771396 17.37335497
   7.56906411  5.78115299 17.37212508
   8.82573920  7.95761084 17.38278248
   3.80157683 -5.09580718 17.38139546
   5.05829586 -2.91985430 17.37747194
   6.31474899 -0.74367297 17.36774026
   7.57062839  1.43168857 17.34789635
   8.82512769  3.60663515 17.36817234
  10.08132678  5.78179316 17.37846521
   5.05749052 -7.27155354 17.38200542
   6.31375677 -5.09510681 17.37704490
   7.57021776 -2.91939652 17.36333439
   8.82657015 -0.74320852 17.34257777
  10.08126281  1.43102837 17.34893217
  11.33766083  3.60635619 17.37628946
   6.31384077 -9.44695605 17.38378283
   7.56976414 -7.27127338 17.38604498
   8.82606264 -5.09518230 17.37932955
  10.08228245 -2.91931021 17.36824142
  11.33817626 -0.74437311 17.36510650
  12.59426593  1.43104017 17.37673458
   7.57017165-11.62254217 17.38648340
   8.82613726 -9.44671163 17.38851059
  10.08230380 -7.27131358 17.38424529
  11.33856689 -5.09562795 17.37950655
  12.59435080 -2.92007064 17.37895224
  13.85070121 -0.74450760 17.38218268
   1.28976826  0.70597467 17.38864448
   2.54549270  2.88170928 17.38947236
   3.80149058  5.05733012 17.38016868
   5.05781266  7.23295690 17.37620874
   6.31397395  9.40851981 17.38202658
   7.57043070 11.58406721 17.38628693
   2.54603806 -1.46949199 17.38905662
   3.80199167  0.70608764 17.39057694
   5.05787511  2.88181313 17.37861423
   6.31354731  5.05757010 17.36078189
   7.56989509  7.23264020 17.37894035
   8.82630658  9.40848694 17.38579879
   3.80198033 -3.64513531 17.38283709
   5.05837971 -1.46944386 17.38146869
   6.31432689  0.70612493 17.36401979
   7.57002445  2.88139319 17.36049279
   8.82600044  5.05713938 17.37089218
  10.08224674  7.23277288 17.38177054
   5.05793351 -5.82097775 17.37994663
   6.31405483 -3.64506211 17.36677543
   7.57068654 -1.46937687 17.35617133
   8.82665592  0.70575904 17.31943671
  10.08212360  2.88129448 17.36525449
  11.33832851  5.05695413 17.38036960
   6.31390510 -7.99654395 17.38434385
   7.56988093 -5.82073434 17.38351101
   8.82639624 -3.64484730 17.36834169
  10.08268694 -1.46945037 17.35521905
  11.33840644  0.70587908 17.36462660
  12.59460943  2.88145195 17.37885038
   7.57009414-10.17213504 17.38716820
   8.82580879 -7.99630926 17.38766372
  10.08213204 -5.82061897 17.38239458
  11.33831394 -3.64507355 17.37811974
  12.59469097 -1.46968829 17.37636347
  13.85080933  0.70586142 17.38318799
   7.85828477 -2.95119809 21.46133920
   8.45751324 -1.52832723 21.58779748
   7.42281439 -0.37303519 21.59039355
   8.04411412  1.04582034 21.45519437
   7.09850242  2.20899933 21.82447255
   7.55397139  3.61405257 21.31243309
   6.96307999 -3.17095924 22.43285935
   7.26786013 -3.13640593 20.27527561
   8.85379880 -3.84166614 21.58155484
   9.15726225 -1.50589266 22.74550728
   9.31263935 -1.35495508 20.54991148
   6.56442048 -0.58193783 20.56091763
   6.72901847 -0.44072284 22.75483646
   9.15418710  1.08306306 22.23552135
   8.42390456  1.20069031 20.15919439
   5.85264095  1.87036939 21.36640176
   7.00842146  2.25486257 23.19786772
   8.77124681  3.83020302 21.47726373
   6.64448792  4.33529408 20.87047025
 


--------------------------------------------------------------------------------------------------------


 k-point  1 :   0.0000 0.0000 0.0000  plane waves:  202395
 k-point  2 :   0.3333 0.0000 0.0000  plane waves:  202358
 k-point  3 :   0.0000 0.3333 0.0000  plane waves:  202358
 k-point  4 :   0.3333 0.3333 0.0000  plane waves:  202335
 k-point  5 :  -0.3333 0.3333 0.0000  plane waves:  202358

 maximum and minimum number of plane-waves per node :      8479     8400

 maximum number of plane-waves:    202395
 maximum index in each direction: 
   IXMAX=   29   IYMAX=   28   IZMAX=   67
   IXMIN=  -29   IYMIN=  -29   IZMIN=  -67


 real space projection operators:
  total allocation   :      27153.75 KBytes
  max/ min on nodes  :       1151.81       1110.81


 parallel 3D FFT for wavefunctions:
    minimum data exchange during FFTs selected (reduces bandwidth)
 parallel 3D FFT for charge:
    minimum data exchange during FFTs selected (reduces bandwidth)


 total amount of memory used by VASP MPI-rank0   229725. kBytes
=======================================================================

   base      :      30000. kBytes
   nonlr-proj:      11601. kBytes
   fftplans  :      17498. kBytes
   grid      :      70152. kBytes
   one-center:         24. kBytes
   wavefun   :     100450. kBytes
 
     INWAV:  cpu time   27.3971: real time   28.0960
 Broyden mixing: mesh for mixing (old mesh)
   NGX = 57   NGY = 57   NGZ =135
  (NGX  =240   NGY  =240   NGZ  =540)
  gives a total of 438615 points

 charge density for first step will be calculated from the start-wavefunctions


--------------------------------------------------------------------------------------------------------


 Maximum index for non-local projection operator          372
 Maximum index for augmentation-charges          406 (set IRDMAX)


--------------------------------------------------------------------------------------------------------


 initial charge from wavefunction
 First call to EWALD:  gamma=   0.093
 Maximum number of real-space cells 4x 4x 2
 Maximum number of reciprocal cells 2x 2x 5

    FEWALD:  cpu time    0.0120: real time    0.0452


--------------------------------------- Iteration      1(   1)  ---------------------------------------


    POTLOK:  cpu time   35.4039: real time   35.8691
    SETDIJ:  cpu time    0.6556: real time    0.6836
     EDDAV:  cpu time  164.2686: real time  165.2211
       DOS:  cpu time    0.0909: real time    0.0911
    CHARGE:  cpu time   33.0695: real time   33.1307
    MIXING:  cpu time    0.0993: real time    0.0996
    --------------------------------------------
      LOOP:  cpu time  233.5881: real time  235.0953

 eigenvalue-minimisations  :  5952
 total energy-change (2. order) :-0.8456289E+03  (-0.3123906E+02)
 number of electron     402.0000033 magnetization      -0.0000000
 augmentation part       24.1702201 magnetization       0.0000026

 Broyden mixing:
  rms(total) = 0.16011E+01    rms(broyden)= 0.15997E+01
  rms(prec ) = 0.16279E+01
  weight for this iteration     100.00

 Free energy of the ion-electron system (eV)
  ---------------------------------------------------
  alpha Z        PSCENC =       118.79620543
  Ewald energy   TEWEN  =    145204.17414036
  -Hartree energ DENC   =   -164070.66185845
  -exchange      EXHF   =         0.00000000
  -V(xc)+E(xc)   XCENC  =      1911.33023456
  PAW double counting   =     47259.53495719   -47463.37521455
  entropy T*S    EENTRO =        -0.00000000
  eigenvalues    EBANDS =     -5916.70423071
  atomic energy  EATOM  =     21088.84010193
  Solvation  Ediel_sol  =      1022.43681256
  ---------------------------------------------------
  free energy    TOTEN  =      -845.62885168 eV

  energy without entropy =     -845.62885168  energy(sigma->0) =     -845.62885168


--------------------------------------------------------------------------------------------------------




--------------------------------------- Iteration      1(   2)  ---------------------------------------


    POTLOK:  cpu time   32.6841: real time   32.7552
    SETDIJ:  cpu time    0.4317: real time    0.4327
    EDDIAG:  cpu time   38.5793: real time   38.6341
  RMM-DIIS:  cpu time  217.6081: real time  218.0174
    ORTHCH:  cpu time    0.9418: real time    0.9439
       DOS:  cpu time    0.0021: real time    0.0021
    CHARGE:  cpu time   32.9903: real time   33.0535
    MIXING:  cpu time    0.0352: real time    0.0364
    --------------------------------------------
      LOOP:  cpu time  323.2725: real time  323.8751

 eigenvalue-minimisations  :  5920
 total energy-change (2. order) : 0.2993153E+01  (-0.1630695E+01)
 number of electron     402.0000032 magnetization      -0.0000000
 augmentation part       24.0804080 magnetization      -0.0000013

 Broyden mixing:
  rms(total) = 0.10209E+01    rms(broyden)= 0.10209E+01
  rms(prec ) = 0.10400E+01
  weight for this iteration     100.00

 eigenvalues of (default mixing * dielectric matrix)
  average eigenvalue GAMMA=   2.0133
  2.0133

 Free energy of the ion-electron system (eV)
  ---------------------------------------------------
  alpha Z        PSCENC =       118.79620543
  Ewald energy   TEWEN  =    145204.17414036
  -Hartree energ DENC   =   -164066.87003936
  -exchange      EXHF   =         0.00000000
  -V(xc)+E(xc)   XCENC  =      1910.58263511
  PAW double counting   =     46583.57898091   -46789.13829451
  entropy T*S    EENTRO =        -0.00000000
  eigenvalues    EBANDS =     -5897.15923196
  atomic energy  EATOM  =     21088.84010193
  Solvation  Ediel_sol  =      1004.55980350
  ---------------------------------------------------
  free energy    TOTEN  =      -842.63569859 eV

  energy without entropy =     -842.63569859  energy(sigma->0) =     -842.63569859


--------------------------------------------------------------------------------------------------------




--------------------------------------- Iteration      1(   3)  ---------------------------------------


    POTLOK:  cpu time   32.5355: real time   32.6105
    SETDIJ:  cpu time    0.4323: real time    0.4332
    EDDIAG:  cpu time   38.5382: real time   38.5971
  RMM-DIIS:  cpu time  217.7456: real time  218.1486
    ORTHCH:  cpu time    0.9482: real time    0.9502
       DOS:  cpu time    0.0021: real time    0.0021
    CHARGE:  cpu time   33.0557: real time   33.1198
    MIXING:  cpu time    0.0162: real time    0.0162
    --------------------------------------------
      LOOP:  cpu time  323.2738: real time  323.8777

 eigenvalue-minimisations  :  5920
 total energy-change (2. order) : 0.2071878E+01  (-0.6368251E+00)
 number of electron     402.0000033 magnetization      -0.0000000
 augmentation part       23.9401306 magnetization       0.0000003

 Broyden mixing:
  rms(total) = 0.27629E+00    rms(broyden)= 0.27614E+00
  rms(prec ) = 0.28586E+00
  weight for this iteration     100.00

 eigenvalues of (default mixing * dielectric matrix)
  average eigenvalue GAMMA=   1.5241
  0.7909  2.2572

 Free energy of the ion-electron system (eV)
  ---------------------------------------------------
  alpha Z        PSCENC =       118.79620543
  Ewald energy   TEWEN  =    145204.17414036
  -Hartree energ DENC   =   -164068.26301472
  -exchange      EXHF   =         0.00000000
  -V(xc)+E(xc)   XCENC  =      1913.07696969
  PAW double counting   =     45722.08463663   -45928.78044245
  entropy T*S    EENTRO =        -0.00000000
  eigenvalues    EBANDS =     -5881.50268054
  atomic energy  EATOM  =     21088.84010193
  Solvation  Ediel_sol  =       991.01026290
  ---------------------------------------------------
  free energy    TOTEN  =      -840.56382077 eV

  energy without entropy =     -840.56382077  energy(sigma->0) =     -840.56382077


--------------------------------------------------------------------------------------------------------




--------------------------------------- Iteration      1(   4)  ---------------------------------------


    POTLOK:  cpu time   31.0576: real time   31.1283
    SETDIJ:  cpu time    0.4309: real time    0.4320
    EDDIAG:  cpu time   38.5180: real time   38.5915
  RMM-DIIS:  cpu time  218.7118: real time  219.1311
    ORTHCH:  cpu time    0.9466: real time    0.9487
       DOS:  cpu time    0.0020: real time    0.0020
    CHARGE:  cpu time   33.5645: real time   33.6324
    MIXING:  cpu time    0.0167: real time    0.0172
    --------------------------------------------
      LOOP:  cpu time  323.2481: real time  323.8832

 eigenvalue-minimisations  :  5940
 total energy-change (2. order) : 0.5393515E-01  (-0.3170987E-01)
 number of electron     402.0000033 magnetization      -0.0000000
 augmentation part       23.9611776 magnetization      -0.0000010

 Broyden mixing:
  rms(total) = 0.14726E+00    rms(broyden)= 0.14725E+00
  rms(prec ) = 0.15704E+00
  weight for this iteration     100.00

 eigenvalues of (default mixing * dielectric matrix)
  average eigenvalue GAMMA=   1.4991
  2.3102  1.0936  1.0936

 Free energy of the ion-electron system (eV)
  ---------------------------------------------------
  alpha Z        PSCENC =       118.79620543
  Ewald energy   TEWEN  =    145204.17414036
  -Hartree energ DENC   =   -164058.68067290
  -exchange      EXHF   =         0.00000000
  -V(xc)+E(xc)   XCENC  =      1912.47814391
  PAW double counting   =     45592.14491318   -45798.59966106
  entropy T*S    EENTRO =        -0.00000000
  eigenvalues    EBANDS =     -5890.24017723
  atomic energy  EATOM  =     21088.84010193
  Solvation  Ediel_sol  =       990.57712076
  ---------------------------------------------------
  free energy    TOTEN  =      -840.50988562 eV

  energy without entropy =     -840.50988562  energy(sigma->0) =     -840.50988562


--------------------------------------------------------------------------------------------------------




--------------------------------------- Iteration      1(   5)  ---------------------------------------


    POTLOK:  cpu time   31.2271: real time   31.3277
    SETDIJ:  cpu time    0.4308: real time    0.4317
    EDDIAG:  cpu time   38.5804: real time   38.6342
  RMM-DIIS:  cpu time  217.5967: real time  218.0054
    ORTHCH:  cpu time    0.9644: real time    0.9666
       DOS:  cpu time    0.0022: real time    0.0022
    CHARGE:  cpu time   32.9424: real time   33.0023
    MIXING:  cpu time    0.0172: real time    0.0187
    --------------------------------------------
      LOOP:  cpu time  321.7612: real time  322.3889

 eigenvalue-minimisations  :  5922
 total energy-change (2. order) :-0.8569052E-02  (-0.1363009E-01)
 number of electron     402.0000033 magnetization      -0.0000000
 augmentation part       23.9927390 magnetization      -0.0000026

 Broyden mixing:
  rms(total) = 0.59923E-01    rms(broyden)= 0.59899E-01
  rms(prec ) = 0.73260E-01
  weight for this iteration     100.00

 eigenvalues of (default mixing * dielectric matrix)
  average eigenvalue GAMMA=   1.5670
  2.3714  0.9915  1.4526  1.4526

 Free energy of the ion-electron system (eV)
  ---------------------------------------------------
  alpha Z        PSCENC =       118.79620543
  Ewald energy   TEWEN  =    145204.17414036
  -Hartree energ DENC   =   -164049.12990687
  -exchange      EXHF   =         0.00000000
  -V(xc)+E(xc)   XCENC  =      1912.19788702
  PAW double counting   =     45541.87430906   -45748.10134915
  entropy T*S    EENTRO =        -0.00000000
  eigenvalues    EBANDS =     -5899.39099210
  atomic energy  EATOM  =     21088.84010193
  Solvation  Ediel_sol  =       990.22114966
  ---------------------------------------------------
  free energy    TOTEN  =      -840.51845467 eV

  energy without entropy =     -840.51845467  energy(sigma->0) =     -840.51845467


--------------------------------------------------------------------------------------------------------




--------------------------------------- Iteration      1(   6)  ---------------------------------------


    POTLOK:  cpu time   31.4852: real time   31.5517
    SETDIJ:  cpu time    0.4319: real time    0.4331
    EDDIAG:  cpu time   38.5354: real time   38.5922
  RMM-DIIS:  cpu time  217.7673: real time  218.1780
    ORTHCH:  cpu time    0.9480: real time    0.9501
       DOS:  cpu time    0.0020: real time    0.0020
    CHARGE:  cpu time   33.0774: real time   33.1429
    MIXING:  cpu time    0.0207: real time    0.0207
    --------------------------------------------
      LOOP:  cpu time  322.2679: real time  322.8708

 eigenvalue-minimisations  :  5920
 total energy-change (2. order) :-0.2937037E-01  (-0.2979812E-02)
 number of electron     402.0000033 magnetization      -0.0000000
 augmentation part       23.9890192 magnetization      -0.0000031

 Broyden mixing:
  rms(total) = 0.31624E-01    rms(broyden)= 0.31622E-01
  rms(prec ) = 0.44577E-01
  weight for this iteration     100.00

 eigenvalues of (default mixing * dielectric matrix)
  average eigenvalue GAMMA=   1.6256
  2.6866  2.2601  0.9851  1.0981  1.0981

 Free energy of the ion-electron system (eV)
  ---------------------------------------------------
  alpha Z        PSCENC =       118.79620543
  Ewald energy   TEWEN  =    145204.17414036
  -Hartree energ DENC   =   -164042.51250940
  -exchange      EXHF   =         0.00000000
  -V(xc)+E(xc)   XCENC  =      1912.26531790
  PAW double counting   =     45516.40612685   -45722.62469592
  entropy T*S    EENTRO =        -0.00000000
  eigenvalues    EBANDS =     -5904.32238103
  atomic energy  EATOM  =     21088.84010193
  Solvation  Ediel_sol  =       988.42986884
  ---------------------------------------------------
  free energy    TOTEN  =      -840.54782504 eV

  energy without entropy =     -840.54782504  energy(sigma->0) =     -840.54782504


--------------------------------------------------------------------------------------------------------




--------------------------------------- Iteration      1(   7)  ---------------------------------------


    POTLOK:  cpu time   31.0214: real time   31.0854
    SETDIJ:  cpu time    0.4324: real time    0.4336
    EDDIAG:  cpu time   38.4992: real time   38.5617
  RMM-DIIS:  cpu time  217.6621: real time  218.0769
    ORTHCH:  cpu time    0.9328: real time    0.9350
       DOS:  cpu time    0.0022: real time    0.0022
    CHARGE:  cpu time   33.0277: real time   33.0919
    MIXING:  cpu time    0.0184: real time    0.0184
    --------------------------------------------
      LOOP:  cpu time  321.5961: real time  322.2051

 eigenvalue-minimisations  :  5920
 total energy-change (2. order) :-0.2764569E-01  (-0.2051381E-02)
 number of electron     402.0000033 magnetization      -0.0000000
 augmentation part       23.9915446 magnetization      -0.0000021

 Broyden mixing:
  rms(total) = 0.20087E-01    rms(broyden)= 0.20085E-01
  rms(prec ) = 0.30206E-01
  weight for this iteration     100.00

 eigenvalues of (default mixing * dielectric matrix)
  average eigenvalue GAMMA=   1.9403
  3.5202  2.6191  2.2872  1.1061  1.1061  1.0028

 Free energy of the ion-electron system (eV)
  ---------------------------------------------------
  alpha Z        PSCENC =       118.79620543
  Ewald energy   TEWEN  =    145204.17414036
  -Hartree energ DENC   =   -164035.06750094
  -exchange      EXHF   =         0.00000000
  -V(xc)+E(xc)   XCENC  =      1912.18089955
  PAW double counting   =     45503.61845477   -45709.78449885
  entropy T*S    EENTRO =        -0.00000000
  eigenvalues    EBANDS =     -5909.17611144
  atomic energy  EATOM  =     21088.84010193
  Solvation  Ediel_sol  =       985.84283847
  ---------------------------------------------------
  free energy    TOTEN  =      -840.57547073 eV

  energy without entropy =     -840.57547073  energy(sigma->0) =     -840.57547073


--------------------------------------------------------------------------------------------------------




--------------------------------------- Iteration      1(   8)  ---------------------------------------


    POTLOK:  cpu time   31.3392: real time   31.4072
    SETDIJ:  cpu time    0.4315: real time    0.4327
    EDDIAG:  cpu time   38.4553: real time   38.5123
  RMM-DIIS:  cpu time  217.7266: real time  218.1455
    ORTHCH:  cpu time    0.9615: real time    0.9637
       DOS:  cpu time    0.0021: real time    0.0022
    CHARGE:  cpu time   33.4850: real time   33.5544
    MIXING:  cpu time    0.0193: real time    0.0193
    --------------------------------------------
      LOOP:  cpu time  322.4205: real time  323.0373

 eigenvalue-minimisations  :  5920
 total energy-change (2. order) :-0.5136265E-01  (-0.4309693E-02)
 number of electron     402.0000033 magnetization      -0.0000000
 augmentation part       23.9950804 magnetization       0.0000088

 Broyden mixing:
  rms(total) = 0.15857E-01    rms(broyden)= 0.15854E-01
  rms(prec ) = 0.18126E-01
  weight for this iteration     100.00

 eigenvalues of (default mixing * dielectric matrix)
  average eigenvalue GAMMA=   1.9859
  5.0855  2.5529  2.0814  1.1041  1.1041  0.9354  1.0376

 Free energy of the ion-electron system (eV)
  ---------------------------------------------------
  alpha Z        PSCENC =       118.79620543
  Ewald energy   TEWEN  =    145204.17414036
  -Hartree energ DENC   =   -164022.00807289
  -exchange      EXHF   =         0.00000000
  -V(xc)+E(xc)   XCENC  =      1912.04994239
  PAW double counting   =     45507.40377594   -45713.55724619
  entropy T*S    EENTRO =        -0.00000000
  eigenvalues    EBANDS =     -5915.03169948
  atomic energy  EATOM  =     21088.84010193
  Solvation  Ediel_sol  =       978.70601913
  ---------------------------------------------------
  free energy    TOTEN  =      -840.62683339 eV

  energy without entropy =     -840.62683339  energy(sigma->0) =     -840.62683339


--------------------------------------------------------------------------------------------------------




--------------------------------------- Iteration      1(   9)  ---------------------------------------


    POTLOK:  cpu time   29.9387: real time   30.0410
    SETDIJ:  cpu time    0.4323: real time    0.4337
    EDDIAG:  cpu time   38.5213: real time   38.5964
  RMM-DIIS:  cpu time  218.6976: real time  219.1372
    ORTHCH:  cpu time    0.9516: real time    0.9538
       DOS:  cpu time    0.0023: real time    0.0023
    CHARGE:  cpu time   32.9868: real time   33.0528
    MIXING:  cpu time    0.0213: real time    0.0214
    --------------------------------------------
      LOOP:  cpu time  321.5520: real time  322.2386

 eigenvalue-minimisations  :  5936
 total energy-change (2. order) :-0.8424361E-02  (-0.8287583E-03)
 number of electron     402.0000033 magnetization      -0.0000000
 augmentation part       23.9900135 magnetization      -0.0000044

 Broyden mixing:
  rms(total) = 0.66218E-02    rms(broyden)= 0.66170E-02
  rms(prec ) = 0.88132E-02
  weight for this iteration     100.00

 eigenvalues of (default mixing * dielectric matrix)
  average eigenvalue GAMMA=   2.0118
  6.0458  2.5445  1.7643  1.7643  1.1070  1.1070  1.0009  0.7608

 Free energy of the ion-electron system (eV)
  ---------------------------------------------------
  alpha Z        PSCENC =       118.79620543
  Ewald energy   TEWEN  =    145204.17414036
  -Hartree energ DENC   =   -164019.83500706
  -exchange      EXHF   =         0.00000000
  -V(xc)+E(xc)   XCENC  =      1912.08458670
  PAW double counting   =     45508.13256500   -45714.31129816
  entropy T*S    EENTRO =        -0.00000000
  eigenvalues    EBANDS =     -5915.36151283
  atomic energy  EATOM  =     21088.84010193
  Solvation  Ediel_sol  =       976.84496089
  ---------------------------------------------------
  free energy    TOTEN  =      -840.63525775 eV

  energy without entropy =     -840.63525775  energy(sigma->0) =     -840.63525775


--------------------------------------------------------------------------------------------------------




--------------------------------------- Iteration      1(  10)  ---------------------------------------


    POTLOK:  cpu time   29.2356: real time   29.3012
    SETDIJ:  cpu time    0.4322: real time    0.4334
    EDDIAG:  cpu time   38.4706: real time   38.5275
  RMM-DIIS:  cpu time  218.0690: real time  218.5032
    ORTHCH:  cpu time    0.9339: real time    0.9360
       DOS:  cpu time    0.0020: real time    0.0020
    CHARGE:  cpu time   33.0450: real time   33.1127
    MIXING:  cpu time    0.0203: real time    0.0203
    --------------------------------------------
      LOOP:  cpu time  320.2086: real time  320.8364

 eigenvalue-minimisations  :  5920
 total energy-change (2. order) :-0.9208575E-02  (-0.2573583E-03)
 number of electron     402.0000033 magnetization      -0.0000000
 augmentation part       23.9902551 magnetization       0.0000076

 Broyden mixing:
  rms(total) = 0.41388E-02    rms(broyden)= 0.41383E-02
  rms(prec ) = 0.54592E-02
  weight for this iteration     100.00

 eigenvalues of (default mixing * dielectric matrix)
  average eigenvalue GAMMA=   2.1263
  7.2013  2.7214  2.3661  1.9246  1.1129  1.1129  1.0866  0.9691  0.6418

 Free energy of the ion-electron system (eV)
  ---------------------------------------------------
  alpha Z        PSCENC =       118.79620543
  Ewald energy   TEWEN  =    145204.17414036
  -Hartree energ DENC   =   -164017.38267519
  -exchange      EXHF   =         0.00000000
  -V(xc)+E(xc)   XCENC  =      1912.04803750
  PAW double counting   =     45508.87234557   -45715.04732242
  entropy T*S    EENTRO =        -0.00000000
  eigenvalues    EBANDS =     -5915.98685464
  atomic energy  EATOM  =     21088.84010193
  Solvation  Ediel_sol  =       975.04155515
  ---------------------------------------------------
  free energy    TOTEN  =      -840.64446632 eV

  energy without entropy =     -840.64446632  energy(sigma->0) =     -840.64446632


--------------------------------------------------------------------------------------------------------




--------------------------------------- Iteration      1(  11)  ---------------------------------------


    POTLOK:  cpu time   28.7414: real time   28.8034
    SETDIJ:  cpu time    0.4330: real time    0.4341
    EDDIAG:  cpu time   38.4392: real time   38.4995
  RMM-DIIS:  cpu time  217.6446: real time  218.0591
    ORTHCH:  cpu time    0.9566: real time    0.9587
       DOS:  cpu time    0.0020: real time    0.0020
    CHARGE:  cpu time   33.0121: real time   33.0764
    MIXING:  cpu time    0.0235: real time    0.0236
    --------------------------------------------
      LOOP:  cpu time  319.2525: real time  319.8567

 eigenvalue-minimisations  :  5920
 total energy-change (2. order) :-0.5248242E-02  (-0.1267009E-03)
 number of electron     402.0000033 magnetization      -0.0000000
 augmentation part       23.9913249 magnetization      -0.0000000

 Broyden mixing:
  rms(total) = 0.36844E-02    rms(broyden)= 0.36839E-02
  rms(prec ) = 0.42954E-02
  weight for this iteration     100.00

 eigenvalues of (default mixing * dielectric matrix)
  average eigenvalue GAMMA=   2.1343
  7.4593  3.3025  2.5004  1.7175  1.6457  1.0789  1.0789  0.9882  0.9440  0.6280

 Free energy of the ion-electron system (eV)
  ---------------------------------------------------
  alpha Z        PSCENC =       118.79620543
  Ewald energy   TEWEN  =    145204.17414036
  -Hartree energ DENC   =   -164016.02149522
  -exchange      EXHF   =         0.00000000
  -V(xc)+E(xc)   XCENC  =      1912.02867826
  PAW double counting   =     45509.38782231   -45715.55827701
  entropy T*S    EENTRO =        -0.00000000
  eigenvalues    EBANDS =     -5916.22566677
  atomic energy  EATOM  =     21088.84010193
  Solvation  Ediel_sol  =       973.92877615
  ---------------------------------------------------
  free energy    TOTEN  =      -840.64971456 eV

  energy without entropy =     -840.64971456  energy(sigma->0) =     -840.64971456


--------------------------------------------------------------------------------------------------------




--------------------------------------- Iteration      1(  12)  ---------------------------------------


    POTLOK:  cpu time   28.6006: real time   28.6639
    SETDIJ:  cpu time    0.4331: real time    0.4344
    EDDIAG:  cpu time   38.5039: real time   38.5615
  RMM-DIIS:  cpu time  216.8948: real time  217.3133
    ORTHCH:  cpu time    1.0477: real time    1.0501
       DOS:  cpu time    0.0022: real time    0.0022
    CHARGE:  cpu time   33.4784: real time   33.5473
    MIXING:  cpu time    0.0212: real time    0.0213
    --------------------------------------------
      LOOP:  cpu time  318.9819: real time  319.5938

 eigenvalue-minimisations  :  5868
 total energy-change (2. order) :-0.2945507E-02  (-0.4977485E-04)
 number of electron     402.0000033 magnetization      -0.0000000
 augmentation part       23.9908537 magnetization       0.0000008

 Broyden mixing:
  rms(total) = 0.16365E-02    rms(broyden)= 0.16360E-02
  rms(prec ) = 0.20567E-02
  weight for this iteration     100.00

 eigenvalues of (default mixing * dielectric matrix)
  average eigenvalue GAMMA=   2.1947
  8.3168  3.8368  2.5633  2.0621  1.5840  1.0972  1.0972  1.0798  1.0281  0.8557
  0.6205

 Free energy of the ion-electron system (eV)
  ---------------------------------------------------
  alpha Z        PSCENC =       118.79620543
  Ewald energy   TEWEN  =    145204.17414036
  -Hartree energ DENC   =   -164015.52326351
  -exchange      EXHF   =         0.00000000
  -V(xc)+E(xc)   XCENC  =      1912.03345746
  PAW double counting   =     45509.48203169   -45715.65549808
  entropy T*S    EENTRO =        -0.00000000
  eigenvalues    EBANDS =     -5916.07686237
  atomic energy  EATOM  =     21088.84010193
  Solvation  Ediel_sol  =       973.27702702
  ---------------------------------------------------
  free energy    TOTEN  =      -840.65266007 eV

  energy without entropy =     -840.65266007  energy(sigma->0) =     -840.65266007


--------------------------------------------------------------------------------------------------------




--------------------------------------- Iteration      1(  13)  ---------------------------------------


    POTLOK:  cpu time   27.8134: real time   27.8735
    SETDIJ:  cpu time    0.4328: real time    0.4341
    EDDIAG:  cpu time   40.2221: real time   40.2845
  RMM-DIIS:  cpu time  195.2938: real time  195.7114
    ORTHCH:  cpu time    0.9579: real time    0.9601
       DOS:  cpu time    0.0022: real time    0.0022
    CHARGE:  cpu time   32.9708: real time   33.0349
    MIXING:  cpu time    0.0230: real time    0.0231
    --------------------------------------------
      LOOP:  cpu time  297.7161: real time  298.3238

 eigenvalue-minimisations  :  5021
 total energy-change (2. order) :-0.1499854E-02  (-0.1988963E-04)
 number of electron     402.0000033 magnetization      -0.0000000
 augmentation part       23.9906403 magnetization       0.0000008

 Broyden mixing:
  rms(total) = 0.12453E-02    rms(broyden)= 0.12451E-02
  rms(prec ) = 0.14545E-02
  weight for this iteration     100.00

 eigenvalues of (default mixing * dielectric matrix)
  average eigenvalue GAMMA=   2.2384
  8.7991  4.4389  2.5988  2.2345  1.5975  1.5975  1.0733  1.0733  0.9625  0.9331
  0.9331  0.6191

 Free energy of the ion-electron system (eV)
  ---------------------------------------------------
  alpha Z        PSCENC =       118.79620543
  Ewald energy   TEWEN  =    145204.17414036
  -Hartree energ DENC   =   -164015.16714595
  -exchange      EXHF   =         0.00000000
  -V(xc)+E(xc)   XCENC  =      1912.03213984
  PAW double counting   =     45509.40624724   -45715.57924638
  entropy T*S    EENTRO =        -0.00000000
  eigenvalues    EBANDS =     -5916.02352935
  atomic energy  EATOM  =     21088.84010193
  Solvation  Ediel_sol  =       972.86692697
  ---------------------------------------------------
  free energy    TOTEN  =      -840.65415992 eV

  energy without entropy =     -840.65415992  energy(sigma->0) =     -840.65415992


--------------------------------------------------------------------------------------------------------




--------------------------------------- Iteration      1(  14)  ---------------------------------------


    POTLOK:  cpu time   27.8564: real time   27.9167
    SETDIJ:  cpu time    0.4319: real time    0.4332
    EDDIAG:  cpu time   38.5569: real time   38.6144
  RMM-DIIS:  cpu time  192.1117: real time  192.4932
    ORTHCH:  cpu time    0.9405: real time    0.9426
       DOS:  cpu time    0.0020: real time    0.0020
    CHARGE:  cpu time   33.0212: real time   33.0928
[...]
   -.472E+03 0.133E+03 -.125E+04   0.503E+03 -.130E+03 0.130E+04   -.305E+02 -.137E+01 -.487E+02   0.234E-02 0.266E-02 -.595E-02
   -.550E+03 0.837E+02 -.237E+03   0.587E+03 -.749E+02 0.194E+03   -.368E+02 -.727E+01 0.433E+02   0.856E-03 0.177E-02 0.133E-01
   0.516E+03 0.108E+03 -.224E+03   -.553E+03 -.113E+03 0.181E+03   0.367E+02 0.785E+01 0.429E+02   0.942E-02 -.506E-03 0.173E-01
   0.431E+03 0.938E+02 -.126E+04   -.461E+03 -.941E+02 0.131E+04   0.297E+02 0.264E+01 -.483E+02   0.982E-02 -.440E-02 -.135E-01
   -.609E+03 -.181E+03 -.103E+04   0.656E+03 0.188E+03 0.106E+04   -.460E+02 -.355E+01 -.316E+02   -.340E-03 -.305E-02 -.459E-03
   -.260E+03 -.198E+03 -.681E+02   0.277E+03 0.208E+03 0.169E+02   -.165E+02 -.711E+01 0.531E+02   -.846E-02 -.469E-02 0.141E-01
   0.659E+03 -.132E+03 -.548E+03   -.708E+03 0.124E+03 0.530E+03   0.484E+02 0.104E+02 0.177E+02   0.683E-02 -.541E-02 0.104E-01
   0.145E+03 -.265E+03 -.133E+04   -.148E+03 0.271E+03 0.138E+04   0.380E+01 -.269E+01 -.516E+02   0.816E-02 -.253E-02 -.111E-01
   -.407E+03 -.373E+03 -.615E+03   0.458E+03 0.384E+03 0.622E+03   -.489E+02 -.881E+01 -.637E+01   -.132E-01 0.100E-02 -.282E-02
   0.260E+03 -.441E+03 -.426E+03   -.298E+03 0.473E+03 0.408E+03   0.370E+02 -.294E+02 0.186E+02   -.743E-04 0.269E-02 -.555E-02
 -----------------------------------------------------------------------------------------------
   0.194E+01 -.366E+01 0.165E+01   0.114E-12 0.227E-12 -.324E-11   -.218E+01 0.380E+01 -.174E+01   0.162E-01 0.150E-02 -.663E-01
 
 
 POSITION                                       TOTAL-FORCE (eV/Angst)
 -----------------------------------------------------------------------------------
      1.28980     -0.74438     17.38846        -0.000372      0.000805      0.000947
      2.54601      1.43141     17.39069        -0.000358     -0.000061     -0.000804
      3.80240      3.60680     17.38407         0.001829      0.001185     -0.001020
      5.05872      5.78180     17.37299         0.002152     -0.000333      0.000408
      6.31397      7.95774     17.37928        -0.000772     -0.000974     -0.000737
      7.57006     10.13360     17.38505         0.000608     -0.000502     -0.002307
      2.54575     -2.92006     17.38645        -0.000084      0.000064     -0.000498
      3.80229     -0.74403     17.38825        -0.000463      0.000098     -0.001386
      5.05878      1.43195     17.38063         0.000611      0.001805     -0.001075
      6.31461      3.60767     17.37347         0.000591      0.002201     -0.000624
      7.56910      5.78121     17.37225        -0.002379     -0.000828     -0.001494
      8.82578      7.95763     17.38280        -0.002531      0.000126     -0.003196
      3.80146     -5.09576     17.38160        -0.001023      0.000019     -0.000003
      5.05838     -2.91983     17.37741        -0.002295      0.002048     -0.002400
      6.31480     -0.74356     17.36776        -0.001450      0.002373     -0.000027
      7.57057      1.43167     17.34804         0.000977      0.002291      0.001458
      8.82509      3.60657     17.36822        -0.002296      0.000297     -0.001060
     10.08124      5.78183     17.37855        -0.003385     -0.000814     -0.001723
      5.05734     -7.27144     17.38229        -0.000298      0.000796      0.000584
      6.31378     -5.09498     17.37704        -0.001371      0.001446     -0.002452
      7.57012     -2.91933     17.36333        -0.001908      0.002053     -0.001625
      8.82635     -0.74322     17.34279         0.000247      0.001075      0.002519
     10.08119      1.43095     17.34899        -0.002807      0.000985     -0.000074
     11.33755      3.60639     17.37624        -0.004313      0.000865     -0.002888
      6.31368     -9.44706     17.38402        -0.000572      0.003175     -0.000494
      7.56985     -7.27109     17.38611         0.000531     -0.001567     -0.002413
      8.82611     -5.09509     17.37933        -0.001002      0.001323     -0.002541
     10.08209     -2.91938     17.36835         0.000824      0.002353     -0.000847
     11.33819     -0.74433     17.36517        -0.004848      0.000649     -0.001086
     12.59415      1.43114     17.37670        -0.003311     -0.000528     -0.003064
      7.57009    -11.62253     17.38674        -0.001982     -0.000945     -0.000208
      8.82621     -9.44689     17.38859         0.000280      0.001714     -0.001921
     10.08242     -7.27125     17.38437         0.000447     -0.002800     -0.001121
     11.33842     -5.09569     17.37968         0.001427      0.002524     -0.000797
     12.59452     -2.91996     17.37906        -0.003382     -0.001131     -0.001952
     13.85060     -0.74447     17.38228        -0.002099      0.002504     -0.002011
      1.28973      0.70601     17.38873         0.000075     -0.000715      0.004754
      2.54565      2.88169     17.38925         0.000003     -0.001304     -0.001845
      3.80160      5.05732     17.38007         0.000110     -0.000036      0.001130
      5.05774      7.23296     17.37619         0.000314      0.001372      0.003304
      6.31405      9.40852     17.38179        -0.001132      0.000852     -0.000657
      7.57026     11.58409     17.38602        -0.000564      0.001101     -0.000623
      2.54599     -1.46956     17.38891         0.000165      0.000953      0.000742
      3.80210      0.70621     17.39039         0.001042     -0.001890     -0.002414
      5.05793      2.88183     17.37862         0.000741      0.000005      0.001124
      6.31352      5.05757     17.36053         0.000775      0.000972     -0.000887
      7.56993      7.23267     17.37863        -0.001085      0.000207     -0.001914
      8.82621      9.40843     17.38558         0.000024      0.001456     -0.000317
      3.80196     -3.64520     17.38271        -0.000168      0.002520      0.000533
      5.05849     -1.46934     17.38141        -0.001278      0.000145     -0.000481
      6.31440      0.70625     17.36403        -0.000604     -0.000228      0.000668
      7.56998      2.88138     17.36035        -0.000201     -0.000080     -0.000438
      8.82591      5.05710     17.37085        -0.000534     -0.000139      0.001431
     10.08214      7.23274     17.38146        -0.000339      0.000975     -0.001837
      5.05781     -5.82081     17.37996         0.000943      0.000214      0.003441
      6.31406     -3.64496     17.36644        -0.001334      0.000715     -0.004026
      7.57055     -1.46929     17.35619        -0.000648     -0.000357      0.001442
      8.82656      0.70577     17.31968        -0.001607     -0.000764      0.005465
     10.08200      2.88128     17.36505        -0.001137     -0.001018     -0.002129
     11.33813      5.05700     17.38014        -0.000266      0.000773     -0.000928
      6.31384     -7.99654     17.38419        -0.000108      0.002755      0.001279
      7.56998     -5.82048     17.38318        -0.001689     -0.001569     -0.003368
      8.82617     -3.64484     17.36834         0.001192      0.002125      0.001502
     10.08254     -1.46938     17.35512        -0.001161     -0.000808      0.000585
     11.33829      0.70598     17.36446        -0.001270     -0.001485     -0.001296
     12.59438      2.88143     17.37868        -0.001284      0.002119     -0.000406
      7.57003    -10.17214     17.38693        -0.000993     -0.000498      0.000026
      8.82599     -7.99637     17.38746        -0.001296      0.000255     -0.000664
     10.08207     -5.82065     17.38215         0.000091      0.001315     -0.001123
     11.33834     -3.64505     17.37781        -0.001505      0.000824     -0.001824
     12.59463     -1.46961     17.37622        -0.000754      0.000276      0.000212
     13.85060      0.70590     17.38284        -0.000173      0.001447     -0.002364
      7.85856     -2.95127     21.46119         0.000195     -0.001632      0.009154
      8.45742     -1.52878     21.58770         0.010286      0.005719      0.006821
      7.42305     -0.37327     21.59053         0.007767     -0.001075      0.001793
      8.04383      1.04592     21.45514         0.009058     -0.009280      0.010234
      7.09904      2.20901     21.82453        -0.006190     -0.003275      0.003383
      7.55385      3.61392     21.31308        -0.008844      0.002445     -0.005615
      6.96307     -3.17091     22.43266        -0.000474      0.001131     -0.001121
      7.26821     -3.13622     20.27568         0.000898      0.000953     -0.008874
      8.85365     -3.84178     21.58167         0.004597     -0.007416      0.002880
      9.15752     -1.50586     22.74540         0.002153     -0.002912     -0.000358
      9.31282     -1.35495     20.55037         0.006606     -0.001521      0.000166
      6.56472     -0.58206     20.56154        -0.003551     -0.005243     -0.002784
      6.72937     -0.44101     22.75442        -0.000476     -0.006326      0.009710
      9.15431      1.08302     22.23558        -0.001066      0.000210     -0.000890
      8.42348      1.20052     20.15969        -0.003485     -0.000613     -0.006608
      5.85277      1.87004     21.36688         0.005856     -0.003954      0.007410
      7.00885      2.25480     23.19752         0.009319     -0.001059      0.006754
      8.77110      3.83039     21.47715         0.015663      0.003103      0.005709
      6.64501      4.33502     20.87043         0.002119     -0.006033      0.002070
 -----------------------------------------------------------------------------------
    total drift:                               -0.226818      0.145184     -0.160677


--------------------------------------------------------------------------------------------------------



  FREE ENERGIE OF THE ION-ELECTRON SYSTEM (eV)
  ---------------------------------------------------
  free  energy   TOTEN  =      -840.65622191 eV

  energy  without entropy=     -840.65622191  energy(sigma->0) =     -840.65622191
 
 d Force = 0.2074840E-04[ 0.881E-06, 0.406E-04]  d Energy = 0.3241569E-04-0.117E-04
 d Force = 0.2868541E+00[ 0.287E+00, 0.287E+00]  d Ewald  = 0.2868538E+00 0.254E-06


--------------------------------------------------------------------------------------------------------


    POTLOK:  cpu time   26.7923: real time   26.8492


--------------------------------------------------------------------------------------------------------




--------------------------------------------------------------------------------------------------------


  
 reached required accuracy - stopping structural energy minimisation
 writing wavefunctions
     LOOP+:  cpu time 1475.8941: real time 1515.1853
    4ORBIT:  cpu time    0.0000: real time    0.0000
 


 total charge     
 
# of ion       s       p       d       tot
------------------------------------------
    1        0.744   1.394   0.000   2.137
    2        0.744   1.394   0.000   2.137
    3        0.744   1.394   0.000   2.137
    4        0.744   1.394   0.000   2.138
    5        0.744   1.394   0.000   2.137
    6        0.744   1.394   0.000   2.137
    7        0.744   1.393   0.000   2.137
    8        0.744   1.393   0.000   2.137
    9        0.744   1.393   0.000   2.137
   10        0.743   1.392   0.000   2.135
   11        0.744   1.393   0.000   2.137
   12        0.744   1.393   0.000   2.137
   13        0.744   1.394   0.000   2.137
   14        0.744   1.394   0.000   2.137
   15        0.744   1.393   0.000   2.137
   16        0.744   1.393   0.000   2.137
   17        0.744   1.393   0.000   2.136
   18        0.744   1.393   0.000   2.137
   19        0.744   1.393   0.000   2.137
   20        0.744   1.394   0.000   2.137
   21        0.744   1.393   0.000   2.137
   22        0.744   1.394   0.000   2.138
   23        0.744   1.394   0.000   2.138
   24        0.744   1.393   0.000   2.137
   25        0.744   1.394   0.000   2.137
   26        0.744   1.393   0.000   2.137
   27        0.744   1.393   0.000   2.137
   28        0.744   1.394   0.000   2.137
   29        0.744   1.394   0.000   2.138
   30        0.744   1.394   0.000   2.137
   31        0.744   1.394   0.000   2.137
   32        0.744   1.394   0.000   2.137
   33        0.744   1.394   0.000   2.137
   34        0.744   1.394   0.000   2.137
   35        0.744   1.394   0.000   2.137
   36        0.744   1.394   0.000   2.138
   37        1.238   2.821   0.000   4.059
   38        1.238   2.821   0.000   4.059
   39        1.238   2.821   0.000   4.059
   40        1.238   2.821   0.000   4.059
   41        1.238   2.821   0.000   4.059
   42        1.238   2.821   0.000   4.059
   43        1.238   2.821   0.000   4.059
   44        1.238   2.821   0.000   4.059
   45        1.238   2.821   0.000   4.060
   46        1.238   2.823   0.000   4.061
   47        1.238   2.821   0.000   4.059
   48        1.238   2.821   0.000   4.059
   49        1.238   2.821   0.000   4.059
   50        1.238   2.821   0.000   4.059
   51        1.238   2.821   0.000   4.059
   52        1.238   2.822   0.000   4.060
   53        1.238   2.822   0.000   4.060
   54        1.238   2.821   0.000   4.059
   55        1.238   2.821   0.000   4.059
   56        1.238   2.822   0.000   4.060
   57        1.238   2.821   0.000   4.059
   58        1.238   2.823   0.000   4.061
   59        1.238   2.821   0.000   4.059
   60        1.238   2.821   0.000   4.059
   61        1.238   2.821   0.000   4.059
   62        1.238   2.821   0.000   4.059
   63        1.238   2.821   0.000   4.059
   64        1.238   2.821   0.000   4.060
   65        1.238   2.821   0.000   4.059
   66        1.238   2.821   0.000   4.059
   67        1.238   2.821   0.000   4.059
   68        1.238   2.821   0.000   4.059
   69        1.238   2.821   0.000   4.059
   70        1.238   2.821   0.000   4.059
   71        1.238   2.821   0.000   4.059
   72        1.238   2.821   0.000   4.059
   73        0.816   1.564   0.000   2.380
   74        0.833   1.603   0.000   2.436
   75        0.833   1.594   0.000   2.427
   76        0.834   1.594   0.000   2.428
   77        0.841   1.570   0.000   2.411
   78        0.875   1.719   0.000   2.593
   79        1.759   4.412   0.000   6.171
   80        1.760   4.411   0.000   6.170
   81        1.758   4.411   0.000   6.169
   82        1.758   4.403   0.000   6.160
   83        1.758   4.398   0.000   6.156
   84        1.758   4.401   0.000   6.159
   85        1.757   4.403   0.000   6.160
   86        1.757   4.404   0.000   6.161
   87        1.758   4.400   0.000   6.158
   88        1.756   4.404   0.000   6.159
   89        1.755   4.400   0.000   6.155
   90        1.585   3.595   0.000   5.181
   91        1.587   3.591   0.000   5.178
--------------------------------------------------
tot         98.882 217.007   0.000 315.889
 


 magnetization (x)
 
# of ion       s       p       d       tot
------------------------------------------
    1       -0.000  -0.000   0.000  -0.000
    2        0.000   0.000   0.000   0.000
    3        0.000  -0.000   0.000  -0.000
    4        0.000   0.000   0.000   0.000
    5       -0.000   0.000   0.000   0.000
    6        0.000  -0.000   0.000  -0.000
    7        0.000  -0.000   0.000  -0.000
    8       -0.000  -0.000   0.000  -0.000
    9        0.000  -0.000   0.000  -0.000
   10       -0.000   0.000   0.000   0.000
   11        0.000   0.000   0.000   0.000
   12        0.000   0.000   0.000   0.000
   13        0.000  -0.000   0.000  -0.000
   14        0.000   0.000   0.000   0.000
   15        0.000   0.000   0.000   0.000
   16        0.000  -0.000   0.000  -0.000
   17       -0.000   0.000   0.000   0.000
   18       -0.000   0.000   0.000  -0.000
   19        0.000  -0.000   0.000  -0.000
   20        0.000  -0.000   0.000  -0.000
   21        0.000   0.000   0.000   0.000
   22        0.000   0.000   0.000   0.000
   23        0.000  -0.000   0.000  -0.000
   24       -0.000  -0.000   0.000  -0.000
   25       -0.000  -0.000   0.000  -0.000
   26       -0.000  -0.000   0.000  -0.000
   27       -0.000  -0.000   0.000  -0.000
   28        0.000  -0.000   0.000  -0.000
   29       -0.000  -0.000   0.000  -0.000
   30       -0.000  -0.000   0.000  -0.000
   31       -0.000   0.000   0.000   0.000
   32       -0.000   0.000   0.000   0.000
   33       -0.000  -0.000   0.000  -0.000
   34       -0.000   0.000   0.000   0.000
   35        0.000  -0.000   0.000  -0.000
   36        0.000  -0.000   0.000  -0.000
   37        0.000  -0.000   0.000  -0.000
   38        0.000  -0.000   0.000  -0.000
   39        0.000   0.000   0.000   0.000
   40        0.000  -0.000   0.000  -0.000
   41       -0.000  -0.000   0.000  -0.000
   42        0.000  -0.000   0.000  -0.000
   43        0.000   0.000   0.000   0.000
   44       -0.000   0.000   0.000   0.000
   45        0.000  -0.000   0.000  -0.000
   46        0.000  -0.000   0.000  -0.000
   47        0.000  -0.000   0.000  -0.000
   48        0.000   0.000   0.000   0.000
   49        0.000   0.000   0.000   0.000
   50       -0.000   0.000   0.000   0.000
   51       -0.000  -0.000   0.000  -0.000
   52       -0.000  -0.000   0.000  -0.000
   53        0.000   0.000   0.000   0.000
   54        0.000   0.000   0.000   0.000
   55       -0.000   0.000   0.000   0.000
   56       -0.000  -0.000   0.000  -0.000
   57       -0.000  -0.000   0.000  -0.000
   58       -0.000  -0.000   0.000  -0.000
   59        0.000   0.000   0.000   0.000
   60        0.000   0.000   0.000   0.000
   61       -0.000  -0.000   0.000  -0.000
   62       -0.000  -0.000   0.000  -0.000
   63       -0.000  -0.000   0.000  -0.000
   64        0.000   0.000   0.000   0.000
   65       -0.000   0.000   0.000   0.000
   66        0.000   0.000   0.000   0.000
   67        0.000  -0.000   0.000  -0.000
   68       -0.000   0.000   0.000   0.000
   69       -0.000   0.000   0.000   0.000
   70        0.000   0.000   0.000   0.000
   71       -0.000   0.000   0.000   0.000
   72        0.000   0.000   0.000   0.000
   73        0.000   0.000   0.000   0.000
   74       -0.000   0.000   0.000  -0.000
   75       -0.000  -0.000   0.000  -0.000
   76        0.000  -0.000   0.000   0.000
   77       -0.000   0.000   0.000   0.000
   78        0.000   0.000   0.000   0.000
   79        0.000   0.000   0.000   0.000
   80        0.000  -0.000   0.000  -0.000
   81        0.000   0.000   0.000   0.000
   82        0.000   0.000   0.000   0.000
   83        0.000   0.000   0.000   0.000
   84        0.000   0.000   0.000   0.000
   85       -0.000  -0.000   0.000  -0.000
   86       -0.000   0.000   0.000   0.000
   87        0.000  -0.000   0.000  -0.000
   88       -0.000   0.000   0.000   0.000
   89        0.000   0.000   0.000   0.000
   90       -0.000   0.000   0.000   0.000
   91        0.000  -0.000   0.000  -0.000
--------------------------------------------------
tot          0.000   0.000   0.000   0.000
 

 total amount of memory used by VASP MPI-rank0   229725. kBytes
=======================================================================

   base      :      30000. kBytes
   nonlr-proj:      11601. kBytes
   fftplans  :      17498. kBytes
   grid      :      70152. kBytes
   one-center:         24. kBytes
   wavefun   :     100450. kBytes
 
  
  
 General timing and accounting informations for this job:
 ========================================================
  
                  Total CPU time used (sec):    13887.881
                            User time (sec):    13730.836
                          System time (sec):      157.045
                         Elapsed time (sec):    13980.571
  
                   Maximum memory used (kb):      696664.
                   Average memory used (kb):           0.
  
                          Minor page faults:      2099963
                          Major page faults:          161
                 Voluntary context switches:        92780
