 vasp.5.4.4.18Apr17-6-g9f103f2a35 (build May 01 2020 14:57:12) complex          
  
 executed on             LinuxIFC date 2021.03.16  23:17:42
 running on   48 total cores
 distrk:  each k-point on   12 cores,    4 groups
 distr:  one band on NCORES_PER_BAND=   1 cores,   12 groups


--------------------------------------------------------------------------------------------------------


 INCAR:
 POTCAR:    PAW_PBE B 06Sep2000                   
 POTCAR:    PAW_PBE N 08Apr2002                   
 POTCAR:    PAW_PBE C 08Apr2002                   
 POTCAR:    PAW_PBE F 08Apr2002                   
 POTCAR:    PAW_PBE O 08Apr2002                   

 ----------------------------------------------------------------------------- 
|                                                                             |
|           W    W    AA    RRRRR   N    N  II  N    N   GGGG   !!!           |
|           W    W   A  A   R    R  NN   N  II  NN   N  G    G  !!!           |
|           W    W  A    A  R    R  N N  N  II  N N  N  G       !!!           |
|           W WW W  AAAAAA  RRRRR   N  N N  II  N  N N  G  GGG   !            |
|           WW  WW  A    A  R   R   N   NN  II  N   NN  G    G                |
|           W    W  A    A  R    R  N    N  II  N    N   GGGG   !!!           |
|                                                                             |
|      For optimal performance we recommend to set                            |
|        NCORE= 4 - approx SQRT( number of cores)                             |
|      NCORE specifies how many cores store one orbital (NPAR=cpu/NCORE).     |
|      This setting can  greatly improve the performance of VASP for DFT.     |
|      The default,   NCORE=1            might be grossly inefficient         |
|      on modern multi-core architectures or massively parallel machines.     |
|      Do your own testing !!!!                                               |
|      Unfortunately you need to use the default for GW and RPA calculations. |
|      (for HF NCORE is supported but not extensively tested yet)             |
|                                                                             |
 ----------------------------------------------------------------------------- 


 ----------------------------------------------------------------------------- 
|                                                                             |
|           W    W    AA    RRRRR   N    N  II  N    N   GGGG   !!!           |
|           W    W   A  A   R    R  NN   N  II  NN   N  G    G  !!!           |
|           W    W  A    A  R    R  N N  N  II  N N  N  G       !!!           |
|           W WW W  AAAAAA  RRRRR   N  N N  II  N  N N  G  GGG   !            |
|           WW  WW  A    A  R   R   N   NN  II  N   NN  G    G                |
|           W    W  A    A  R    R  N    N  II  N    N   GGGG   !!!           |
|                                                                             |
|      You have enabled k-point parallelism (KPAR>1).                         |
|      This developmental code was originally  written by Paul Kent at ORNL,  |
|      and carefully double checked in Vienna.                                |
|      GW as well as linear response parallelism added by Martijn Marsman     |
|      and Georg Kresse.                                                      |
|      Carefully verify results versus KPAR=1.                                |
|      Report problems to Paul Kent and Vienna.                               |
|                                                                             |
 ----------------------------------------------------------------------------- 

 POTCAR:    PAW_PBE B 06Sep2000                   
   VRHFIN =B: s2p1                                                              
   LEXCH  = PE                                                                  
   EATOM  =    71.1703 eV,    5.2309 Ry                                         
                                                                                
   TITEL  = PAW_PBE B 06Sep2000                                                 
   LULTRA =        F    use ultrasoft PP ?                                      
   IUNSCR =        1    unscreen: 0-lin 1-nonlin 2-no                           
   RPACOR =    1.200    partial core radius                                     
   POMASS =   10.811; ZVAL   =    3.000    mass and valenz                      
   RCORE  =    1.700    outmost cutoff radius                                   
   RWIGS  =    1.710; RWIGS  =    0.905    wigner-seitz radius (au A)           
   ENMAX  =  318.614; ENMIN  =  238.960 eV                                      
   ICORE  =        2    local potential                                         
   LCOR   =        T    correct aug charges                                     
   LPAW   =        T    paw PP                                                  
   EAUG   =  535.514                                                            
   DEXC   =    0.000                                                            
   RMAX   =    1.732    core radius for proj-oper                               
   RAUG   =    1.300    factor for augmentation sphere                          
   RDEP   =    1.757    radius for radial grids                                 
   RDEPT  =    1.436    core radius for aug-charge                              
                                                                                
   Atomic configuration                                                         
    4 entries                                                                   
     n  l   j            E        occ.                                          
     1  0  0.50      -180.5896   2.0000                                         
     2  0  0.50        -9.4431   2.0000                                         
     2  1  0.50        -3.6068   1.0000                                         
     3  2  1.50        -4.0817   0.0000                                         
   Description                                                                  
     l       E           TYP  RCUT    TYP  RCUT                                 
     0     -9.4430752     23  1.500                                             
     0      0.8675899     23  1.500                                             
     1     -3.6067955     23  1.700                                             
     1      6.1086146     23  1.700                                             
     2     -4.0817478      7  1.700                                             
  local pseudopotential read in
  partial core-charges read in
  partial kinetic energy density read in
  atomic valenz-charges read in
  non local Contribution for L=           0  read in
    real space projection operators read in
  non local Contribution for L=           0  read in
    real space projection operators read in
  non local Contribution for L=           1  read in
    real space projection operators read in
  non local Contribution for L=           1  read in
    real space projection operators read in
    PAW grid and wavefunctions read in
 
   number of l-projection  operators is LMAX  =           4
   number of lm-projection operators is LMMAX =           8
 
 POTCAR:    PAW_PBE N 08Apr2002                   
   VRHFIN =N: s2p3                                                              
   LEXCH  = PE                                                                  
   EATOM  =   264.5486 eV,   19.4438 Ry                                         
                                                                                
   TITEL  = PAW_PBE N 08Apr2002                                                 
   LULTRA =        F    use ultrasoft PP ?                                      
   IUNSCR =        1    unscreen: 0-lin 1-nonlin 2-no                           
   RPACOR =    1.200    partial core radius                                     
   POMASS =   14.001; ZVAL   =    5.000    mass and valenz                      
   RCORE  =    1.500    outmost cutoff radius                                   
   RWIGS  =    1.400; RWIGS  =    0.741    wigner-seitz radius (au A)           
   ENMAX  =  400.000; ENMIN  =  300.000 eV                                      
   ICORE  =        2    local potential                                         
   LCOR   =        T    correct aug charges                                     
   LPAW   =        T    paw PP                                                  
   EAUG   =  627.112                                                            
   DEXC   =    0.000                                                            
   RMAX   =    1.529    core radius for proj-oper                               
   RAUG   =    1.300    factor for augmentation sphere                          
   RDEP   =    1.514    radius for radial grids                                 
   RDEPT  =    1.338    core radius for aug-charge                              
                                                                                
   Atomic configuration                                                         
    4 entries                                                                   
     n  l   j            E        occ.                                          
     1  0  0.50      -384.7179   2.0000                                         
     2  0  0.50       -18.5828   2.0000                                         
     2  1  0.50        -7.0898   3.0000                                         
     3  2  1.50        -6.8029   0.0000                                         
   Description                                                                  
     l       E           TYP  RCUT    TYP  RCUT                                 
     0    -18.5828119     23  1.200                                             
     0    -13.5018863     23  1.200                                             
     1     -7.0897853     23  1.500                                             
     1      9.5240782     23  1.500                                             
     2     -6.8029130      7  1.500                                             
  local pseudopotential read in
  partial core-charges read in
  partial kinetic energy density read in
  atomic valenz-charges read in
  non local Contribution for L=           0  read in
    real space projection operators read in
  non local Contribution for L=           0  read in
    real space projection operators read in
  non local Contribution for L=           1  read in
    real space projection operators read in
  non local Contribution for L=           1  read in
    real space projection operators read in
    PAW grid and wavefunctions read in
 
   number of l-projection  operators is LMAX  =           4
   number of lm-projection operators is LMMAX =           8
 
 POTCAR:    PAW_PBE C 08Apr2002                   
   VRHFIN =C: s2p2                                                              
   LEXCH  = PE                                                                  
   EATOM  =   147.1560 eV,   10.8157 Ry                                         
                                                                                
   TITEL  = PAW_PBE C 08Apr2002                                                 
   LULTRA =        F    use ultrasoft PP ?                                      
   IUNSCR =        1    unscreen: 0-lin 1-nonlin 2-no                           
   RPACOR =    1.200    partial core radius                                     
   POMASS =   12.011; ZVAL   =    4.000    mass and valenz                      
   RCORE  =    1.500    outmost cutoff radius                                   
   RWIGS  =    1.630; RWIGS  =    0.863    wigner-seitz radius (au A)           
   ENMAX  =  400.000; ENMIN  =  300.000 eV                                      
   ICORE  =        2    local potential                                         
   LCOR   =        T    correct aug charges                                     
   LPAW   =        T    paw PP                                                  
   EAUG   =  644.873                                                            
   DEXC   =    0.000                                                            
   RMAX   =    1.529    core radius for proj-oper                               
   RAUG   =    1.300    factor for augmentation sphere                          
   RDEP   =    1.501    radius for radial grids                                 
   RDEPT  =    1.300    core radius for aug-charge                              
                                                                                
   Atomic configuration                                                         
    4 entries                                                                   
     n  l   j            E        occ.                                          
     1  0  0.50      -273.3789   2.0000                                         
     2  0  0.50       -13.7508   2.0000                                         
     2  1  0.50        -5.2854   2.0000                                         
     3  2  1.50        -5.4423   0.0000                                         
   Description                                                                  
     l       E           TYP  RCUT    TYP  RCUT                                 
     0    -13.7508458     23  1.200                                             
     0     -8.2022199     23  1.200                                             
     1     -5.2854383     23  1.500                                             
     1     34.0145650     23  1.500                                             
     2     -5.4423304      7  1.500                                             
  local pseudopotential read in
  partial core-charges read in
  partial kinetic energy density read in
  atomic valenz-charges read in
  non local Contribution for L=           0  read in
    real space projection operators read in
  non local Contribution for L=           0  read in
    real space projection operators read in
  non local Contribution for L=           1  read in
    real space projection operators read in
  non local Contribution for L=           1  read in
    real space projection operators read in
    PAW grid and wavefunctions read in
 
   number of l-projection  operators is LMAX  =           4
   number of lm-projection operators is LMMAX =           8
 
 POTCAR:    PAW_PBE F 08Apr2002                   
   VRHFIN =F: s2p5                                                              
   LEXCH  = PE                                                                  
   EATOM  =   659.6475 eV,   48.4827 Ry                                         
                                                                                
   TITEL  = PAW_PBE F 08Apr2002                                                 
   LULTRA =        F    use ultrasoft PP ?                                      
   IUNSCR =        1    unscreen: 0-lin 1-nonlin 2-no                           
   RPACOR =    1.200    partial core radius                                     
   POMASS =   18.998; ZVAL   =    7.000    mass and valenz                      
   RCORE  =    1.520    outmost cutoff radius                                   
   RWIGS  =    1.500; RWIGS  =    0.794    wigner-seitz radius (au A)           
   ENMAX  =  400.000; ENMIN  =  300.000 eV                                      
   ICORE  =        2    local potential                                         
   LCOR   =        T    correct aug charges                                     
   LPAW   =        T    paw PP                                                  
   EAUG   =  613.614                                                            
   RMAX   =    1.555    core radius for proj-oper                               
   RAUG   =    1.300    factor for augmentation sphere                          
   RDEP   =    1.539    radius for radial grids                                 
   RDEPT  =    1.299    core radius for aug-charge                              
                                                                                
   Atomic configuration                                                         
    4 entries                                                                   
     n  l   j            E        occ.                                          
     1  0  0.50      -663.3661   2.0000                                         
     2  0  0.50       -29.8995   2.0000                                         
     2  1  0.50       -11.1114   5.0000                                         
     3  2  1.50       -10.8847   0.0000                                         
   Description                                                                  
     l       E           TYP  RCUT    TYP  RCUT                                 
     0    -29.8995018     23  1.200                                             
     0     -9.5240782     23  1.200                                             
     1    -11.1113914     23  1.520                                             
     1      1.3605826     23  1.520                                             
     2    -10.8846608      7  1.500                                             
  local pseudopotential read in
  partial core-charges read in
  partial kinetic energy density read in
  atomic valenz-charges read in
  non local Contribution for L=           0  read in
    real space projection operators read in
  non local Contribution for L=           0  read in
    real space projection operators read in
  non local Contribution for L=           1  read in
    real space projection operators read in
  non local Contribution for L=           1  read in
    real space projection operators read in
    PAW grid and wavefunctions read in
 
   number of l-projection  operators is LMAX  =           4
   number of lm-projection operators is LMMAX =           8
 
 POTCAR:    PAW_PBE O 08Apr2002                   
   VRHFIN =O: s2p4                                                              
   LEXCH  = PE                                                                  
   EATOM  =   432.3788 eV,   31.7789 Ry                                         
                                                                                
   TITEL  = PAW_PBE O 08Apr2002                                                 
   LULTRA =        F    use ultrasoft PP ?                                      
   IUNSCR =        1    unscreen: 0-lin 1-nonlin 2-no                           
   RPACOR =    1.200    partial core radius                                     
   POMASS =   16.000; ZVAL   =    6.000    mass and valenz                      
   RCORE  =    1.520    outmost cutoff radius                                   
   RWIGS  =    1.550; RWIGS  =    0.820    wigner-seitz radius (au A)           
   ENMAX  =  400.000; ENMIN  =  300.000 eV                                      
   ICORE  =        2    local potential                                         
   LCOR   =        T    correct aug charges                                     
   LPAW   =        T    paw PP                                                  
   EAUG   =  605.392                                                            
   DEXC   =    0.000                                                            
   RMAX   =    1.553    core radius for proj-oper                               
   RAUG   =    1.300    factor for augmentation sphere                          
   RDEP   =    1.550    radius for radial grids                                 
   RDEPT  =    1.329    core radius for aug-charge                              
                                                                                
   Atomic configuration                                                         
    4 entries                                                                   
     n  l   j            E        occ.                                          
     1  0  0.50      -514.6923   2.0000                                         
     2  0  0.50       -23.9615   2.0000                                         
     2  1  0.50        -9.0305   4.0000                                         
     3  2  1.50        -9.5241   0.0000                                         
   Description                                                                  
     l       E           TYP  RCUT    TYP  RCUT                                 
     0    -23.9615318     23  1.200                                             
     0     -9.5240782     23  1.200                                             
     1     -9.0304911     23  1.520                                             
     1      8.1634956     23  1.520                                             
     2     -9.5240782      7  1.500                                             
  local pseudopotential read in
  partial core-charges read in
  partial kinetic energy density read in
  kinetic energy density of atom read in
  atomic valenz-charges read in
  non local Contribution for L=           0  read in
    real space projection operators read in
  non local Contribution for L=           0  read in
    real space projection operators read in
  non local Contribution for L=           1  read in
    real space projection operators read in
  non local Contribution for L=           1  read in
    real space projection operators read in
    PAW grid and wavefunctions read in
 
   number of l-projection  operators is LMAX  =           4
   number of lm-projection operators is LMMAX =           8
 
 Optimization of the real space projectors (new method)

 maximal supplied QI-value         = 22.11
 optimisation between [QCUT,QGAM] = [ 11.94, 23.88] = [ 39.92,159.67] Ry 
 Optimized for a Real-space Cutoff    1.18 Angstroem

   l    n(q)    QCUT    max X(q) W(low)/X(q) W(high)/X(q)  e(spline) 
   0      8    11.939    53.033    0.11E-03    0.34E-03    0.60E-07
   0      8    11.939    34.740    0.11E-03    0.34E-03    0.59E-07
   1      8    11.939    30.949    0.22E-03    0.20E-03    0.17E-06
   1      8    11.939    19.518    0.20E-03    0.18E-03    0.16E-06
 Optimization of the real space projectors (new method)

 maximal supplied QI-value         = 25.13
 optimisation between [QCUT,QGAM] = [ 11.81, 23.88] = [ 39.08,159.64] Ry 
 Optimized for a Real-space Cutoff    1.41 Angstroem

   l    n(q)    QCUT    max X(q) W(low)/X(q) W(high)/X(q)  e(spline) 
   0     10    11.813    79.467    0.48E-04    0.30E-04    0.67E-06
   0     10    11.813    66.151    0.47E-04    0.30E-04    0.67E-06
   1     10    11.813    20.169    0.11E-03    0.17E-03    0.11E-05
   1     10    11.813    14.454    0.11E-03    0.17E-03    0.11E-05
 Optimization of the real space projectors (new method)

 maximal supplied QI-value         = 25.13
 optimisation between [QCUT,QGAM] = [ 11.81, 23.88] = [ 39.08,159.64] Ry 
 Optimized for a Real-space Cutoff    1.18 Angstroem

   l    n(q)    QCUT    max X(q) W(low)/X(q) W(high)/X(q)  e(spline) 
   0      8    11.813   115.676    0.10E-03    0.16E-03    0.35E-06
   0      8    11.813    87.132    0.10E-03    0.16E-03    0.35E-06
   1      8    11.813     4.429    0.16E-03    0.13E-04    0.22E-06
   1      8    11.813     2.733    0.13E-03    0.10E-04    0.18E-06
 Optimization of the real space projectors (new method)

 maximal supplied QI-value         = 24.76
 optimisation between [QCUT,QGAM] = [ 11.88, 24.01] = [ 39.54,161.47] Ry 
 Optimized for a Real-space Cutoff    1.18 Angstroem

   l    n(q)    QCUT    max X(q) W(low)/X(q) W(high)/X(q)  e(spline) 
   0      8    11.883    14.049    0.56E-04    0.86E-04    0.22E-06
   0      8    11.883     8.945    0.81E-04    0.11E-03    0.30E-06
   1      8    11.883     7.086    0.16E-03    0.15E-04    0.31E-06
   1      8    11.883     6.747    0.15E-03    0.14E-04    0.28E-06
 Optimization of the real space projectors (new method)

 maximal supplied QI-value         = 24.76
 optimisation between [QCUT,QGAM] = [ 11.88, 24.01] = [ 39.54,161.47] Ry 
 Optimized for a Real-space Cutoff    1.18 Angstroem

   l    n(q)    QCUT    max X(q) W(low)/X(q) W(high)/X(q)  e(spline) 
   0      8    11.883    20.381    0.86E-04    0.11E-03    0.31E-06
   0      8    11.883    15.268    0.94E-04    0.12E-03    0.33E-06
   1      8    11.883     5.964    0.19E-03    0.18E-04    0.33E-06
   1      8    11.883     5.382    0.17E-03    0.20E-04    0.29E-06
  PAW_PBE B 06Sep2000                   :
 energy of atom  1       EATOM=  -71.1703
 kinetic energy error for atom=    0.0009 (will be added to EATOM!!)
  PAW_PBE N 08Apr2002                   :
 energy of atom  2       EATOM= -264.5486
 kinetic energy error for atom=    0.0116 (will be added to EATOM!!)
  PAW_PBE C 08Apr2002                   :
 energy of atom  3       EATOM= -147.1560
 kinetic energy error for atom=    0.0066 (will be added to EATOM!!)
  PAW_PBE F 08Apr2002                   :
 energy of atom  4       EATOM= -659.6475
 kinetic energy error for atom=    0.0296 (will be added to EATOM!!)
  PAW_PBE O 08Apr2002                   :
 energy of atom  5       EATOM= -432.3788
 kinetic energy error for atom=    0.0194 (will be added to EATOM!!)
 
 
 POSCAR: B N C F O                               
  positions in direct lattice
  velocities in cartesian coordinates

 METAGGA = SCAN     LMAXTAU =  6    LMIXTAU =  F

 exchange correlation table for  LEXCH =        8
   RHO(1)=    0.500       N(1)  =     2000
   RHO(2)=  100.500       N(2)  =     4000
 


--------------------------------------------------------------------------------------------------------


 ion  position               nearest neighbor table
   1  0.111  0.056  0.500-  42 1.45  37 1.45  43 1.45
   2  0.111  0.222  0.500-  37 1.45  38 1.45  44 1.45
   3  0.111  0.389  0.500-  38 1.45  39 1.45  45 1.45
   4  0.111  0.556  0.500-  40 1.45  39 1.45  46 1.45
   5  0.111  0.722  0.500-  41 1.45  40 1.45  47 1.45
   6  0.111  0.889  0.500-  41 1.45  42 1.45  48 1.45
   7  0.278  0.056  0.500-  48 1.45  49 1.45  43 1.45
   8  0.278  0.222  0.500-  43 1.45  50 1.45  44 1.45
   9  0.278  0.389  0.500-  44 1.45  45 1.45  51 1.45
  10  0.278  0.556  0.500-  46 1.45  52 1.45  45 1.45
  11  0.278  0.722  0.500-  53 1.45  47 1.45  46 1.45
  12  0.278  0.889  0.500-  54 1.45  47 1.45  48 1.45
  13  0.444  0.056  0.500-  55 1.45  54 1.45  49 1.45
  14  0.444  0.222  0.500-  56 1.45  49 1.45  50 1.45
  15  0.444  0.389  0.500-  57 1.45  50 1.45  51 1.45
  16  0.444  0.556  0.500-  58 1.45  52 1.45  51 1.45
  17  0.444  0.722  0.500-  59 1.45  53 1.45  52 1.45
  18  0.444  0.889  0.500-  60 1.45  54 1.45  53 1.45
  19  0.611  0.056  0.500-  61 1.45  60 1.45  55 1.45
  20  0.611  0.222  0.500-  62 1.45  55 1.45  56 1.45
  21  0.611  0.389  0.500-  63 1.45  56 1.45  57 1.45
  22  0.611  0.556  0.500-  64 1.45  58 1.45  57 1.45
  23  0.611  0.722  0.500-  65 1.45  59 1.45  58 1.45
  24  0.611  0.889  0.500-  66 1.45  60 1.45  59 1.45
  25  0.778  0.056  0.500-  66 1.45  61 1.45  67 1.45
  26  0.778  0.222  0.500-  61 1.45  62 1.45  68 1.45
  27  0.778  0.389  0.500-  62 1.45  69 1.45  63 1.45
  28  0.778  0.556  0.500-  64 1.45  70 1.45  63 1.45
  29  0.778  0.722  0.500-  65 1.45  71 1.45  64 1.45
  30  0.778  0.889  0.500-  66 1.45  65 1.45  72 1.45
  31  0.944  0.056  0.500-  72 1.45  67 1.45  37 1.45
  32  0.944  0.222  0.500-  67 1.45  68 1.45  38 1.45
  33  0.944  0.389  0.500-  68 1.45  69 1.45  39 1.45
  34  0.944  0.556  0.500-  70 1.45  69 1.45  40 1.45
  35  0.944  0.722  0.500-  71 1.45  70 1.45  41 1.45
  36  0.944  0.889  0.500-  72 1.45  71 1.45  42 1.45
  37  0.056  0.111  0.500-   2 1.45   1 1.45  31 1.45
  38  0.056  0.278  0.500-   3 1.45   2 1.45  32 1.45
  39  0.056  0.445  0.500-   3 1.45   4 1.45  33 1.45
  40  0.056  0.611  0.500-   4 1.45   5 1.45  34 1.45
  41  0.056  0.778  0.500-   6 1.45   5 1.45  35 1.45
  42  0.056  0.945  0.500-   1 1.45   6 1.45  36 1.45
  43  0.222  0.111  0.500-   8 1.45   7 1.45   1 1.45
  44  0.222  0.278  0.500-   9 1.45   8 1.45   2 1.45
  45  0.222  0.445  0.500-   9 1.45  10 1.45   3 1.45
  46  0.222  0.611  0.500-  10 1.45   4 1.45  11 1.45
  47  0.222  0.778  0.500-  11 1.45  12 1.45   5 1.45
  48  0.222  0.945  0.500-   7 1.45  12 1.45   6 1.45
  49  0.389  0.111  0.500-  14 1.45   7 1.45  13 1.45
  50  0.389  0.278  0.501-   8 1.45  15 1.45  14 1.45
  51  0.389  0.445  0.500-   9 1.45  15 1.45  16 1.45
  52  0.389  0.611  0.500-  10 1.45  16 1.45  17 1.45
  53  0.389  0.778  0.500-  11 1.45  17 1.45  18 1.45
  54  0.389  0.945  0.500-  13 1.45  12 1.45  18 1.45
  55  0.556  0.111  0.500-  13 1.45  20 1.45  19 1.45
  56  0.556  0.278  0.500-  14 1.45  21 1.45  20 1.45
  57  0.556  0.445  0.500-  15 1.45  22 1.45  21 1.45
  58  0.556  0.611  0.500-  16 1.45  22 1.45  23 1.45
  59  0.556  0.778  0.500-  17 1.45  23 1.45  24 1.45
  60  0.556  0.945  0.500-  18 1.45  19 1.45  24 1.45
  61  0.722  0.111  0.500-  19 1.45  26 1.45  25 1.45
  62  0.722  0.278  0.500-  20 1.45  27 1.45  26 1.45
  63  0.722  0.445  0.500-  21 1.45  28 1.45  27 1.45
  64  0.722  0.611  0.500-  22 1.45  28 1.45  29 1.45
  65  0.722  0.778  0.500-  23 1.45  29 1.45  30 1.45
  66  0.722  0.945  0.500-  24 1.45  30 1.45  25 1.45
  67  0.889  0.111  0.500-  32 1.45  31 1.45  25 1.45
  68  0.889  0.278  0.500-  33 1.45  32 1.45  26 1.45
  69  0.889  0.445  0.500-  33 1.45  34 1.45  27 1.45
  70  0.889  0.611  0.500-  34 1.45  35 1.45  28 1.45
  71  0.889  0.778  0.500-  35 1.45  36 1.45  29 1.45
  72  0.889  0.945  0.500-  31 1.45  36 1.45  30 1.45
  73  0.377  0.298  0.659-  76 1.34  78 1.34  77 1.35  74 1.51
  74  0.362  0.267  0.617-  79 1.33  80 1.33  73 1.51
  75  0.314  0.523  0.609-  82 1.16  81 1.16
  76  0.467  0.385  0.663-  73 1.34
  77  0.377  0.227  0.682-  73 1.35
  78  0.301  0.314  0.670-  73 1.34
  79  0.438  0.257  0.603-  74 1.33
  80  0.272  0.186  0.610-  74 1.33
  81  0.402  0.578  0.606-  75 1.16
  82  0.227  0.467  0.612-  75 1.16
 

IMPORTANT INFORMATION: All symmetrisations will be switched off!
NOSYMM: (Re-)initialisation of all symmetry stuff for point group C_1.

 
 
 KPOINTS: K-Point Grid                            

Automatic generation of k-mesh.
Space group operators:
 irot       det(A)        alpha          n_x          n_y          n_z        tau_x        tau_y        tau_z
    1     1.000000     0.000000     1.000000     0.000000     0.000000     0.000000     0.000000     0.000000
 
 Subroutine IBZKPT returns following result:
 ===========================================
 
 Found      5 irreducible k-points:
 
 Following reciprocal coordinates:
            Coordinates               Weight
  0.000000  0.000000  0.000000      1.000000
  0.333333  0.000000  0.000000      2.000000
  0.000000  0.333333  0.000000      2.000000
  0.333333  0.333333  0.000000      2.000000
 -0.333333  0.333333  0.000000      2.000000
 
 Following cartesian coordinates:
            Coordinates               Weight
  0.000000  0.000000  0.000000      1.000000
  0.022114 -0.012768  0.000000      2.000000
  0.022114  0.012768  0.000000      2.000000
  0.044229  0.000000  0.000000      2.000000
  0.000000  0.025535  0.000000      2.000000
 


--------------------------------------------------------------------------------------------------------




 Dimension of arrays:
   k-points           NKPTS =      5   k-points in BZ     NKDIM =      5   number of bands    NBANDS=    264
   number of dos      NEDOS =   1200   number of ions     NIONS =     82
   non local maximal  LDIM  =      4   non local SUM 2l+1 LMDIM =      8
   total plane-waves  NPLWV = ******
   max r-space proj   IRMAX =   6598   max aug-charges    IRDMAX=   8974
   dimension x,y,z NGX =   120 NGY =  120 NGZ =  270
   dimension x,y,z NGXF=   240 NGYF=  240 NGZF=  540
   support grid    NGXF=   240 NGYF=  240 NGZF=  540
   ions per type =              36  36   3   5   2
   NGX,Y,Z   is equivalent  to a cutoff of  13.24, 13.24, 12.78 a.u.
   NGXF,Y,Z  is equivalent  to a cutoff of  26.47, 26.47, 25.57 a.u.

 SYSTEM =  SiC                                     
 POSCAR =  B N C F O                               

 Startparameter for this run:
   NWRITE =      2    write-flag & timer
   PREC   = accura    normal or accurate (medium, high low for compatibility)
   ISTART =      0    job   : 0-new  1-cont  2-samecut
   ICHARG =      2    charge: 1-file 2-atom 10-const
   ISPIN  =      2    spin polarized calculation?
   LNONCOLLINEAR =      F non collinear calculations
   LSORBIT =      F    spin-orbit coupling
   INIWAV =      1    electr: 0-lowe 1-rand  2-diag
   LASPH  =      T    aspherical Exc in radial PAW
   METAGGA=      F    non-selfconsistent MetaGGA calc.

 Electronic Relaxation 1
   ENCUT  =  550.0 eV  40.42 Ry    6.36 a.u.  28.82 28.82 67.15*2*pi/ulx,y,z
   ENINI  =  550.0     initial cutoff
   ENAUG  =  644.9 eV  augmentation charge cutoff
   NELM   =    100;   NELMIN=  2; NELMDL= -5     # of ELM steps 
   EDIFF  = 0.1E-04   stopping-criterion for ELM
   LREAL  =      T    real-space projection
   NLSPLINE    = F    spline interpolate recip. space projectors
   LCOMPAT=      F    compatible to vasp.4.4
   GGA_COMPAT  = T    GGA compatible to vasp.4.4-vasp.4.6
   LMAXPAW     = -100 max onsite density
   LMAXMIX     =    2 max onsite mixed and CHGCAR
   VOSKOWN=      0    Vosko Wilk Nusair interpolation
   ROPT   =   -0.00025  -0.00025  -0.00025  -0.00025
   ROPT   =   -0.00025
 Ionic relaxation
   EDIFFG = -.2E-01   stopping-criterion for IOM
   NSW    =    500    number of steps for IOM
   NBLOCK =      1;   KBLOCK =    500    inner block; outer block 
   IBRION =      2    ionic relax: 0-MD 1-quasi-New 2-CG
   NFREE  =      1    steps in history (QN), initial steepest desc. (CG)
   ISIF   =      2    stress and relaxation
   IWAVPR =     11    prediction:  0-non 1-charg 2-wave 3-comb
   ISYM   =      0    0-nonsym 1-usesym 2-fastsym
   LCORR  =      T    Harris-Foulkes like correction to forces

   POTIM  = 0.5000    time-step for ionic-motion
   TEIN   =    0.0    initial temperature
   TEBEG  =    0.0;   TEEND  =   0.0 temperature during run
   SMASS  =  -3.00    Nose mass-parameter (am)
   estimated Nose-frequenzy (Omega)   =  0.10E-29 period in steps =****** mass=  -0.519E-26a.u.
   SCALEE = 1.0000    scale energy and forces
   NPACO  =    256;   APACO  = 16.0  distance and # of slots for P.C.
   PSTRESS=    0.0 pullay stress

  Mass of Ions in am
   POMASS =  10.81 14.00 12.01 19.00 16.00
  Ionic Valenz
   ZVAL   =   3.00  5.00  4.00  7.00  6.00
  Atomic Wigner-Seitz radii
   RWIGS  =  -1.00 -1.00 -1.00 -1.00 -1.00
  virtual crystal weights 
   VCA    =   1.00  1.00  1.00  1.00  1.00
   NELECT =     346.7000    total number of electrons
   NUPDOWN=      -1.0000    fix difference up-down

 DOS related values:
   EMIN   =  10.00;   EMAX   =-10.00  energy-range for DOS
   EFERMI =   0.00
   ISMEAR =     0;   SIGMA  =   0.05  broadening in eV -4-tet -1-fermi 0-gaus

 Electronic relaxation 2 (details)
   IALGO  =     68    algorithm
   LDIAG  =      T    sub-space diagonalisation (order eigenvalues)
   LSUBROT=      F    optimize rotation matrix (better conditioning)
   TURBO    =      0    0=normal 1=particle mesh
   IRESTART =      0    0=no restart 2=restart with 2 vectors
   NREBOOT  =      0    no. of reboots
   NMIN     =      0    reboot dimension
   EREF     =   0.00    reference energy to select bands
   IMIX   =      4    mixing-type and parameters
     AMIX     =   0.40;   BMIX     =  1.00
     AMIX_MAG =   1.60;   BMIX_MAG =  1.00
     AMIN     =   0.10
     WC   =   100.;   INIMIX=   1;  MIXPRE=   1;  MAXMIX= -45

 Intra band minimization:
   WEIMIN = 0.0010     energy-eigenvalue tresh-hold
   EBREAK =  0.95E-08  absolut break condition
   DEPER  =   0.30     relativ break condition  

   TIME   =   0.40     timestep for ELM

  volume/ion in A,a.u.               =      84.26       568.60
  Fermi-wavevector in a.u.,A,eV,Ry     =   0.603834  1.141080  4.960890  0.364615
  Thomas-Fermi vector in A             =   1.656962
 
 Write flags
   LWAVE        =      T    write WAVECAR
   LDOWNSAMPLE  =      F    k-point downsampling of WAVECAR
   LCHARG       =      F    write CHGCAR
   LVTOT        =      F    write LOCPOT, total local potential
   LVHAR        =      T    write LOCPOT, Hartree potential only
   LELF         =      F    write electronic localiz. function (ELF)
   LORBIT       =     11    0 simple, 1 ext, 2 COOP (PROOUT), +10 PAW based schemes


 Dipole corrections
   LMONO  =      F    monopole corrections only (constant potential shift)
   LDIPOL =      F    correct potential (dipole corrections)
   IDIPOL =      0    1-x, 2-y, 3-z, 4-all directions 
   EPSILON=  1.0000000 bulk dielectric constant

 Exchange correlation treatment:
   GGA     =    --    GGA type
   LEXCH   =     8    internal setting for exchange type
   VOSKOWN=      0    Vosko Wilk Nusair interpolation
   LHFCALC =     F    Hartree Fock is set to
   LHFONE  =     F    Hartree Fock one center treatment
   AEXX    =    0.0000 exact exchange contribution

 Linear response parameters
   LEPSILON=     F    determine dielectric tensor
   LRPA    =     F    only Hartree local field effects (RPA)
   LNABLA  =     F    use nabla operator in PAW spheres
   LVEL    =     F    velocity operator in full k-point grid
   LINTERFAST=   F  fast interpolation
   KINTER  =     0    interpolate to denser k-point grid
   CSHIFT  =0.1000    complex shift for real part using Kramers Kronig
   OMEGAMAX=  -1.0    maximum frequency
   DEG_THRESHOLD= 0.2000000E-02 threshold for treating states as degnerate
   RTIME   =   -0.100 relaxation time in fs
  (WPLASMAI=    0.000 imaginary part of plasma frequency in eV, 0.658/RTIME)
   DFIELD  = 0.0000000 0.0000000 0.0000000 field for delta impulse in time
 
 Orbital magnetization related:
   ORBITALMAG=     F  switch on orbital magnetization
   LCHIMAG   =     F  perturbation theory with respect to B field
   DQ        =  0.001000  dq finite difference perturbation B field
   LLRAUG    =     F  two centre corrections for induced B field

 Solvation model:
   LSOL    =     T         switch on solvation model
   EB_K    = 78.400000     relative permittivity of the bulk solvent
   SIGMA_K =  0.600000     width of the dielectric cavity
   NC_K    =  0.002500     cutoff charge density
   TAU     =  0.000000     cavity surface tension
   LAMBDA_D_K    =  3.040000     Debye length in Angstroms
   LRHOB     =     F     write boundcharge  density
   LRHOION     =     F     write ioniccharge density



--------------------------------------------------------------------------------------------------------


 conjugate gradient relaxation of ions
   using selective dynamics as specified on POSCAR
 charge density and potential will be updated during run
 spin polarized calculation
 RMM-DIIS sequential band-by-band and
  variant of blocked Davidson during initial phase
 perform sub-space diagonalisation
    before iterative eigenvector-optimisation
 modified Broyden-mixing scheme, WC =      100.0
 initial mixing is a Kerker type mixing with AMIX =  0.4000 and BMIX =      1.0000
 Hartree-type preconditioning will be used
 using additional bands           90
 real space projection scheme for non local part
 use partial core corrections
 calculate Harris-corrections to forces 
   (improved forces if not selfconsistent)
 use gradient corrections 
 use of overlap-Matrix (Vanderbilt PP)
 Gauss-broadening in eV      SIGMA  =   0.05


--------------------------------------------------------------------------------------------------------


  energy-cutoff  :      550.00
  volume of cell :     6909.18
      direct lattice vectors                 reciprocal lattice vectors
     7.536550057-13.053746059  0.000000000     0.066343353 -0.038303181  0.000000000
     7.536550057 13.053746059  0.000000000     0.066343353  0.038303181  0.000000000
     0.000000000  0.000000000 35.114664386     0.000000000  0.000000000  0.028478131

  length of vectors
    15.073150730 15.073150730 35.114664386     0.076606620  0.076606620  0.028478131


 
 k-points in units of 2pi/SCALE and weight: K-Point Grid                            
   0.00000000  0.00000000  0.00000000       0.111
   0.02211445 -0.01276773  0.00000000       0.222
   0.02211445  0.01276773  0.00000000       0.222
   0.04422890  0.00000000  0.00000000       0.222
   0.00000000  0.02553545  0.00000000       0.222
 
 k-points in reciprocal lattice and weights: K-Point Grid                            
   0.00000000  0.00000000  0.00000000       0.111
   0.33333333  0.00000000  0.00000000       0.222
   0.00000000  0.33333333  0.00000000       0.222
   0.33333333  0.33333333  0.00000000       0.222
  -0.33333333  0.33333333  0.00000000       0.222
 
 position of ions in fractional coordinates (direct lattice) 
   0.11111227  0.05561966  0.50034807
   0.11110490  0.22228109  0.50035988
   0.11111263  0.38895764  0.50034408
   0.11111432  0.55563331  0.50029457
   0.11112552  0.72230563  0.50026817
   0.11112243  0.88896714  0.50029029
   0.27779211  0.05562347  0.50039311
   0.27778231  0.22227596  0.50044722
   0.27778604  0.38895414  0.50039626
   0.27779257  0.55565680  0.50025711
   0.27779921  0.72231986  0.50028622
   0.27779776  0.88897355  0.50029254
   0.44447255  0.05562723  0.50035360
   0.44447129  0.22228642  0.50046808
   0.44447724  0.38896543  0.50048847
   0.44448086  0.55565623  0.50035741
   0.44446993  0.72231123  0.50031162
   0.44447145  0.88897609  0.50029739
   0.61113556  0.05563596  0.50030205
   0.61113454  0.22229476  0.50035577
   0.61113465  0.38896308  0.50039316
   0.61113680  0.55564170  0.50035429
   0.61113206  0.72230986  0.50031963
   0.61113245  0.88897382  0.50030040
   0.77779153  0.05563420  0.50028830
   0.77779259  0.22229981  0.50029815
   0.77779346  0.38896590  0.50029751
   0.77779271  0.55563472  0.50029020
   0.77779329  0.72230434  0.50029262
   0.77778975  0.88896831  0.50028836
   0.94444737  0.05563045  0.50030060
   0.94445035  0.22229863  0.50030587
   0.94445326  0.38896631  0.50029616
   0.94445639  0.55563635  0.50027550
   0.94445612  0.72230424  0.50027129
   0.94445330  0.88896963  0.50028613
   0.05557588  0.11119105  0.50032493
   0.05558137  0.27785991  0.50033302
   0.05558036  0.44452618  0.50031215
   0.05557534  0.61119482  0.50027096
   0.05557544  0.77786188  0.50026354
   0.05557495  0.94452623  0.50029697
   0.22223747  0.11118563  0.50041592
   0.22223995  0.27785070  0.50043849
   0.22225121  0.44452988  0.50036041
   0.22223538  0.61119711  0.50028671
   0.22223973  0.77786337  0.50027009
   0.22223888  0.94452657  0.50030860
   0.38890438  0.11118624  0.50043656
   0.38889606  0.27784749  0.50055989
   0.38889997  0.44451816  0.50048397
   0.38889156  0.61117995  0.50030524
   0.38890115  0.77785553  0.50029965
   0.38890364  0.94452404  0.50029712
   0.55557056  0.11118993  0.50032757
   0.55556416  0.27785038  0.50043082
   0.55556454  0.44451737  0.50042647
   0.55556544  0.61118464  0.50034705
   0.55556488  0.77785420  0.50031264
   0.55557025  0.94452443  0.50029071
   0.72223988  0.11119384  0.50028893
   0.72223598  0.27785755  0.50030395
   0.72223257  0.44452021  0.50030766
   0.72223415  0.61118653  0.50029591
   0.72223500  0.77785445  0.50029201
   0.72223757  0.94452421  0.50028677
   0.88891058  0.11119804  0.50028771
   0.88891034  0.27786474  0.50029319
   0.88890830  0.44452856  0.50027668
   0.88890584  0.61119315  0.50026737
   0.88890795  0.77786160  0.50027669
   0.88890730  0.94452795  0.50028405
   0.37699074  0.29839380  0.65862667
   0.36223862  0.26655164  0.61737297
   0.31436296  0.52256774  0.60926605
   0.46688998  0.38506930  0.66320236
   0.37708750  0.22650813  0.68171294
   0.30091665  0.31388754  0.67010838
   0.43832382  0.25743721  0.60265069
   0.27154109  0.18587712  0.60963162
   0.40213593  0.57754225  0.60596168
   0.22659050  0.46731961  0.61237887
 
 position of ions in cartesian coordinates  (Angst):
   1.25658350 -0.72438643 17.56955466
   2.51258023  1.45126577 17.56996924
   3.76880464  3.62691821 17.56941455
   5.02497683  5.80263801 17.56767577
   6.28119558  7.97818987 17.56674879
   7.53722509 10.15378727 17.56752579
   2.51280323 -2.90013310 17.57113619
   3.76871417 -0.72456575 17.57303605
   5.02492080  1.45116013 17.57124663
   6.28133288  3.62716919 17.56636056
   7.53744741  5.80265962 17.56738273
   8.79343041  7.97813360 17.56760455
   3.76902702 -5.07588815 17.56974872
   5.02505288 -2.90034494 17.57376864
   6.28128241 -0.72463712 17.57448474
   7.53758321  1.45125510 17.56988245
   8.79350462  3.62686970 17.56827450
  10.04959414  5.80245080 17.56777507
   5.02515695 -7.25135073 17.56793865
   6.28118168 -5.07581578 17.56982508
   7.53728664 -2.90017122 17.57113782
   8.79348458 -0.72441896 17.56977297
  10.04955172  1.45128675 17.56855590
  11.30562601  3.62687070 17.56788059
   6.28115471 -9.42685839 17.56745573
   7.53724647 -7.25126165 17.56780170
   8.79334032 -5.07565612 17.56777931
  10.04944261 -2.89999400 17.56752257
  11.30556087 -0.72433858 17.56760751
  12.56160555  1.45129663 17.56745787
   7.53713659-11.60239036 17.56788761
   8.79326207 -9.42678522 17.56807265
  10.04938339 -7.25118561 17.56773158
  11.30552402 -5.07555808 17.56700636
  12.56162294 -2.89991425 17.56685841
  13.81768372 -0.72426971 17.56737969
   1.25684727  0.72598632 17.56874190
   2.51299687  2.90156764 17.56902598
   3.76907801  5.07719991 17.56829317
   5.02514665  7.25291555 17.56684690
   6.28124211  9.42854381 17.56658614
   7.53731261 11.60414438 17.56776019
   2.51285988 -1.44964240 17.57193702
   3.76895827  0.72592864 17.57272973
   5.02522906  2.90156924 17.56998778
   6.28120565  5.07740761 17.56739996
   7.53732712  7.25296994 17.56681627
   8.79338623  9.42856018 17.56816849
   3.76895797 -3.62526210 17.57266190
   5.02494614 -1.44959992 17.57699252
   6.28109749  0.72602580 17.57432670
   7.53708903  2.90169619 17.56805068
   8.79332015  5.07731177 17.56785416
  10.04944444  7.25292753 17.56776539
   5.02507380 -5.80083180 17.56883484
   6.28107039 -3.62520519 17.57246025
   7.53716742 -1.44958159 17.57230757
   8.79327040  0.72603884 17.56951876
  10.04937964  2.90170835 17.56831056
  11.30553862  5.07730918 17.56754027
   6.28121493 -7.97643977 17.56747797
   7.53725499 -5.80080318 17.56800535
   8.79329076 -3.62518660 17.56813571
  10.04939169 -1.44958737 17.56772301
  11.30549927  0.72604221 17.56758602
  12.56163358  2.90167335 17.56740215
   7.53736873-10.15206203 17.56743516
   8.79345876 -7.97643414 17.56762732
  10.04951367 -5.80082036 17.56704776
  11.30557111 -3.62519097 17.56672077
  12.56169212 -1.44957083 17.56704791
  13.81777660  0.72605785 17.56730663
   5.09006944 -1.02598454 23.12745453
   4.73890921 -1.24907351 21.67884448
   6.30757011  2.71785233 21.39417289
   6.42083375 -1.06806639 23.28812833
   4.54902867 -1.96562482 23.93812124
   4.63350261  0.16931870 23.53063075
   5.24363781 -2.36124796 21.16187665
   3.44735522 -1.11823577 21.40700972
   7.38339364  2.28970968 21.27814099
   5.22968825  3.14241666 21.50347854
 


--------------------------------------------------------------------------------------------------------


 k-point  1 :   0.0000 0.0000 0.0000  plane waves:  202395
 k-point  2 :   0.3333 0.0000 0.0000  plane waves:  202358
 k-point  3 :   0.0000 0.3333 0.0000  plane waves:  202358
 k-point  4 :   0.3333 0.3333 0.0000  plane waves:  202335
 k-point  5 :  -0.3333 0.3333 0.0000  plane waves:  202358

 maximum and minimum number of plane-waves per node :    202395   202335

 maximum number of plane-waves:    202395
 maximum index in each direction: 
   IXMAX=   29   IYMAX=   28   IZMAX=   67
   IXMIN=  -29   IYMIN=  -29   IZMIN=  -67


 serial   3D FFT for wavefunctions
 parallel 3D FFT for charge:
    minimum data exchange during FFTs selected (reduces bandwidth)


 total amount of memory used by VASP MPI-rank0  1757864. kBytes
=======================================================================

   base      :      30000. kBytes
   nonlr-proj:      37376. kBytes
   fftplans  :     102830. kBytes
   grid      :     872370. kBytes
   one-center:        503. kBytes
   wavefun   :     714785. kBytes
 
     INWAV:  cpu time    0.0001: real time    0.0003
 Broyden mixing: mesh for mixing (old mesh)
   NGX = 57   NGY = 57   NGZ =135
  (NGX  =240   NGY  =240   NGZ  =540)
  gives a total of 438615 points

 initial charge density was supplied:
 charge density of overlapping atoms calculated
 number of electron     347.0000000 magnetization      82.0000000
 keeping initial charge density in first step


--------------------------------------------------------------------------------------------------------


 Maximum index for non-local projection operator         6369
 Maximum index for augmentation-charges          741 (set IRDMAX)


--------------------------------------------------------------------------------------------------------


 First call to EWALD:  gamma=   0.093
 Maximum number of real-space cells 4x 4x 2
 Maximum number of reciprocal cells 2x 2x 5

    FEWALD:  cpu time    0.0775: real time    0.0775


--------------------------------------- Iteration      1(   1)  ---------------------------------------


    POTLOK:  cpu time  130.4270: real time  130.6544
    SETDIJ:  cpu time    1.0075: real time    0.6293
     EDDAV:  cpu time  355.2437: real time  233.0539
       DOS:  cpu time    0.0638: real time    0.0617
    --------------------------------------------
      LOOP:  cpu time  486.7420: real time  364.3993

 eigenvalue-minimisations  :  6276
 total energy-change (2. order) : 0.3464178E+04  (-0.1182694E+05)
 number of electron     347.0000000 magnetization      82.0000000
 augmentation part      347.0000000 magnetization      82.0000000

 Free energy of the ion-electron system (eV)
  ---------------------------------------------------
  alpha Z        PSCENC =        92.14382556
  Ewald energy   TEWEN  =    112134.35262484
  -Hartree energ DENC   =   -124821.18686069
  -exchange      EXHF   =         0.00000000
  -V(xc)+E(xc)   XCENC  =      1476.95807128
  PAW double counting   =     12389.81687870   -12541.43845553
  entropy T*S    EENTRO =        -0.05532812
  eigenvalues    EBANDS =     -2346.59014086
  atomic energy  EATOM  =     16689.68470767
  Solvation  Ediel_sol  =       390.49296435
  ---------------------------------------------------
  free energy    TOTEN  =      3464.17828721 eV

  energy without entropy =     3464.23361533  energy(sigma->0) =     3464.20595127


--------------------------------------------------------------------------------------------------------




--------------------------------------- Iteration      1(   2)  ---------------------------------------


     EDDAV:  cpu time  430.3415: real time  279.9136
       DOS:  cpu time    0.0024: real time    0.0012
    --------------------------------------------
      LOOP:  cpu time  430.3439: real time  279.9148

 eigenvalue-minimisations  :  8388
 total energy-change (2. order) :-0.3407503E+04  (-0.3108645E+04)
 number of electron     347.0000000 magnetization      82.0000000
 augmentation part      347.0000000 magnetization      82.0000000

 Free energy of the ion-electron system (eV)
  ---------------------------------------------------
  alpha Z        PSCENC =        92.14382556
  Ewald energy   TEWEN  =    112134.35262484
  -Hartree energ DENC   =   -124821.18686069
  -exchange      EXHF   =         0.00000000
  -V(xc)+E(xc)   XCENC  =      1476.95807128
  PAW double counting   =     12389.81687870   -12541.43845553
  entropy T*S    EENTRO =        -0.01086413
  eigenvalues    EBANDS =     -5754.13760659
  atomic energy  EATOM  =     16689.68470767
  Solvation  Ediel_sol  =       390.49296435
  ---------------------------------------------------
  free energy    TOTEN  =        56.67528547 eV

  energy without entropy =       56.68614960  energy(sigma->0) =       56.68071753


--------------------------------------------------------------------------------------------------------




--------------------------------------- Iteration      1(   3)  ---------------------------------------


     EDDAV:  cpu time  372.2377: real time  243.6496
       DOS:  cpu time    0.0025: real time    0.0012
    --------------------------------------------
      LOOP:  cpu time  372.2401: real time  243.6508

 eigenvalue-minimisations  :  6792
 total energy-change (2. order) :-0.9207944E+03  (-0.9127872E+03)
 number of electron     347.0000000 magnetization      82.0000000
 augmentation part      347.0000000 magnetization      82.0000000

 Free energy of the ion-electron system (eV)
  ---------------------------------------------------
  alpha Z        PSCENC =        92.14382556
  Ewald energy   TEWEN  =    112134.35262484
  -Hartree energ DENC   =   -124821.18686069
  -exchange      EXHF   =         0.00000000
  -V(xc)+E(xc)   XCENC  =      1476.95807128
  PAW double counting   =     12389.81687870   -12541.43845553
  entropy T*S    EENTRO =        -0.00865620
  eigenvalues    EBANDS =     -6674.93419177
  atomic energy  EATOM  =     16689.68470767
  Solvation  Ediel_sol  =       390.49296435
  ---------------------------------------------------
  free energy    TOTEN  =      -864.11909179 eV

  energy without entropy =     -864.11043559  energy(sigma->0) =     -864.11476369


--------------------------------------------------------------------------------------------------------




--------------------------------------- Iteration      1(   4)  ---------------------------------------


     EDDAV:  cpu time  362.7144: real time  237.6017
       DOS:  cpu time    0.0024: real time    0.0012
    --------------------------------------------
      LOOP:  cpu time  362.7169: real time  237.6029

 eigenvalue-minimisations  :  6564
 total energy-change (2. order) :-0.4482437E+02  (-0.4443064E+02)
 number of electron     347.0000000 magnetization      82.0000000
 augmentation part      347.0000000 magnetization      82.0000000

 Free energy of the ion-electron system (eV)
  ---------------------------------------------------
  alpha Z        PSCENC =        92.14382556
  Ewald energy   TEWEN  =    112134.35262484
  -Hartree energ DENC   =   -124821.18686069
  -exchange      EXHF   =         0.00000000
  -V(xc)+E(xc)   XCENC  =      1476.95807128
  PAW double counting   =     12389.81687870   -12541.43845553
  entropy T*S    EENTRO =        -0.01228561
  eigenvalues    EBANDS =     -6719.75492843
  atomic energy  EATOM  =     16689.68470767
  Solvation  Ediel_sol  =       390.49296435
  ---------------------------------------------------
  free energy    TOTEN  =      -908.94345785 eV

  energy without entropy =     -908.93117225  energy(sigma->0) =     -908.93731505


--------------------------------------------------------------------------------------------------------




--------------------------------------- Iteration      1(   5)  ---------------------------------------


     EDDAV:  cpu time  375.9902: real time  245.5779
       DOS:  cpu time    0.0024: real time    0.0012
    CHARGE:  cpu time   39.9784: real time   38.8556
    MIXING:  cpu time    0.2026: real time    0.2327
    --------------------------------------------
      LOOP:  cpu time  416.1736: real time  284.6675

 eigenvalue-minimisations  :  6888
 total energy-change (2. order) :-0.9376645E+00  (-0.9348396E+00)
 number of electron     346.6999973 magnetization      77.9644168
 augmentation part       18.4883346 magnetization      77.8059671

 Broyden mixing:
  rms(total) = 0.65936E+01    rms(broyden)= 0.65927E+01
  rms(prec ) = 0.66883E+01
  weight for this iteration     100.00

 Free energy of the ion-electron system (eV)
  ---------------------------------------------------
  alpha Z        PSCENC =        92.14382556
  Ewald energy   TEWEN  =    112134.35262484
  -Hartree energ DENC   =   -124821.18686069
  -exchange      EXHF   =         0.00000000
  -V(xc)+E(xc)   XCENC  =      1476.95807128
  PAW double counting   =     12389.81687870   -12541.43845553
  entropy T*S    EENTRO =        -0.01229278
  eigenvalues    EBANDS =     -6720.69258576
  atomic energy  EATOM  =     16689.68470767
  Solvation  Ediel_sol  =       390.49296435
  ---------------------------------------------------
  free energy    TOTEN  =      -909.88112236 eV

  energy without entropy =     -909.86882957  energy(sigma->0) =     -909.87497597


--------------------------------------------------------------------------------------------------------




--------------------------------------- Iteration      1(   6)  ---------------------------------------


    POTLOK:  cpu time  121.7995: real time  122.0668
    SETDIJ:  cpu time    0.8019: real time    0.5074
    EDDIAG:  cpu time   58.6915: real time   48.2476
  RMM-DIIS:  cpu time  377.5232: real time  273.5579
    ORTHCH:  cpu time    2.7502: real time    1.3802
       DOS:  cpu time    0.0049: real time    0.0024
    CHARGE:  cpu time   39.8830: real time   38.6818
    MIXING:  cpu time    0.1469: real time    0.1512
    --------------------------------------------
      LOOP:  cpu time  601.6011: real time  484.5953

 eigenvalue-minimisations  :  5280
 total energy-change (2. order) : 0.2415183E+03  (-0.2752628E+02)
 number of electron     346.6999975 magnetization      73.1940940
 augmentation part       17.3924257 magnetization      71.4204897

 Broyden mixing:
  rms(total) = 0.33807E+01    rms(broyden)= 0.33804E+01
  rms(prec ) = 0.34262E+01
  weight for this iteration     100.00

 eigenvalues of (default mixing * dielectric matrix)
  average eigenvalue GAMMA=   1.0566
  1.0566

 Free energy of the ion-electron system (eV)
  ---------------------------------------------------
  alpha Z        PSCENC =        92.14382556
  Ewald energy   TEWEN  =    112134.35262484
  -Hartree energ DENC   =   -125461.97334793
  -exchange      EXHF   =         0.00000000
  -V(xc)+E(xc)   XCENC  =      1624.94095852
  PAW double counting   =     20319.78487832   -20478.52761839
  entropy T*S    EENTRO =        -0.01229277
  eigenvalues    EBANDS =     -5871.34799339
  atomic energy  EATOM  =     16689.68470767
  Solvation  Ediel_sol  =       282.59147872
  ---------------------------------------------------
  free energy    TOTEN  =      -668.36277885 eV

  energy without entropy =     -668.35048608  energy(sigma->0) =     -668.35663247


--------------------------------------------------------------------------------------------------------




--------------------------------------- Iteration      1(   7)  ---------------------------------------


    POTLOK:  cpu time  118.7123: real time  118.9727
    SETDIJ:  cpu time    1.3204: real time    0.9279
    EDDIAG:  cpu time   58.6910: real time   48.2040
  RMM-DIIS:  cpu time  377.7325: real time  273.6830
    ORTHCH:  cpu time    2.7722: real time    1.3911
       DOS:  cpu time    0.0046: real time    0.0023
    CHARGE:  cpu time   39.8889: real time   38.6824
    MIXING:  cpu time    0.1484: real time    0.1487
    --------------------------------------------
      LOOP:  cpu time  599.2703: real time  482.0121

 eigenvalue-minimisations  :  5280
 total energy-change (2. order) :-0.3336040E+02  (-0.7776437E+01)
 number of electron     346.6999977 magnetization      69.2608568
 augmentation part       16.3233185 magnetization      66.8236391

 Broyden mixing:
  rms(total) = 0.23086E+01    rms(broyden)= 0.23084E+01
  rms(prec ) = 0.23222E+01
  weight for this iteration     100.00

 eigenvalues of (default mixing * dielectric matrix)
  average eigenvalue GAMMA=   1.0410
  1.2730  0.8089

 Free energy of the ion-electron system (eV)
  ---------------------------------------------------
  alpha Z        PSCENC =        92.14382556
  Ewald energy   TEWEN  =    112134.35262484
  -Hartree energ DENC   =   -125905.46616007
  -exchange      EXHF   =         0.00000000
  -V(xc)+E(xc)   XCENC  =      1625.83777277
  PAW double counting   =     29030.22779266   -29194.04659052
  entropy T*S    EENTRO =        -0.00793906
  eigenvalues    EBANDS =     -5346.78074981
  atomic energy  EATOM  =     16689.68470767
  Solvation  Ediel_sol  =       172.33153423
  ---------------------------------------------------
  free energy    TOTEN  =      -701.72318173 eV

  energy without entropy =     -701.71524266  energy(sigma->0) =     -701.71921219


--------------------------------------------------------------------------------------------------------




--------------------------------------- Iteration      1(   8)  ---------------------------------------


    POTLOK:  cpu time  117.0326: real time  117.2844
    SETDIJ:  cpu time    0.6527: real time    0.4326
    EDDIAG:  cpu time   58.6646: real time   48.1696
  RMM-DIIS:  cpu time  377.7974: real time  273.6808
    ORTHCH:  cpu time    2.7752: real time    1.3939
       DOS:  cpu time    0.0045: real time    0.0023
    CHARGE:  cpu time   39.9515: real time   38.7193
    MIXING:  cpu time    0.1518: real time    0.1521
    --------------------------------------------
      LOOP:  cpu time  597.0302: real time  479.8350

 eigenvalue-minimisations  :  5280
 total energy-change (2. order) :-0.5597614E+01  (-0.1191075E+01)
 number of electron     346.6999977 magnetization      61.6860004
 augmentation part       16.2284425 magnetization      59.2924346

 Broyden mixing:
  rms(total) = 0.17215E+01    rms(broyden)= 0.17215E+01
  rms(prec ) = 0.17290E+01
  weight for this iteration     100.00

 eigenvalues of (default mixing * dielectric matrix)
  average eigenvalue GAMMA=   1.2605
  1.7831  1.2774  0.7210

 Free energy of the ion-electron system (eV)
  ---------------------------------------------------
  alpha Z        PSCENC =        92.14382556
  Ewald energy   TEWEN  =    112134.35262484
  -Hartree energ DENC   =   -126030.57673880
  -exchange      EXHF   =         0.00000000
  -V(xc)+E(xc)   XCENC  =      1626.53116380
  PAW double counting   =     34109.75011275   -34275.57149411
  entropy T*S    EENTRO =        -0.00726345
  eigenvalues    EBANDS =     -5161.15030522
  atomic energy  EATOM  =     16689.68470767
  Solvation  Ediel_sol  =       107.52257140
  ---------------------------------------------------
  free energy    TOTEN  =      -707.32079555 eV

  energy without entropy =     -707.31353210  energy(sigma->0) =     -707.31716382


--------------------------------------------------------------------------------------------------------




--------------------------------------- Iteration      1(   9)  ---------------------------------------


    POTLOK:  cpu time  119.7225: real time  119.9785
    SETDIJ:  cpu time    0.7855: real time    0.4989
    EDDIAG:  cpu time   58.6715: real time   48.1886
  RMM-DIIS:  cpu time  377.6390: real time  273.6549
    ORTHCH:  cpu time    2.7714: real time    1.3908
       DOS:  cpu time    0.0047: real time    0.0024
    CHARGE:  cpu time   40.0774: real time   38.8587
    MIXING:  cpu time    0.1502: real time    0.1505
    --------------------------------------------
      LOOP:  cpu time  599.8221: real time  482.7232

 eigenvalue-minimisations  :  5280
 total energy-change (2. order) :-0.4228239E+02  (-0.2574644E+01)
 number of electron     346.6999977 magnetization      57.6515122
 augmentation part       16.2883528 magnetization      55.6385017

 Broyden mixing:
  rms(total) = 0.11506E+01    rms(broyden)= 0.11506E+01
  rms(prec ) = 0.11525E+01
  weight for this iteration     100.00

 eigenvalues of (default mixing * dielectric matrix)
  average eigenvalue GAMMA=   1.3490
  2.5811  1.3669  0.8124  0.6356

 Free energy of the ion-electron system (eV)
  ---------------------------------------------------
  alpha Z        PSCENC =        92.14382556
  Ewald energy   TEWEN  =    112134.35262484
  -Hartree energ DENC   =   -126177.02134485
  -exchange      EXHF   =         0.00000000
  -V(xc)+E(xc)   XCENC  =      1604.37780164
  PAW double counting   =     40962.15817309   -41129.07436939
  entropy T*S    EENTRO =        -0.00663590
  eigenvalues    EBANDS =     -4942.85716881
  atomic energy  EATOM  =     16689.68470767
  Solvation  Ediel_sol  =        16.63920080
  ---------------------------------------------------
  free energy    TOTEN  =      -749.60318535 eV

  energy without entropy =     -749.59654945  energy(sigma->0) =     -749.59986740


--------------------------------------------------------------------------------------------------------




--------------------------------------- Iteration      1(  10)  ---------------------------------------


    POTLOK:  cpu time  116.1240: real time  116.3779
    SETDIJ:  cpu time    0.6175: real time    0.4208
    EDDIAG:  cpu time   58.6742: real time   48.1868
  RMM-DIIS:  cpu time  377.8804: real time  273.7722
    ORTHCH:  cpu time    2.8063: real time    1.4200
       DOS:  cpu time    0.0047: real time    0.0023
    CHARGE:  cpu time   39.7602: real time   38.5763
    MIXING:  cpu time    0.1531: real time    0.1535
    --------------------------------------------
      LOOP:  cpu time  596.0205: real time  478.9098

 eigenvalue-minimisations  :  5287
 total energy-change (2. order) :-0.1644972E+02  (-0.7662940E+00)
 number of electron     346.6999977 magnetization      51.5747739
 augmentation part       16.2207161 magnetization      49.8926534

 Broyden mixing:
  rms(total) = 0.99048E+00    rms(broyden)= 0.99045E+00
  rms(prec ) = 0.99230E+00
  weight for this iteration     100.00

 eigenvalues of (default mixing * dielectric matrix)
  average eigenvalue GAMMA=   1.2788
  2.5712  1.4847  0.8623  0.8623  0.6134

 Free energy of the ion-electron system (eV)
  ---------------------------------------------------
  alpha Z        PSCENC =        92.14382556
  Ewald energy   TEWEN  =    112134.35262484
  -Hartree energ DENC   =   -126233.76499897
  -exchange      EXHF   =         0.00000000
  -V(xc)+E(xc)   XCENC  =      1595.15086052
  PAW double counting   =     42481.16165958   -42648.73437906
  entropy T*S    EENTRO =        -0.00576316
  eigenvalues    EBANDS =     -4876.30630209
  atomic energy  EATOM  =     16689.68470767
  Solvation  Ediel_sol  =         0.26485779
  ---------------------------------------------------
  free energy    TOTEN  =      -766.05290731 eV

  energy without entropy =     -766.04714415  energy(sigma->0) =     -766.05002573


--------------------------------------------------------------------------------------------------------




--------------------------------------- Iteration      1(  11)  ---------------------------------------


    POTLOK:  cpu time  116.9144: real time  117.1670
    SETDIJ:  cpu time    1.0680: real time    0.6754
    EDDIAG:  cpu time   58.7216: real time   48.2336
  RMM-DIIS:  cpu time  377.9463: real time  273.7686
    ORTHCH:  cpu time    2.8047: real time    1.4207
       DOS:  cpu time    0.0049: real time    0.0025
    CHARGE:  cpu time   39.8606: real time   38.6631
    MIXING:  cpu time    0.1568: real time    0.1572
    --------------------------------------------
      LOOP:  cpu time  597.4773: real time  480.0881

 eigenvalue-minimisations  :  5280
 total energy-change (2. order) :-0.1652330E+02  (-0.9644918E+00)
 number of electron     346.6999978 magnetization      36.5459847
 augmentation part       16.0803373 magnetization      35.1354401

 Broyden mixing:
  rms(total) = 0.81162E+00    rms(broyden)= 0.81156E+00
  rms(prec ) = 0.81264E+00
  weight for this iteration     100.00

 eigenvalues of (default mixing * dielectric matrix)
  average eigenvalue GAMMA=   1.6412
  3.7913  2.5494  1.2254  0.8820  0.7971  0.6022

 Free energy of the ion-electron system (eV)
  ---------------------------------------------------
  alpha Z        PSCENC =        92.14382556
  Ewald energy   TEWEN  =    112134.35262484
  -Hartree energ DENC   =   -126255.86231459
  -exchange      EXHF   =         0.00000000
  -V(xc)+E(xc)   XCENC  =      1583.86882199
  PAW double counting   =     41706.71011605   -41873.98853903
  entropy T*S    EENTRO =        -0.00424717
  eigenvalues    EBANDS =     -4882.59582294
  atomic energy  EATOM  =     16689.68470767
  Solvation  Ediel_sol  =        23.11461668
  ---------------------------------------------------
  free energy    TOTEN  =      -782.57621094 eV

  energy without entropy =     -782.57196377  energy(sigma->0) =     -782.57408736


--------------------------------------------------------------------------------------------------------




--------------------------------------- Iteration      1(  12)  ---------------------------------------


    POTLOK:  cpu time  119.9622: real time  120.2171
    SETDIJ:  cpu time    0.9082: real time    0.5649
    EDDIAG:  cpu time   58.8641: real time   48.3730
  RMM-DIIS:  cpu time  377.6334: real time  273.6204
    ORTHCH:  cpu time    2.7904: real time    1.4074
       DOS:  cpu time    0.0046: real time    0.0023
    CHARGE:  cpu time   39.8141: real time   38.6380
    MIXING:  cpu time    0.1589: real time    0.1593
    --------------------------------------------
      LOOP:  cpu time  600.1359: real time  482.9823

 eigenvalue-minimisations  :  5284
 total energy-change (2. order) :-0.1949440E+02  (-0.1832407E+01)
 number of electron     346.6999978 magnetization      30.7192450
 augmentation part       16.0639244 magnetization      29.6521577

 Broyden mixing:
  rms(total) = 0.51255E+00    rms(broyden)= 0.51243E+00
  rms(prec ) = 0.51431E+00
  weight for this iteration     100.00

 eigenvalues of (default mixing * dielectric matrix)
  average eigenvalue GAMMA=   1.8268
  5.8118  2.3112  1.3819  0.9831  0.9831  0.7109  0.6053

 Free energy of the ion-electron system (eV)
  ---------------------------------------------------
  alpha Z        PSCENC =        92.14382556
  Ewald energy   TEWEN  =    112134.35262484
  -Hartree energ DENC   =   -126269.02943143
  -exchange      EXHF   =         0.00000000
  -V(xc)+E(xc)   XCENC  =      1565.39469523
  PAW double counting   =     40596.49373157   -40762.62952955
  entropy T*S    EENTRO =        -0.00420197
  eigenvalues    EBANDS =     -4935.29912447
  atomic energy  EATOM  =     16689.68470767
  Solvation  Ediel_sol  =        86.82209260
  ---------------------------------------------------
  free energy    TOTEN  =      -802.07060995 eV

  energy without entropy =     -802.06640798  energy(sigma->0) =     -802.06850897


--------------------------------------------------------------------------------------------------------




--------------------------------------- Iteration      1(  13)  ---------------------------------------


    POTLOK:  cpu time  113.3172: real time  113.5572
    SETDIJ:  cpu time    0.6078: real time    0.4111
    EDDIAG:  cpu time   58.7730: real time   48.2726
  RMM-DIIS:  cpu time  377.5453: real time  273.5251
    ORTHCH:  cpu time    2.7833: real time    1.4044
       DOS:  cpu time    0.0074: real time    0.0037
    CHARGE:  cpu time   39.8745: real time   38.6801
    MIXING:  cpu time    0.1668: real time    0.1672
    --------------------------------------------
      LOOP:  cpu time  593.0752: real time  476.0212

 eigenvalue-minimisations  :  5280
 total energy-change (2. order) :-0.1075824E+01  (-0.2616122E+00)
 number of electron     346.6999978 magnetization      25.3907506
 augmentation part       16.0994084 magnetization      24.4111008

 Broyden mixing:
  rms(total) = 0.41330E+00    rms(broyden)= 0.41325E+00
  rms(prec ) = 0.41431E+00
  weight for this iteration     100.00

 eigenvalues of (default mixing * dielectric matrix)
  average eigenvalue GAMMA=   1.9337
  7.4686  2.4380  1.3199  1.3199  0.8270  0.8270  0.6224  0.6470

 Free energy of the ion-electron system (eV)
  ---------------------------------------------------
  alpha Z        PSCENC =        92.14382556
  Ewald energy   TEWEN  =    112134.35262484
  -Hartree energ DENC   =   -126278.23012584
  -exchange      EXHF   =         0.00000000
  -V(xc)+E(xc)   XCENC  =      1564.86182625
  PAW double counting   =     40991.47256436   -41157.84923630
  entropy T*S    EENTRO =        -0.00463121
  eigenvalues    EBANDS =     -4944.26708039
  atomic energy  EATOM  =     16689.68470767
  Solvation  Ediel_sol  =       104.68909142
  ---------------------------------------------------
  free energy    TOTEN  =      -803.14643363 eV

  energy without entropy =     -803.14180241  energy(sigma->0) =     -803.14411802


--------------------------------------------------------------------------------------------------------




--------------------------------------- Iteration      1(  14)  ---------------------------------------


    POTLOK:  cpu time  114.2040: real time  114.4456
    SETDIJ:  cpu time    0.7866: real time    0.5012
    EDDIAG:  cpu time   58.7051: real time   48.2184
  RMM-DIIS:  cpu time  377.8712: real time  273.6210
    ORTHCH:  cpu time    2.8039: real time    1.4131
       DOS:  cpu time    0.0047: real time    0.0023
    CHARGE:  cpu time   39.8396: real time   38.6500
    MIXING:  cpu time    0.1664: real time    0.1667
    --------------------------------------------
      LOOP:  cpu time  594.3814: real time  477.0184

 eigenvalue-minimisations  :  5281
 total energy-change (2. order) : 0.2428036E+01  (-0.1254588E+00)
 number of electron     346.6999978 magnetization      18.9750020
 augmentation part       16.1212288 magnetization      18.0505282

 Broyden mixing:
  rms(total) = 0.33527E+00    rms(broyden)= 0.33523E+00
  rms(prec ) = 0.33611E+00
  weight for this iteration     100.00

 eigenvalues of (default mixing * dielectric matrix)
  average eigenvalue GAMMA=   2.0988
  8.9661  2.6429  1.8047  1.3521  1.0352  1.0352  0.7909  0.6310  0.6310

 Free energy of the ion-electron system (eV)
  ---------------------------------------------------
  alpha Z        PSCENC =        92.14382556
  Ewald energy   TEWEN  =    112134.35262484
  -Hartree energ DENC   =   -126267.49478098
  -exchange      EXHF   =         0.00000000
  -V(xc)+E(xc)   XCENC  =      1566.34564131
  PAW double counting   =     40568.55484969   -40735.14034760
  entropy T*S    EENTRO =        -0.00521253
  eigenvalues    EBANDS =     -4975.94535982
  atomic energy  EATOM  =     16689.68470767
  Solvation  Ediel_sol  =       126.78565415
  ---------------------------------------------------
  free energy    TOTEN  =      -800.71839770 eV

  energy without entropy =     -800.71318518  energy(sigma->0) =     -800.71579144


--------------------------------------------------------------------------------------------------------




--------------------------------------- Iteration      1(  15)  ---------------------------------------


    POTLOK:  cpu time  114.4002: real time  114.6438
    SETDIJ:  cpu time    0.7229: real time    0.4686
    EDDIAG:  cpu time   58.8409: real time   48.3529
  RMM-DIIS:  cpu time  377.9698: real time  273.7272
    ORTHCH:  cpu time    2.7715: real time    1.3934
       DOS:  cpu time    0.0046: real time    0.0023
    CHARGE:  cpu time   39.8963: real time   38.7028
    MIXING:  cpu time    0.1779: real time    0.1783
    --------------------------------------------
      LOOP:  cpu time  594.7839: real time  477.4692

 eigenvalue-minimisations  :  5280
 total energy-change (2. order) : 0.5226963E+01  (-0.8310398E-01)
 number of electron     346.6999978 magnetization      14.9097343
 augmentation part       16.0831350 magnetization      13.9837973

 Broyden mixing:
  rms(total) = 0.25446E+00    rms(broyden)= 0.25444E+00
  rms(prec ) = 0.25482E+00
  weight for this iteration     100.00

 eigenvalues of (default mixing * dielectric matrix)
  average eigenvalue GAMMA=   2.1615
  9.9567  3.0311  2.4330  1.2073  1.2073  0.8772  0.8772  0.7672  0.6261  0.6322

 Free energy of the ion-electron system (eV)
  ---------------------------------------------------
  alpha Z        PSCENC =        92.14382556
  Ewald energy   TEWEN  =    112134.35262484
  -Hartree energ DENC   =   -126259.30211329
  -exchange      EXHF   =         0.00000000
  -V(xc)+E(xc)   XCENC  =      1571.11122755
  PAW double counting   =     40269.77385046   -40436.74840619
  entropy T*S    EENTRO =        -0.00569820
  eigenvalues    EBANDS =     -5001.81286668
  atomic energy  EATOM  =     16689.68470767
  Solvation  Ediel_sol  =       145.31141379
  ---------------------------------------------------
  free energy    TOTEN  =      -795.49143449 eV

  energy without entropy =     -795.48573629  energy(sigma->0) =     -795.48858539


--------------------------------------------------------------------------------------------------------




--------------------------------------- Iteration      1(  16)  ---------------------------------------


    POTLOK:  cpu time  112.5296: real time  112.7684
    SETDIJ:  cpu time    0.8334: real time    0.5235
    EDDIAG:  cpu time   58.7088: real time   48.2325
  RMM-DIIS:  cpu time  378.1644: real time  274.0183
    ORTHCH:  cpu time    2.7855: real time    1.3988
       DOS:  cpu time    0.0041: real time    0.0021
    CHARGE:  cpu time   39.8727: real time   38.6911
    MIXING:  cpu time    0.1808: real time    0.1812
    --------------------------------------------
      LOOP:  cpu time  593.0794: real time  475.8159

 eigenvalue-minimisations  :  5280
 total energy-change (2. order) : 0.4051462E+01  (-0.2867367E-01)
 number of electron     346.6999978 magnetization       9.6585355
 augmentation part       16.0642026 magnetization       8.7464012

 Broyden mixing:
  rms(total) = 0.20116E+00    rms(broyden)= 0.20116E+00
  rms(prec ) = 0.20159E+00
  weight for this iteration     100.00

 eigenvalues of (default mixing * dielectric matrix)
  average eigenvalue GAMMA=   2.3396
 11.3327  4.1579  2.4802  1.7183  1.1187  1.1187  0.9228  0.9228  0.7232  0.6202
  0.6202

 Free energy of the ion-electron system (eV)
  ---------------------------------------------------
  alpha Z        PSCENC =        92.14382556
  Ewald energy   TEWEN  =    112134.35262484
  -Hartree energ DENC   =   -126252.66260746
  -exchange      EXHF   =         0.00000000
  -V(xc)+E(xc)   XCENC  =      1575.09005922
  PAW double counting   =     40490.65510622   -40657.82762440
  entropy T*S    EENTRO =        -0.00569562
  eigenvalues    EBANDS =     -5009.28255517
  atomic energy  EATOM  =     16689.68470767
  Solvation  Ediel_sol  =       146.41218641
  ---------------------------------------------------
  free energy    TOTEN  =      -791.43997273 eV

  energy without entropy =     -791.43427711  energy(sigma->0) =     -791.43712492


--------------------------------------------------------------------------------------------------------




--------------------------------------- Iteration      1(  17)  ---------------------------------------


    POTLOK:  cpu time  110.8369: real time  111.0720
    SETDIJ:  cpu time    1.0179: real time    0.6246
    EDDIAG:  cpu time   58.6716: real time   48.1945
  RMM-DIIS:  cpu time  377.7506: real time  273.6912
    ORTHCH:  cpu time    2.7838: real time    1.4040
       DOS:  cpu time    0.0047: real time    0.0024
    CHARGE:  cpu time   39.8928: real time   38.6908
    MIXING:  cpu time    0.1831: real time    0.1835
    --------------------------------------------
      LOOP:  cpu time  591.1414: real time  473.8631

 eigenvalue-minimisations  :  5280
 total energy-change (2. order) : 0.5295655E+01  (-0.1658422E-01)
 number of electron     346.6999978 magnetization       6.4092441
 augmentation part       16.0809499 magnetization       5.5062926

 Broyden mixing:
[...]
   -.977E+01 0.536E+01 0.763E+02   0.981E+01 -.540E+01 -.763E+02   -.395E-02 -.228E-02 0.949E-02   -.121E-03 0.318E-04 0.366E-03
   -.770E-01 0.769E+01 0.719E+02   0.937E-01 -.771E+01 -.719E+02   -.443E-02 -.173E-02 0.664E-02   0.148E-04 0.510E-04 0.320E-03
   -.978E+01 0.192E+02 0.822E+02   0.980E+01 -.192E+02 -.821E+02   -.629E-02 -.752E-03 0.137E-01   -.248E-04 0.128E-03 0.392E-03
   -.263E+02 0.183E+02 0.906E+02   0.263E+02 -.183E+02 -.906E+02   -.990E-02 0.162E-02 0.207E-01   -.161E-03 0.159E-03 0.461E-03
   -.296E+02 0.882E+01 0.870E+02   0.296E+02 -.879E+01 -.869E+02   -.112E-01 0.304E-02 0.170E-01   -.250E-03 0.906E-04 0.467E-03
   -.202E+02 0.451E+00 0.783E+02   0.202E+02 -.433E+00 -.782E+02   -.678E-02 0.117E-02 0.752E-02   -.215E-03 0.344E-05 0.392E-03
   -.610E+01 -.132E+01 0.710E+02   0.610E+01 0.130E+01 -.709E+02   -.444E-02 -.955E-03 0.386E-02   -.879E-04 -.141E-04 0.318E-03
   0.177E+02 -.838E+01 0.765E+02   -.177E+02 0.839E+01 -.765E+02   -.191E-02 -.321E-02 0.100E-01   0.199E-03 -.568E-04 0.368E-03
   0.112E+02 -.730E+01 0.770E+02   -.112E+02 0.730E+01 -.769E+02   -.262E-02 -.496E-02 0.494E-02   0.143E-03 -.759E-04 0.389E-03
   -.257E+01 -.226E+01 0.753E+02   0.255E+01 0.225E+01 -.752E+02   -.479E-02 -.452E-02 0.125E-01   0.394E-05 -.473E-04 0.374E-03
   -.861E+01 0.237E+01 0.725E+02   0.859E+01 -.235E+01 -.724E+02   -.548E-02 -.177E-02 0.110E-01   -.860E-04 0.226E-05 0.346E-03
   -.655E+00 0.214E+01 0.720E+02   0.634E+00 -.211E+01 -.719E+02   -.484E-02 -.144E-03 0.534E-02   -.450E-04 0.158E-04 0.330E-03
   0.123E+02 -.357E+01 0.745E+02   -.124E+02 0.359E+01 -.744E+02   -.118E-02 -.526E-03 0.633E-02   0.947E-04 -.165E-04 0.337E-03
   -.242E+00 0.153E+02 -.374E+03   -.231E+01 -.175E+02 0.367E+03   0.250E+01 0.199E+01 0.827E+01   0.100E-03 0.168E-03 0.634E-04
   -.459E+02 -.772E+02 -.265E+03   0.540E+02 0.885E+02 0.268E+03   -.834E+01 -.117E+02 -.200E+01   -.120E-03 -.438E-04 -.355E-03
   -.326E+02 -.865E+02 -.373E+03   0.326E+02 0.865E+02 0.373E+03   -.167E-01 -.386E-01 -.685E-01   -.887E-04 -.237E-03 0.217E-03
   -.541E+03 0.431E+02 -.784E+03   0.600E+03 -.453E+02 0.793E+03   -.577E+02 0.168E+01 -.745E+01   0.112E-02 0.187E-03 -.268E-03
   0.202E+03 0.380E+03 -.102E+04   -.224E+03 -.419E+03 0.106E+04   0.222E+02 0.387E+02 -.339E+02   -.417E-03 -.705E-03 0.286E-03
   0.182E+03 -.428E+03 -.889E+03   -.202E+03 0.481E+03 0.909E+03   0.196E+02 -.518E+02 -.179E+02   -.257E-03 0.119E-02 -.150E-03
   -.166E+03 0.395E+03 -.394E+03   0.190E+03 -.445E+03 0.370E+03   -.228E+02 0.488E+02 0.241E+02   0.712E-04 0.853E-05 0.880E-04
   0.474E+03 -.315E+02 -.471E+03   -.533E+03 0.381E+02 0.459E+03   0.571E+02 -.650E+01 0.132E+02   -.140E-03 0.161E-03 0.152E-05
   -.329E+03 -.727E+00 -.535E+03   0.394E+03 -.249E+02 0.528E+03   -.614E+02 0.244E+02 0.659E+01   -.269E-03 -.313E-03 0.371E-03
   0.244E+03 -.233E+03 -.587E+03   -.309E+03 0.258E+03 0.594E+03   0.615E+02 -.242E+02 -.628E+01   -.796E-05 -.417E-03 0.275E-03
 -----------------------------------------------------------------------------------------------
   -.126E+02 -.214E+02 0.153E+02   0.568E-13 0.000E+00 0.136E-11   0.125E+02 0.212E+02 -.155E+02   -.600E-05 -.103E-05 0.267E-01
 
 
 POSITION                                       TOTAL-FORCE (eV/Angst)
 -----------------------------------------------------------------------------------
      1.25658     -0.72439     17.56955         0.003705     -0.000725      0.000834
      2.51258      1.45127     17.56997         0.003899     -0.000736      0.003943
      3.76880      3.62692     17.56941         0.000333      0.000753      0.000628
      5.02498      5.80264     17.56768         0.001599     -0.000538     -0.000105
      6.28120      7.97819     17.56675         0.001219     -0.000154      0.000188
      7.53723     10.15379     17.56753         0.002077     -0.001900      0.000709
      2.51280     -2.90013     17.57114        -0.001585     -0.000360      0.001985
      3.76871     -0.72457     17.57304        -0.001544      0.002898      0.007157
      5.02492      1.45116     17.57125        -0.002519     -0.001681      0.005089
      6.28133      3.62717     17.56636        -0.003536      0.002533      0.005102
      7.53745      5.80266     17.56738        -0.001915      0.001089     -0.001098
      8.79343      7.97813     17.56760        -0.001532      0.001256      0.000739
      3.76903     -5.07589     17.56975        -0.002431      0.003770      0.001855
      5.02505     -2.90034     17.57377        -0.002263      0.001132      0.006808
      6.28128     -0.72464     17.57448        -0.000796      0.001139      0.005803
      7.53758      1.45126     17.56988        -0.003511     -0.001975      0.005903
      8.79350      3.62687     17.56827        -0.000931      0.004960      0.000710
     10.04959      5.80245     17.56778        -0.003782      0.003399     -0.000194
      5.02516     -7.25135     17.56794        -0.001727      0.003558     -0.000304
      6.28118     -5.07582     17.56983        -0.001914      0.002481      0.001022
      7.53729     -2.90017     17.57114        -0.001506      0.001726      0.001942
      8.79348     -0.72442     17.56977        -0.003327     -0.001240      0.002710
     10.04955      1.45129     17.56856        -0.002478     -0.000622      0.000728
     11.30563      3.62687     17.56788        -0.002120      0.002057     -0.000123
      6.28115     -9.42686     17.56746         0.002663      0.000252      0.000286
      7.53725     -7.25126     17.56780         0.002883      0.001066     -0.001286
      8.79334     -5.07566     17.56778         0.001911      0.001000      0.000430
     10.04944     -2.89999     17.56752         0.000872     -0.001075      0.000989
     11.30556     -0.72434     17.56761         0.000640     -0.001915     -0.001710
     12.56161      1.45130     17.56746         0.001862     -0.001610      0.000760
      7.53714    -11.60239     17.56789         0.005411     -0.003501     -0.000725
      8.79326     -9.42679     17.56807         0.005205     -0.001841      0.000468
     10.04938     -7.25119     17.56773         0.003763     -0.000669      0.001034
     11.30552     -5.07556     17.56701         0.002891     -0.000850     -0.000604
     12.56162     -2.89991     17.56686         0.002907     -0.002870     -0.000326
     13.81768     -0.72427     17.56738         0.003064     -0.003593      0.000463
      1.25685      0.72599     17.56874        -0.005779      0.002213      0.001262
      2.51300      2.90157     17.56903        -0.004143      0.003225      0.000728
      3.76908      5.07720     17.56829        -0.003162      0.001111      0.000194
      5.02515      7.25292     17.56685        -0.002888      0.001793      0.001278
      6.28124      9.42854     17.56659        -0.003374      0.002153      0.000633
      7.53731     11.60414     17.56776        -0.004606      0.002825      0.000758
      2.51286     -1.44964     17.57194         0.000523      0.000280     -0.000988
      3.76896      0.72593     17.57273         0.000085      0.000446     -0.002362
      5.02523      2.90157     17.56999         0.002686      0.001581     -0.002696
      6.28121      5.07741     17.56740         0.000870     -0.003797     -0.002833
      7.53733      7.25297     17.56682         0.000071     -0.000596      0.001287
      8.79339      9.42856     17.56817        -0.000839     -0.000638      0.001813
      3.76896     -3.62526     17.57266         0.002919      0.000228     -0.000713
      5.02495     -1.44960     17.57699         0.001222     -0.002043     -0.004182
      6.28110      0.72603     17.57433         0.003957      0.002134     -0.002127
      7.53709      2.90170     17.56805         0.002541     -0.001595     -0.004628
      8.79332      5.07731     17.56785         0.003423     -0.004141      0.000040
     10.04944      7.25293     17.56777         0.002436     -0.003675      0.001723
      5.02507     -5.80083     17.56883         0.001970     -0.004271      0.000911
      6.28107     -3.62521     17.57246         0.001736     -0.001841     -0.000506
      7.53717     -1.44958     17.57231         0.001975     -0.001717      0.001007
      8.79327      0.72604     17.56952         0.002987      0.001697     -0.000679
     10.04938      2.90171     17.56831         0.002133     -0.002134      0.000415
     11.30554      5.07731     17.56754         0.003023     -0.002811      0.000956
      6.28121     -7.97644     17.56748        -0.000378     -0.001906      0.000569
      7.53725     -5.80080     17.56801         0.000554     -0.002445      0.001218
      8.79329     -3.62519     17.56814         0.001738     -0.001279      0.001654
     10.04939     -1.44959     17.56772         0.002208      0.001596      0.001416
     11.30550      0.72604     17.56759         0.001173      0.001732      0.000746
     12.56163      2.90167     17.56740         0.000483      0.000366      0.000030
      7.53737    -10.15206     17.56744        -0.005335      0.001596      0.000739
      8.79346     -7.97643     17.56763        -0.004640      0.000035     -0.000133
     10.04951     -5.80082     17.56705        -0.003050      0.000496      0.000762
     11.30557     -3.62519     17.56672        -0.002089      0.002090      0.000575
     12.56169     -1.44957     17.56705        -0.003322      0.003317     -0.000018
     13.81778      0.72606     17.56731        -0.004023      0.003101      0.000202
      5.09007     -1.02598     23.12745        -0.007280     -0.009674     -0.000588
      4.73891     -1.24907     21.67884        -0.008561     -0.007480     -0.011406
      6.30757      2.71785     21.39417         0.008440     -0.002493     -0.008190
      6.42083     -1.06807     23.28813        -0.004981      0.012090     -0.005625
      4.54903     -1.96562     23.93812        -0.004516     -0.002180     -0.009534
      4.63350      0.16932     23.53063         0.013106      0.002081     -0.007960
      5.24364     -2.36125     21.16188         0.003644     -0.005836     -0.005269
      3.44736     -1.11824     21.40701        -0.000811     -0.000138     -0.006140
      7.38339      2.28971     21.27814         0.008036     -0.000939     -0.004352
      5.22969      3.14242     21.50348        -0.007649      0.008228      0.008203
 -----------------------------------------------------------------------------------
    total drift:                               -0.154785     -0.178235     -0.144032


--------------------------------------------------------------------------------------------------------



  FREE ENERGIE OF THE ION-ELECTRON SYSTEM (eV)
  ---------------------------------------------------
  free  energy   TOTEN  =      -777.87482027 eV

  energy  without entropy=     -777.86911537  energy(sigma->0) =     -777.87196782
 


--------------------------------------------------------------------------------------------------------


    POTLOK:  cpu time   83.9641: real time   84.3893


--------------------------------------------------------------------------------------------------------




--------------------------------------------------------------------------------------------------------


  
 reached required accuracy - stopping structural energy minimisation
 writing wavefunctions
     LOOP+:  cpu time19308.3786: real time15298.2951
    4ORBIT:  cpu time    0.0000: real time    0.0000
 


 total charge     
 
# of ion       s       p       d       tot
------------------------------------------
    1        0.744   1.393   0.000   2.137
    2        0.744   1.393   0.000   2.137
    3        0.744   1.393   0.000   2.137
    4        0.744   1.393   0.000   2.137
    5        0.744   1.393   0.000   2.137
    6        0.744   1.393   0.000   2.137
    7        0.744   1.393   0.000   2.137
    8        0.744   1.394   0.000   2.138
    9        0.744   1.394   0.000   2.138
   10        0.744   1.394   0.000   2.138
   11        0.744   1.393   0.000   2.137
   12        0.744   1.393   0.000   2.137
   13        0.744   1.393   0.000   2.137
   14        0.744   1.393   0.000   2.137
   15        0.744   1.393   0.000   2.137
   16        0.744   1.393   0.000   2.137
   17        0.744   1.393   0.000   2.137
   18        0.744   1.393   0.000   2.137
   19        0.744   1.393   0.000   2.137
   20        0.744   1.393   0.000   2.137
   21        0.744   1.393   0.000   2.137
   22        0.744   1.393   0.000   2.137
   23        0.744   1.393   0.000   2.137
   24        0.744   1.393   0.000   2.137
   25        0.744   1.393   0.000   2.137
   26        0.744   1.393   0.000   2.137
   27        0.744   1.393   0.000   2.137
   28        0.744   1.393   0.000   2.137
   29        0.744   1.393   0.000   2.137
   30        0.744   1.393   0.000   2.137
   31        0.744   1.393   0.000   2.137
   32        0.744   1.393   0.000   2.137
   33        0.744   1.393   0.000   2.137
   34        0.744   1.393   0.000   2.137
   35        0.744   1.393   0.000   2.137
   36        0.744   1.393   0.000   2.137
   37        1.238   2.821   0.000   4.059
   38        1.238   2.821   0.000   4.059
   39        1.238   2.821   0.000   4.059
   40        1.238   2.821   0.000   4.059
   41        1.238   2.821   0.000   4.059
   42        1.238   2.821   0.000   4.059
   43        1.238   2.821   0.000   4.059
   44        1.238   2.821   0.000   4.059
   45        1.238   2.821   0.000   4.059
   46        1.238   2.821   0.000   4.059
   47        1.238   2.821   0.000   4.059
   48        1.238   2.821   0.000   4.059
   49        1.238   2.821   0.000   4.059
   50        1.238   2.821   0.000   4.059
   51        1.238   2.821   0.000   4.059
   52        1.238   2.821   0.000   4.059
   53        1.238   2.821   0.000   4.059
   54        1.238   2.821   0.000   4.059
   55        1.238   2.821   0.000   4.059
   56        1.238   2.821   0.000   4.059
   57        1.238   2.821   0.000   4.059
   58        1.238   2.821   0.000   4.059
   59        1.238   2.821   0.000   4.059
   60        1.238   2.821   0.000   4.059
   61        1.238   2.821   0.000   4.059
   62        1.238   2.821   0.000   4.059
   63        1.238   2.821   0.000   4.059
   64        1.238   2.821   0.000   4.059
   65        1.238   2.821   0.000   4.059
   66        1.238   2.821   0.000   4.059
   67        1.238   2.821   0.000   4.059
   68        1.238   2.821   0.000   4.059
   69        1.238   2.821   0.000   4.059
   70        1.238   2.821   0.000   4.059
   71        1.238   2.821   0.000   4.059
   72        1.238   2.821   0.000   4.059
   73        0.814   1.560   0.000   2.374
   74        0.836   1.566   0.000   2.402
   75        0.945   1.794   0.000   2.738
   76        1.758   4.413   0.000   6.171
   77        1.758   4.405   0.000   6.163
   78        1.758   4.413   0.000   6.171
   79        1.757   4.399   0.000   6.156
   80        1.757   4.400   0.000   6.156
   81        1.608   3.595   0.000   5.203
   82        1.608   3.596   0.000   5.204
--------------------------------------------------
tot         85.964 185.854   0.000 271.818
 


 magnetization (x)
 
# of ion       s       p       d       tot
------------------------------------------
    1        0.000   0.000   0.000   0.000
    2       -0.000  -0.000   0.000  -0.000
    3       -0.000   0.000   0.000   0.000
    4        0.000   0.000   0.000   0.000
    5        0.000   0.000   0.000   0.000
    6        0.000   0.000   0.000   0.000
    7        0.000   0.000   0.000   0.000
    8       -0.000   0.000   0.000   0.000
    9        0.000   0.000   0.000   0.000
   10       -0.000  -0.000   0.000  -0.000
   11       -0.000   0.000   0.000   0.000
   12        0.000   0.000   0.000   0.000
   13        0.000  -0.000   0.000  -0.000
   14       -0.000   0.000   0.000  -0.000
   15        0.000   0.000   0.000   0.000
   16       -0.000   0.000   0.000   0.000
   17       -0.000  -0.000   0.000  -0.000
   18        0.000   0.000   0.000   0.000
   19       -0.000   0.000   0.000   0.000
   20       -0.000   0.000   0.000   0.000
   21       -0.000  -0.000   0.000  -0.000
   22        0.000  -0.000   0.000  -0.000
   23       -0.000   0.000   0.000   0.000
   24        0.000   0.000   0.000   0.000
   25        0.000   0.000   0.000   0.000
   26        0.000   0.000   0.000   0.000
   27        0.000   0.000   0.000   0.000
   28        0.000   0.000   0.000   0.000
   29        0.000   0.000   0.000   0.000
   30        0.000   0.000   0.000   0.000
   31        0.000   0.000   0.000   0.000
   32        0.000   0.000   0.000   0.000
   33        0.000   0.000   0.000   0.000
   34        0.000   0.000   0.000   0.000
   35        0.000   0.000   0.000   0.000
   36        0.000   0.000   0.000   0.000
   37        0.000   0.000   0.000   0.000
   38        0.000   0.000   0.000   0.000
   39       -0.000  -0.000   0.000  -0.000
   40       -0.000  -0.000   0.000  -0.000
   41       -0.000   0.000   0.000   0.000
   42       -0.000  -0.000   0.000  -0.000
   43       -0.000  -0.000   0.000  -0.000
   44       -0.000  -0.000   0.000  -0.000
   45       -0.000  -0.000   0.000  -0.000
   46        0.000   0.000   0.000   0.000
   47       -0.000  -0.000   0.000  -0.000
   48        0.000   0.000   0.000   0.000
   49       -0.000  -0.000   0.000  -0.000
   50       -0.000  -0.000   0.000  -0.000
   51        0.000   0.000   0.000   0.000
   52        0.000   0.000   0.000   0.000
   53        0.000   0.000   0.000   0.000
   54       -0.000  -0.000   0.000  -0.000
   55        0.000   0.000   0.000   0.000
   56        0.000   0.000   0.000   0.000
   57       -0.000  -0.000   0.000  -0.000
   58        0.000  -0.000   0.000  -0.000
   59        0.000   0.000   0.000   0.000
   60       -0.000  -0.000   0.000  -0.000
   61        0.000   0.000   0.000   0.000
   62        0.000   0.000   0.000   0.000
   63       -0.000  -0.000   0.000  -0.000
   64        0.000   0.000   0.000   0.000
   65       -0.000  -0.000   0.000  -0.000
   66       -0.000  -0.000   0.000  -0.000
   67       -0.000  -0.000   0.000  -0.000
   68       -0.000  -0.000   0.000  -0.000
   69       -0.000   0.000   0.000   0.000
   70       -0.000  -0.000   0.000  -0.000
   71       -0.000  -0.000   0.000  -0.000
   72       -0.000   0.000   0.000   0.000
   73        0.004   0.011   0.000   0.015
   74        0.071   0.377   0.000   0.447
   75       -0.000   0.000   0.000   0.000
   76       -0.000  -0.000   0.000  -0.001
   77        0.001   0.030   0.000   0.031
   78       -0.000  -0.000   0.000  -0.001
   79        0.003   0.077   0.000   0.080
   80        0.003   0.077   0.000   0.080
   81        0.000   0.000   0.000   0.000
   82        0.000  -0.000   0.000   0.000
--------------------------------------------------
tot          0.082   0.570   0.000   0.652
 

 total amount of memory used by VASP MPI-rank0  1757864. kBytes
=======================================================================

   base      :      30000. kBytes
   nonlr-proj:      37376. kBytes
   fftplans  :     102830. kBytes
   grid      :     872370. kBytes
   one-center:        503. kBytes
   wavefun   :     714785. kBytes
 
  
  
 General timing and accounting informations for this job:
 ========================================================
  
                  Total CPU time used (sec):    19767.244
                            User time (sec):    19230.079
                          System time (sec):      537.164
                         Elapsed time (sec):    15584.748
  
                   Maximum memory used (kb):     3563056.
                   Average memory used (kb):           0.
  
                          Minor page faults:     52809262
                          Major page faults:           22
                 Voluntary context switches:       123241
