Job started on c501-052.stampede2.tacc.utexas.edu at Fri May 21 02:20:29 CDT 2021
TACC:  Starting up job 7740867 
TACC:  Starting parallel tasks... 
 running on   48 total cores
 distrk:  each k-point on   48 cores,    1 groups
 distr:  one band on   12 cores,    4 groups
 using from now: INCAR     
 vasp.5.4.4.18Apr17-6-g9f103f2a35 (build May 01 2020 14:57:12) complex          
  
 POSCAR found type information on POSCAR  C  F  O 
 POSCAR found :  3 types and      16 ions
 scaLAPACK will be used

 ----------------------------------------------------------------------------- 
|                                                                             |
|  ADVICE TO THIS USER RUNNING 'VASP/VAMP'   (HEAR YOUR MASTER'S VOICE ...):  |
|                                                                             |
|      You have switched on vdW-DFT.                                          |
|      This routine was written and supplied by Jiri Klimes.                  |
|      We recommed that you carefully read and cite the following             |
|      publication                                                            |
|      J. Klimes, D.R. Bowler, A. Michelides                                  |
|        J. Phys.: Cond Matt. 22 022201 (2010)                                |
|      J. Klimes, D.R. Bowler, A. Michelides                                  |
|        Phys. Rev. B. 83, 195131 (2011)                                      |
|      and references therein.                                                |
|                                                                             |
 ----------------------------------------------------------------------------- 

 LDA part: xc-table for Pade appr. of Perdew
 found WAVECAR, reading the header
 POSCAR, INCAR and KPOINTS ok, starting setup
 FFT: planning ...
 reading WAVECAR
 the WAVECAR file was read successfully
 initial charge from wavefunction
 entering main loop
       N       E                     dE             d eps       ncg     rms          rms(c)
SOL:   1  -0.15800E+01    0.00000E+00   -0.15800E+01   111
  FERMI_SHIFT =   1.999077752421957E-002
Total rVV10 correction in eV:      2.5700271    96.2426343
DAV:   1    -0.119553760099E+03   -0.11955E+03   -0.82291E-01   400   0.648E+00    0.642E-01
SOL:   2  -0.16035E+01    0.00000E+00   -0.16035E+01    92
  FERMI_SHIFT =   1.998813370327460E-002
Total rVV10 correction in eV:      2.5704234    96.2467049
RMM:   2    -0.119553033213E+03    0.72689E-03   -0.14663E-01   272   0.136E+00    0.341E-01
SOL:   3  -0.16294E+01    0.00000E+00   -0.16294E+01    91
  FERMI_SHIFT =   1.999068256741107E-002
Total rVV10 correction in eV:      2.5706178    96.2492002
RMM:   3    -0.119550548753E+03    0.24845E-02   -0.19468E-02   282   0.380E-01    0.210E-01
SOL:   4  -0.16470E+01    0.00000E+00   -0.16470E+01    89
  FERMI_SHIFT =   1.999068256717604E-002
Total rVV10 correction in eV:      2.5706770    96.2513153
RMM:   4    -0.119549018649E+03    0.15301E-02   -0.31286E-03   274   0.185E-01    0.112E-01
SOL:   5  -0.16816E+01    0.00000E+00   -0.16816E+01    90
  FERMI_SHIFT =   1.998813370364835E-002
Total rVV10 correction in eV:      2.5708542    96.2557451
RMM:   5    -0.119546432856E+03    0.25858E-02   -0.36626E-03   272   0.260E-01    0.630E-02
SOL:   6  -0.17025E+01    0.00000E+00   -0.17025E+01    89
  FERMI_SHIFT =   1.999068256719566E-002
Total rVV10 correction in eV:      2.5709536    96.2569041
RMM:   6    -0.119546945611E+03   -0.51275E-03   -0.28577E-03   274   0.134E-01    0.873E-02
SOL:   7  -0.17273E+01    0.00000E+00   -0.17273E+01    91
  FERMI_SHIFT =   1.998813856485734E-002
Total rVV10 correction in eV:      2.5709759    96.2576497
RMM:   7    -0.119547511290E+03   -0.56568E-03   -0.15740E-03   274   0.133E-01    0.327E-02
SOL:   8  -0.17357E+01    0.00000E+00   -0.17357E+01    84
  FERMI_SHIFT =   1.998813856481788E-002
Total rVV10 correction in eV:      2.5709692    96.2563211
RMM:   8    -0.119548223146E+03   -0.71186E-03   -0.37739E-04   256   0.856E-02    0.269E-02
SOL:   9  -0.17492E+01    0.00000E+00   -0.17492E+01    86
  FERMI_SHIFT =   1.999067708335167E-002
Total rVV10 correction in eV:      2.5709771    96.2541813
RMM:   9    -0.119549654777E+03   -0.14316E-02   -0.81233E-04   257   0.107E-01    0.119E-02
SOL:  10  -0.17543E+01    0.00000E+00   -0.17543E+01    81
  FERMI_SHIFT =   1.998814922340497E-002
Total rVV10 correction in eV:      2.5709426    96.2508749
RMM:  10    -0.119550994686E+03   -0.13399E-02   -0.72211E-04   254   0.106E-01    0.107E-02
SOL:  11  -0.17552E+01    0.00000E+00   -0.17552E+01    75
  FERMI_SHIFT =   1.998815486179240E-002
Total rVV10 correction in eV:      2.5709236    96.2495034
RMM:  11    -0.119551357478E+03   -0.36279E-03   -0.25195E-04   235   0.707E-02    0.492E-03
SOL:  12  -0.17556E+01    0.00000E+00   -0.17556E+01    76
  FERMI_SHIFT =   1.999066225910229E-002
Total rVV10 correction in eV:      2.5708994    96.2475625
RMM:  12    -0.119551714827E+03   -0.35735E-03   -0.12120E-04   213   0.498E-02    0.512E-03
SOL:  13  -0.17560E+01    0.00000E+00   -0.17560E+01    78
  FERMI_SHIFT =   1.998815486178798E-002
Total rVV10 correction in eV:      2.5708791    96.2456842
RMM:  13    -0.119552028826E+03   -0.31400E-03   -0.77580E-05   206   0.391E-02    0.307E-03
SOL:  14  -0.17561E+01    0.00000E+00   -0.17561E+01    72
  FERMI_SHIFT =   1.999066753102993E-002
Total rVV10 correction in eV:      2.5708734    96.2450614
RMM:  14    -0.119552100320E+03   -0.71493E-04   -0.23795E-05   185   0.263E-02    0.104E-03
SOL:  15  -0.17562E+01    0.00000E+00   -0.17562E+01    72
  FERMI_SHIFT =   1.999067216266454E-002
Total rVV10 correction in eV:      2.5708600    96.2440409
RMM:  15    -0.119552211010E+03   -0.11069E-03   -0.15953E-05   182   0.227E-02    0.172E-03
SOL:  16  -0.17561E+01    0.00000E+00   -0.17561E+01    65
  FERMI_SHIFT =   1.998814377234323E-002
Total rVV10 correction in eV:      2.5708533    96.2437001
RMM:  16    -0.119552238822E+03   -0.27812E-04   -0.67579E-06   178   0.165E-02    0.867E-04
SOL:  17  -0.17561E+01    0.00000E+00   -0.17561E+01    64
  FERMI_SHIFT =   1.999067708333485E-002
Total rVV10 correction in eV:      2.5708476    96.2434039
RMM:  17    -0.119552260025E+03   -0.21203E-04   -0.40740E-06   176   0.135E-02    0.370E-04
SOL:  18  -0.17560E+01    0.00000E+00   -0.17560E+01    65
  FERMI_SHIFT =   1.999086867156563E-002
Total rVV10 correction in eV:      2.5708424    96.2430980
RMM:  18    -0.119552279702E+03   -0.19678E-04   -0.35812E-06   176   0.133E-02    0.285E-04
SOL:  19  -0.17560E+01    0.00000E+00   -0.17560E+01    60
  FERMI_SHIFT =   1.999087511441983E-002
Total rVV10 correction in eV:      2.5708406    96.2429833
RMM:  19    -0.119552286500E+03   -0.67974E-05   -0.26742E-06   176   0.116E-02
Total rVV10 correction in eV:      2.5708329    96.2426344
SOL:  20  -0.17560E+01    0.00000E+00   -0.17560E+01    59
  FERMI_SHIFT =   1.998794149277489E-002
Total rVV10 correction in eV:      2.5708384    96.2428660
   1 F= -.11955229E+03 E0= -.11955229E+03  d E =-.119552E+03  mag=    -0.0000
 curvature:   0.00 expect dE= 0.000E+00 dE for cont linesearch  0.000E+00
 trial: gam= 0.00000 g(F)=  0.790E-01 g(S)=  0.000E+00 ort = 0.000E+00 (trialstep = 0.100E+01)
 search vector abs. value=  0.790E-01
 bond charge predicted
       N       E                     dE             d eps       ncg     rms          rms(c)
SOL:  21  -0.17556E+01    0.00000E+00   -0.17556E+01    93
  FERMI_SHIFT =   1.998805406417382E-002
Total rVV10 correction in eV:      2.5705680    96.2429190
DAV:   1    -0.119484227658E+03    0.68052E-01   -0.13364E+01   352   0.169E+01    0.728E-01
SOL:  22  -0.17703E+01    0.00000E+00   -0.17703E+01    90
  FERMI_SHIFT =   1.999047565434700E-002
Total rVV10 correction in eV:      2.5707538    96.2490520
RMM:   2    -0.119532450742E+03   -0.48223E-01   -0.40736E-01   272   0.282E+00    0.480E-01
SOL:  23  -0.17811E+01    0.00000E+00   -0.17811E+01    88
  FERMI_SHIFT =   1.999046694043069E-002
Total rVV10 correction in eV:      2.5707357    96.2493673
RMM:   3    -0.119530869503E+03    0.15812E-02   -0.15986E-02   280   0.423E-01    0.341E-01
SOL:  24  -0.18080E+01    0.00000E+00   -0.18080E+01    92
  FERMI_SHIFT =   1.998834759282106E-002
Total rVV10 correction in eV:      2.5706932    96.2495855
RMM:   4    -0.119531639380E+03   -0.76988E-03   -0.94468E-03   272   0.451E-01    0.620E-02
SOL:  25  -0.18120E+01    0.00000E+00   -0.18120E+01    85
  FERMI_SHIFT =   1.999046694046908E-002
Total rVV10 correction in eV:      2.5707093    96.2496738
RMM:   5    -0.119531828952E+03   -0.18957E-03   -0.38990E-04   268   0.894E-02    0.370E-02
SOL:  26  -0.18243E+01    0.00000E+00   -0.18243E+01    88
  FERMI_SHIFT =   1.998834759290580E-002
Total rVV10 correction in eV:      2.5707467    96.2501754
RMM:   6    -0.119532133039E+03   -0.30409E-03   -0.80627E-04   270   0.923E-02    0.252E-02
SOL:  27  -0.18263E+01    0.00000E+00   -0.18263E+01    80
  FERMI_SHIFT =   1.999047565519788E-002
Total rVV10 correction in eV:      2.5707379    96.2499817
RMM:   7    -0.119532289730E+03   -0.15669E-03   -0.90684E-05   254   0.450E-02    0.146E-02
SOL:  28  -0.18382E+01    0.00000E+00   -0.18382E+01    86
  FERMI_SHIFT =   1.998834759287385E-002
Total rVV10 correction in eV:      2.5707408    96.2494398
RMM:   8    -0.119532920354E+03   -0.63062E-03   -0.24147E-04   260   0.630E-02    0.106E-02
SOL:  29  -0.18427E+01    0.00000E+00   -0.18427E+01    81
  FERMI_SHIFT =   1.999046694049081E-002
Total rVV10 correction in eV:      2.5707426    96.2488306
RMM:   9    -0.119533193896E+03   -0.27354E-03   -0.13851E-04   234   0.564E-02    0.691E-03
SOL:  30  -0.18490E+01    0.00000E+00   -0.18490E+01    82
  FERMI_SHIFT =   1.999046694049295E-002
Total rVV10 correction in eV:      2.5707351    96.2474856
RMM:  10    -0.119533704604E+03   -0.51071E-03   -0.24479E-04   252   0.699E-02    0.597E-03
SOL:  31  -0.18515E+01    0.00000E+00   -0.18515E+01    77
  FERMI_SHIFT =   1.998835589373466E-002
Total rVV10 correction in eV:      2.5707256    96.2467076
RMM:  11    -0.119533873347E+03   -0.16874E-03   -0.12337E-04   220   0.535E-02    0.340E-03
SOL:  32  -0.18523E+01    0.00000E+00   -0.18523E+01    75
  FERMI_SHIFT =   1.999045796526047E-002
Total rVV10 correction in eV:      2.5707107    96.2455789
RMM:  12    -0.119534117969E+03   -0.24462E-03   -0.73612E-05   203   0.384E-02    0.328E-03
SOL:  33  -0.18529E+01    0.00000E+00   -0.18529E+01    74
  FERMI_SHIFT =   1.998836463775333E-002
Total rVV10 correction in eV:      2.5707017    96.2446806
RMM:  13    -0.119534267133E+03   -0.14916E-03   -0.43864E-05   193   0.313E-02    0.156E-03
SOL:  34  -0.18530E+01    0.00000E+00   -0.18530E+01    72
  FERMI_SHIFT =   1.998836463775322E-002
Total rVV10 correction in eV:      2.5706962    96.2441600
RMM:  14    -0.119534336229E+03   -0.69096E-04   -0.20350E-05   183   0.240E-02    0.123E-03
SOL:  35  -0.18530E+01    0.00000E+00   -0.18530E+01    71
  FERMI_SHIFT =   1.999045796526155E-002
Total rVV10 correction in eV:      2.5706871    96.2435864
RMM:  15    -0.119534400327E+03   -0.64099E-04   -0.11430E-05   182   0.192E-02    0.889E-04
SOL:  36  -0.18529E+01    0.00000E+00   -0.18529E+01    66
  FERMI_SHIFT =   1.998835589373577E-002
Total rVV10 correction in eV:      2.5706813    96.2433076
RMM:  16    -0.119534424117E+03   -0.23789E-04   -0.53811E-06   178   0.146E-02    0.472E-04
SOL:  37  -0.18529E+01    0.00000E+00   -0.18529E+01    64
  FERMI_SHIFT =   1.999075897094507E-002
Total rVV10 correction in eV:      2.5706766    96.2430628
RMM:  17    -0.119534441910E+03   -0.17793E-04   -0.38739E-06   176   0.134E-02    0.602E-04
SOL:  38  -0.18529E+01    0.00000E+00   -0.18529E+01    62
  FERMI_SHIFT =   1.998806259602859E-002
Total rVV10 correction in eV:      2.5706749    96.2429569
RMM:  18    -0.119534448800E+03   -0.68899E-05   -0.27082E-06   176   0.114E-02
Total rVV10 correction in eV:      2.5706675    96.2426353
SOL:  39  -0.18529E+01    0.00000E+00   -0.18529E+01    60
  FERMI_SHIFT =   1.999076848505557E-002
Total rVV10 correction in eV:      2.5706734    96.2428731
   2 F= -.11953445E+03 E0= -.11953445E+03  d E =0.178377E-01  mag=     0.0000
 trial-energy change:    0.017838  1 .order    0.018693   -0.079036    0.116422
 step:   0.4107(harm=  0.4044)  dis= 0.01179  next Energy=  -119.568577 (dE=-0.163E-01)
 bond charge predicted
       N       E                     dE             d eps       ncg     rms          rms(c)
SOL:  40  -0.18533E+01    0.00000E+00   -0.18533E+01    91
  FERMI_SHIFT =   1.998797042370407E-002
Total rVV10 correction in eV:      2.5708483    96.2429003
DAV:   1    -0.119552416271E+03   -0.17974E-01   -0.46407E+00   320   0.995E+00    0.436E-01
SOL:  41  -0.18438E+01    0.00000E+00   -0.18438E+01    88
  FERMI_SHIFT =   1.999061218816539E-002
Total rVV10 correction in eV:      2.5709148    96.2467343
RMM:   2    -0.119567741540E+03   -0.15325E-01   -0.14027E-01   272   0.168E+00    0.283E-01
SOL:  42  -0.18370E+01    0.00000E+00   -0.18370E+01    86
  FERMI_SHIFT =   1.998821015026014E-002
Total rVV10 correction in eV:      2.5709107    96.2470211
RMM:   3    -0.119567112050E+03    0.62949E-03   -0.54262E-03   278   0.263E-01    0.197E-01
SOL:  43  -0.18215E+01    0.00000E+00   -0.18215E+01    89
  FERMI_SHIFT =   1.999061218764853E-002
Total rVV10 correction in eV:      2.5708521    96.2471718
RMM:   4    -0.119567480610E+03   -0.36856E-03   -0.32653E-03   272   0.268E-01    0.358E-02
SOL:  44  -0.18186E+01    0.00000E+00   -0.18186E+01    83
  FERMI_SHIFT =   1.999060533157923E-002
Total rVV10 correction in eV:      2.5708372    96.2472724
RMM:   5    -0.119567518140E+03   -0.37530E-04   -0.14631E-04   262   0.562E-02    0.211E-02
SOL:  45  -0.18120E+01    0.00000E+00   -0.18120E+01    85
  FERMI_SHIFT =   1.998821015027202E-002
Total rVV10 correction in eV:      2.5708215    96.2474324
RMM:   6    -0.119567630024E+03   -0.11188E-03   -0.22763E-04   262   0.532E-02    0.138E-02
SOL:  46  -0.18102E+01    0.00000E+00   -0.18102E+01    79
  FERMI_SHIFT =   1.999061218768153E-002
Total rVV10 correction in eV:      2.5708288    96.2472697
RMM:   7    -0.119567701485E+03   -0.71462E-04   -0.46464E-05   237   0.349E-02    0.862E-03
SOL:  47  -0.18032E+01    0.00000E+00   -0.18032E+01    84
  FERMI_SHIFT =   1.999060533156741E-002
Total rVV10 correction in eV:      2.5708195    96.2469207
RMM:   8    -0.119567918020E+03   -0.21653E-03   -0.78482E-05   239   0.429E-02    0.533E-03
SOL:  48  -0.18002E+01    0.00000E+00   -0.18002E+01    77
  FERMI_SHIFT =   1.999060533156624E-002
Total rVV10 correction in eV:      2.5708118    96.2463416
RMM:   9    -0.119568079074E+03   -0.16105E-03   -0.45774E-05   215   0.388E-02    0.403E-03
SOL:  49  -0.17966E+01    0.00000E+00   -0.17966E+01    80
  FERMI_SHIFT =   1.998821657507402E-002
Total rVV10 correction in eV:      2.5708041    96.2454306
RMM:  10    -0.119568273384E+03   -0.19431E-03   -0.64322E-05   228   0.450E-02    0.254E-03
SOL:  50  -0.17958E+01    0.00000E+00   -0.17958E+01    71
  FERMI_SHIFT =   1.999059826193825E-002
Total rVV10 correction in eV:      2.5708002    96.2449274
RMM:  11    -0.119568358507E+03   -0.85123E-04   -0.38364E-05   208   0.372E-02    0.175E-03
SOL:  51  -0.17953E+01    0.00000E+00   -0.17953E+01    73
  FERMI_SHIFT =   1.998822338767056E-002
Total rVV10 correction in eV:      2.5707928    96.2441130
RMM:  12    -0.119568456744E+03   -0.98237E-04   -0.19337E-05   183   0.256E-02    0.995E-04
SOL:  52  -0.17951E+01    0.00000E+00   -0.17951E+01    70
  FERMI_SHIFT =   1.998822338767137E-002
Total rVV10 correction in eV:      2.5707879    96.2437117
RMM:  13    -0.119568498175E+03   -0.41431E-04   -0.10123E-05   180   0.191E-02    0.729E-04
SOL:  53  -0.17951E+01    0.00000E+00   -0.17951E+01    68
  FERMI_SHIFT =   1.998822338766715E-002
Total rVV10 correction in eV:      2.5707833    96.2433516
RMM:  14    -0.119568530311E+03   -0.32135E-04   -0.76366E-06   179   0.181E-02    0.507E-04
SOL:  54  -0.17951E+01    0.00000E+00   -0.17951E+01    66
  FERMI_SHIFT =   1.999059826193830E-002
Total rVV10 correction in eV:      2.5707798    96.2430995
RMM:  15    -0.119568550284E+03   -0.19973E-04   -0.49919E-06   176   0.152E-02    0.290E-04
SOL:  55  -0.17951E+01    0.00000E+00   -0.17951E+01    61
  FERMI_SHIFT =   1.998821657507163E-002
Total rVV10 correction in eV:      2.5707775    96.2429599
RMM:  16    -0.119568559780E+03   -0.94957E-05   -0.29753E-06   176   0.121E-02
Total rVV10 correction in eV:      2.5707691    96.2426348
SOL:  56  -0.17951E+01    0.00000E+00   -0.17951E+01    60
  FERMI_SHIFT =   1.998821657507199E-002
Total rVV10 correction in eV:      2.5707752    96.2428409
   3 F= -.11956856E+03 E0= -.11956856E+03  d E =-.162733E-01  mag=     0.0000
 curvature:  -0.20 expect dE=-0.581E-02 dE for cont linesearch -0.566E-07
 trial: gam= 0.36185 g(F)=  0.287E-01 g(S)=  0.000E+00 ort = 0.149E-03 (trialstep = 0.882E+00)
 search vector abs. value=  0.392E-01
 bond charge predicted
       N       E                     dE             d eps       ncg     rms          rms(c)
SOL:  57  -0.17998E+01    0.00000E+00   -0.17998E+01    94
  FERMI_SHIFT =   1.999095389402891E-002
Total rVV10 correction in eV:      2.5706717    96.2428792
DAV:   1    -0.119550136137E+03    0.18414E-01   -0.67018E+00   288   0.116E+01    0.573E-01
SOL:  58  -0.18032E+01    0.00000E+00   -0.18032E+01    88
  FERMI_SHIFT =   1.999119913246397E-002
Total rVV10 correction in eV:      2.5708551    96.2470098
RMM:   2    -0.119570147179E+03   -0.20011E-01   -0.19586E-01   272   0.188E+00    0.304E-01
SOL:  59  -0.18054E+01    0.00000E+00   -0.18054E+01    85
  FERMI_SHIFT =   1.999119912764880E-002
Total rVV10 correction in eV:      2.5708674    96.2466646
RMM:   3    -0.119569388063E+03    0.75912E-03   -0.82567E-03   276   0.282E-01    0.210E-01
SOL:  60  -0.18103E+01    0.00000E+00   -0.18103E+01    88
  FERMI_SHIFT =   1.999119912668912E-002
Total rVV10 correction in eV:      2.5708406    96.2448575
RMM:   4    -0.119569952334E+03   -0.56427E-03   -0.36612E-03   272   0.236E-01    0.559E-02
SOL:  61  -0.18138E+01    0.00000E+00   -0.18138E+01    82
  FERMI_SHIFT =   1.998762869473567E-002
Total rVV10 correction in eV:      2.5708509    96.2446295
RMM:   5    -0.119570062051E+03   -0.10972E-03   -0.35117E-04   268   0.771E-02    0.229E-02
SOL:  62  -0.18165E+01    0.00000E+00   -0.18165E+01    81
  FERMI_SHIFT =   1.999119033707081E-002
Total rVV10 correction in eV:      2.5708533    96.2446196
RMM:   6    -0.119570066772E+03   -0.47203E-05   -0.10998E-04   230   0.350E-02    0.159E-02
SOL:  63  -0.18194E+01    0.00000E+00   -0.18194E+01    82
  FERMI_SHIFT =   1.998763638851314E-002
Total rVV10 correction in eV:      2.5708488    96.2445577
RMM:   7    -0.119570083498E+03   -0.16726E-04   -0.58624E-05   208   0.376E-02    0.733E-03
SOL:  64  -0.18212E+01    0.00000E+00   -0.18212E+01    77
  FERMI_SHIFT =   1.998763638850853E-002
Total rVV10 correction in eV:      2.5708489    96.2444295
RMM:   8    -0.119570136695E+03   -0.53197E-04   -0.22510E-05   185   0.271E-02    0.294E-03
SOL:  65  -0.18237E+01    0.00000E+00   -0.18237E+01    79
  FERMI_SHIFT =   1.998763638850778E-002
Total rVV10 correction in eV:      2.5708456    96.2441939
RMM:   9    -0.119570223412E+03   -0.86717E-04   -0.32243E-05   195   0.309E-02    0.267E-03
SOL:  66  -0.18254E+01    0.00000E+00   -0.18254E+01    77
  FERMI_SHIFT =   1.998763638850937E-002
Total rVV10 correction in eV:      2.5708400    96.2439293
RMM:  10    -0.119570295158E+03   -0.71746E-04   -0.36363E-05   201   0.338E-02    0.181E-03
SOL:  67  -0.18266E+01    0.00000E+00   -0.18266E+01    73
  FERMI_SHIFT =   1.998762869479245E-002
Total rVV10 correction in eV:      2.5708354    96.2436846
RMM:  11    -0.119570341319E+03   -0.46161E-04   -0.28144E-05   195   0.308E-02    0.134E-03
SOL:  68  -0.18272E+01    0.00000E+00   -0.18272E+01    69
  FERMI_SHIFT =   1.998762068513960E-002
Total rVV10 correction in eV:      2.5708312    96.2434521
RMM:  12    -0.119570379434E+03   -0.38116E-04   -0.12876E-05   182   0.208E-02    0.687E-04
SOL:  69  -0.18273E+01    0.00000E+00   -0.18273E+01    68
  FERMI_SHIFT =   1.998762068514037E-002
Total rVV10 correction in eV:      2.5708266    96.2432338
RMM:  13    -0.119570408697E+03   -0.29263E-04   -0.91030E-06   181   0.190E-02    0.419E-04
SOL:  70  -0.18274E+01    0.00000E+00   -0.18274E+01    66
  FERMI_SHIFT =   1.998762068514146E-002
Total rVV10 correction in eV:      2.5708230    96.2430770
RMM:  14    -0.119570427204E+03   -0.18507E-04   -0.66888E-06   178   0.172E-02    0.344E-04
SOL:  71  -0.18274E+01    0.00000E+00   -0.18274E+01    66
  FERMI_SHIFT =   1.999090979174498E-002
Total rVV10 correction in eV:      2.5708186    96.2428906
RMM:  15    -0.119570443741E+03   -0.16537E-04   -0.44869E-06   176   0.146E-02    0.198E-04
SOL:  72  -0.18274E+01    0.00000E+00   -0.18274E+01    60
  FERMI_SHIFT =   1.999091674285006E-002
Total rVV10 correction in eV:      2.5708172    96.2428284
RMM:  16    -0.119570448220E+03   -0.44797E-05   -0.30543E-06   176   0.121E-02
Total rVV10 correction in eV:      2.5708127    96.2426337
SOL:  73  -0.18274E+01    0.00000E+00   -0.18274E+01    58
  FERMI_SHIFT =   1.999091674285061E-002
Total rVV10 correction in eV:      2.5708163    96.2427847
   4 F= -.11957045E+03 E0= -.11957045E+03  d E =-.188844E-02  mag=     0.0000
 trial-energy change:   -0.001888  1 .order   -0.001670   -0.025407    0.022068
 step:   0.4781(harm=  0.4721)  dis= 0.00783  next Energy=  -119.575480 (dE=-0.692E-02)
 bond charge predicted
       N       E                     dE             d eps       ncg     rms          rms(c)
SOL:  74  -0.18252E+01    0.00000E+00   -0.18252E+01    90
  FERMI_SHIFT =   1.999100217660746E-002
Total rVV10 correction in eV:      2.5708664    96.2428009
DAV:   1    -0.119572507982E+03   -0.20642E-02   -0.14031E+00   296   0.531E+00    0.264E-01
SOL:  75  -0.18236E+01    0.00000E+00   -0.18236E+01    85
  FERMI_SHIFT =   1.998806091758988E-002
Total rVV10 correction in eV:      2.5708805    96.2446134
RMM:   2    -0.119575060519E+03   -0.25525E-02   -0.40720E-02   272   0.868E-01    0.139E-01
SOL:  76  -0.18226E+01    0.00000E+00   -0.18226E+01    82
  FERMI_SHIFT =   1.998781720715853E-002
Total rVV10 correction in eV:      2.5708638    96.2445269
RMM:   3    -0.119574911138E+03    0.14938E-03   -0.17685E-03   276   0.132E-01    0.967E-02
SOL:  77  -0.18203E+01    0.00000E+00   -0.18203E+01    84
  FERMI_SHIFT =   1.998781720668405E-002
Total rVV10 correction in eV:      2.5708238    96.2438483
RMM:   4    -0.119575348061E+03   -0.43692E-03   -0.85508E-04   272   0.119E-01    0.270E-02
SOL:  78  -0.18188E+01    0.00000E+00   -0.18188E+01    78
  FERMI_SHIFT =   1.999100219168015E-002
Total rVV10 correction in eV:      2.5708104    96.2437964
RMM:   5    -0.119575374185E+03   -0.26124E-04   -0.80772E-05   222   0.412E-02    0.110E-02
SOL:  79  -0.18175E+01    0.00000E+00   -0.18175E+01    78
  FERMI_SHIFT =   1.999100219170533E-002
Total rVV10 correction in eV:      2.5708082    96.2438047
RMM:   6    -0.119575376663E+03   -0.24785E-05   -0.31473E-05   200   0.221E-02
Total rVV10 correction in eV:      2.5707969    96.2426341
SOL:  80  -0.18162E+01    0.00000E+00   -0.18162E+01    78
  FERMI_SHIFT =   1.999099410202593E-002
Total rVV10 correction in eV:      2.5708097    96.2437689
   5 F= -.11957538E+03 E0= -.11957538E+03  d E =-.681688E-02  mag=     0.0000
 curvature:  -0.32 expect dE=-0.191E-02 dE for cont linesearch -0.214E-06
 trial: gam= 0.20381 g(F)=  0.594E-02 g(S)=  0.000E+00 ort = 0.162E-03 (trialstep = 0.801E+00)
 search vector abs. value=  0.764E-02
 bond charge predicted
       N       E                     dE             d eps       ncg     rms          rms(c)
SOL:  81  -0.18163E+01    0.00000E+00   -0.18163E+01    88
  FERMI_SHIFT =   1.999093935693050E-002
Total rVV10 correction in eV:      2.5708436    96.2437735
DAV:   1    -0.119569404787E+03    0.59694E-02   -0.11976E+00   304   0.516E+00    0.241E-01
SOL:  82  -0.18175E+01    0.00000E+00   -0.18175E+01    84
  FERMI_SHIFT =   1.998789649314200E-002
Total rVV10 correction in eV:      2.5708470    96.2452998
RMM:   2    -0.119574498765E+03   -0.50940E-02   -0.43197E-02   272   0.915E-01    0.151E-01
SOL:  83  -0.18181E+01    0.00000E+00   -0.18181E+01    83
  FERMI_SHIFT =   1.999092021462420E-002
Total rVV10 correction in eV:      2.5708362    96.2451708
RMM:   3    -0.119574321328E+03    0.17744E-03   -0.13022E-03   280   0.131E-01    0.104E-01
SOL:  84  -0.18190E+01    0.00000E+00   -0.18190E+01    86
  FERMI_SHIFT =   1.999089153614236E-002
Total rVV10 correction in eV:      2.5708051    96.2445890
RMM:   4    -0.119574571489E+03   -0.25016E-03   -0.88659E-04   272   0.135E-01    0.226E-02
SOL:  85  -0.18191E+01    0.00000E+00   -0.18191E+01    81
  FERMI_SHIFT =   1.998793248037609E-002
Total rVV10 correction in eV:      2.5707981    96.2446129
RMM:   5    -0.119574581013E+03   -0.95243E-05   -0.58452E-05   236   0.387E-02
Total rVV10 correction in eV:      2.5707810    96.2426333
SOL:  86  -0.18191E+01    0.00000E+00   -0.18191E+01    78
  FERMI_SHIFT =   1.998794153168906E-002
Total rVV10 correction in eV:      2.5707968    96.2445941
   6 F= -.11957458E+03 E0= -.11957458E+03  d E =0.795651E-03  mag=    -0.0000
 trial-energy change:    0.000796  1 .order    0.000582   -0.004789    0.005952
 step:   0.3340(harm=  0.3573)  dis= 0.00256  next Energy=  -119.576359 (dE=-0.983E-03)
 bond charge predicted
       N       E                     dE             d eps       ncg     rms          rms(c)
SOL:  87  -0.18191E+01    0.00000E+00   -0.18191E+01    85
  FERMI_SHIFT =   1.998790081633983E-002
Total rVV10 correction in eV:      2.5707775    96.2445952
DAV:   1    -0.119574308520E+03    0.26297E-03   -0.40616E-01   312   0.301E+00    0.141E-01
SOL:  88  -0.18181E+01    0.00000E+00   -0.18181E+01    82
  FERMI_SHIFT =   1.998788604400609E-002
Total rVV10 correction in eV:      2.5708189    96.2450399
RMM:   2    -0.119576097688E+03   -0.17892E-02   -0.14487E-02   272   0.533E-01    0.867E-02
SOL:  89  -0.18175E+01    0.00000E+00   -0.18175E+01    79
  FERMI_SHIFT =   1.998789299849149E-002
Total rVV10 correction in eV:      2.5708165    96.2446866
RMM:   3    -0.119576124036E+03   -0.26348E-04   -0.42503E-04   272   0.785E-02    0.591E-02
SOL:  90  -0.18165E+01    0.00000E+00   -0.18165E+01    82
  FERMI_SHIFT =   1.998790081888366E-002
Total rVV10 correction in eV:      2.5708012    96.2436401
RMM:   4    -0.119576457141E+03   -0.33311E-03   -0.30929E-04   268   0.835E-02    0.127E-02
SOL:  91  -0.18163E+01    0.00000E+00   -0.18163E+01    75
  FERMI_SHIFT =   1.998789299857565E-002
Total rVV10 correction in eV:      2.5708026    96.2434483
RMM:   5    -0.119576478088E+03   -0.20948E-04   -0.24560E-05   188   0.268E-02    0.543E-03
SOL:  92  -0.18161E+01    0.00000E+00   -0.18161E+01    74
  FERMI_SHIFT =   1.999094731593903E-002
Total rVV10 correction in eV:      2.5708023    96.2432942
RMM:   6    -0.119576493779E+03   -0.15691E-04   -0.13396E-05   182   0.208E-02    0.299E-03
SOL:  93  -0.18159E+01    0.00000E+00   -0.18159E+01    74
  FERMI_SHIFT =   1.999095530235473E-002
Total rVV10 correction in eV:      2.5708000    96.2431187
RMM:   7    -0.119576509122E+03   -0.15342E-04   -0.16008E-05   187   0.250E-02    0.124E-03
SOL:  94  -0.18158E+01    0.00000E+00   -0.18158E+01    70
  FERMI_SHIFT =   1.998785397727521E-002
Total rVV10 correction in eV:      2.5707988    96.2430317
RMM:   8    -0.119576515833E+03   -0.67110E-05   -0.16232E-05   188   0.246E-02
Total rVV10 correction in eV:      2.5707902    96.2426338
SOL:  95  -0.18156E+01    0.00000E+00   -0.18156E+01    71
  FERMI_SHIFT =   1.998783801172208E-002
Total rVV10 correction in eV:      2.5707973    96.2429365
   7 F= -.11957652E+03 E0= -.11957652E+03  d E =-.113917E-02  mag=     0.0000
 curvature:  -0.23 expect dE=-0.790E-03 dE for cont linesearch -0.488E-05
 trial: gam= 0.51660 g(F)=  0.347E-02 g(S)=  0.000E+00 ort = 0.404E-03 (trialstep = 0.708E+00)
 search vector abs. value=  0.592E-02
 bond charge predicted
       N       E                     dE             d eps       ncg     rms          rms(c)
SOL:  96  -0.18154E+01    0.00000E+00   -0.18154E+01    87
  FERMI_SHIFT =   1.998788117972239E-002
Total rVV10 correction in eV:      2.5707995    96.2429454
DAV:   1    -0.119573818561E+03    0.26906E-02   -0.83650E-01   304   0.424E+00    0.187E-01
SOL:  97  -0.18160E+01    0.00000E+00   -0.18160E+01    83
  FERMI_SHIFT =   0.000000000000000E+000
Total rVV10 correction in eV:      2.5708145    96.2441437
RMM:   2    -0.119576784430E+03   -0.29659E-02   -0.27597E-02   272   0.747E-01    0.105E-01
SOL:  98  -0.18164E+01    0.00000E+00   -0.18164E+01    81
  FERMI_SHIFT =   1.999081878440609E-002
Total rVV10 correction in eV:      2.5708076    96.2439832
RMM:   3    -0.119576660641E+03    0.12379E-03   -0.74501E-04   280   0.104E-01    0.718E-02
SOL:  99  -0.18170E+01    0.00000E+00   -0.18170E+01    84
  FERMI_SHIFT =   1.999083008549130E-002
Total rVV10 correction in eV:      2.5707860    96.2433507
RMM:   4    -0.119576946293E+03   -0.28565E-03   -0.45634E-04   272   0.105E-01    0.151E-02
SOL: 100  -0.18172E+01    0.00000E+00   -0.18172E+01    77
  FERMI_SHIFT =   1.999083008552016E-002
Total rVV10 correction in eV:      2.5707818    96.2433470
RMM:   5    -0.119576948250E+03   -0.19578E-05   -0.29615E-05   196   0.309E-02
Total rVV10 correction in eV:      2.5707660    96.2426332
SOL: 101  -0.18173E+01    0.00000E+00   -0.18173E+01    79
  FERMI_SHIFT =   1.999083008553082E-002
Total rVV10 correction in eV:      2.5707801    96.2433854
   8 F= -.11957695E+03 E0= -.11957695E+03  d E =-.432418E-03  mag=     0.0000
 trial-energy change:   -0.000432  1 .order   -0.000555   -0.002603    0.001493
 step:   0.4192(harm=  0.4499)  dis= 0.00240  next Energy=  -119.577261 (dE=-0.745E-03)
 bond charge predicted
       N       E                     dE             d eps       ncg     rms          rms(c)
SOL: 102  -0.18174E+01    0.00000E+00   -0.18174E+01    82
  FERMI_SHIFT =   1.999083925598721E-002
Total rVV10 correction in eV:      2.5707795    96.2433863
DAV:   1    -0.119576705662E+03    0.24063E-03   -0.13856E-01   352   0.173E+00    0.763E-02
SOL: 103  -0.18172E+01    0.00000E+00   -0.18172E+01    79
  FERMI_SHIFT =   1.998797448545678E-002
Total rVV10 correction in eV:      2.5707994    96.2437175
RMM:   2    -0.119577168599E+03   -0.46294E-03   -0.44797E-03   272   0.304E-01    0.419E-02
SOL: 104  -0.18171E+01    0.00000E+00   -0.18171E+01    75
  FERMI_SHIFT =   1.998797448578715E-002
Total rVV10 correction in eV:      2.5707973    96.2435711
RMM:   3    -0.119577185541E+03   -0.16941E-04   -0.11957E-04   257   0.456E-02    0.282E-02
SOL: 105  -0.18170E+01    0.00000E+00   -0.18170E+01    78
  FERMI_SHIFT =   1.998797448585693E-002
Total rVV10 correction in eV:      2.5707860    96.2430969
RMM:   4    -0.119577305124E+03   -0.11958E-03   -0.76873E-05   250   0.479E-02    0.519E-03
SOL: 106  -0.18169E+01    0.00000E+00   -0.18169E+01    71
  FERMI_SHIFT =   1.998797448587056E-002
Total rVV10 correction in eV:      2.5707851    96.2430085
RMM:   5    -0.119577316230E+03   -0.11106E-04   -0.99593E-06   181   0.207E-02    0.314E-03
SOL: 107  -0.18170E+01    0.00000E+00   -0.18170E+01    72
  FERMI_SHIFT =   1.998797448587819E-002
Total rVV10 correction in eV:      2.5707842    96.2429243
RMM:   6    -0.119577325623E+03   -0.93931E-05   -0.77593E-06   178   0.173E-02
Total rVV10 correction in eV:      2.5707770    96.2426334
SOL: 108  -0.18169E+01    0.00000E+00   -0.18169E+01    67
  FERMI_SHIFT =   1.998797448587508E-002
Total rVV10 correction in eV:      2.5707832    96.2428806
   9 F= -.11957733E+03 E0= -.11957733E+03  d E =-.809791E-03  mag=     0.0000
 curvature:  -0.36 expect dE=-0.819E-03 dE for cont linesearch -0.414E-05
 trial: gam= 0.67291 g(F)=  0.229E-02 g(S)=  0.000E+00 ort = 0.262E-03 (trialstep = 0.650E+00)
 search vector abs. value=  0.533E-02
 bond charge predicted
       N       E                     dE             d eps       ncg     rms          rms(c)
SOL: 109  -0.18173E+01    0.00000E+00   -0.18173E+01    87
  FERMI_SHIFT =   1.998799220675909E-002
Total rVV10 correction in eV:      2.5707384    96.2428883
DAV:   1    -0.119575892127E+03    0.14241E-02   -0.61300E-01   304   0.360E+00    0.150E-01
SOL: 110  -0.18172E+01    0.00000E+00   -0.18172E+01    82
  FERMI_SHIFT =   1.999083570949509E-002
Total rVV10 correction in eV:      2.5707787    96.2438734
RMM:   2    -0.119577714458E+03   -0.18223E-02   -0.18676E-02   272   0.629E-01    0.803E-02
SOL: 111  -0.18172E+01    0.00000E+00   -0.18172E+01    79
  FERMI_SHIFT =   1.998797550741083E-002
Total rVV10 correction in eV:      2.5707801    96.2437200
RMM:   3    -0.119577664065E+03    0.50393E-04   -0.45511E-04   276   0.876E-02    0.566E-02
SOL: 112  -0.18172E+01    0.00000E+00   -0.18172E+01    82
  FERMI_SHIFT =   1.999087215911488E-002
Total rVV10 correction in eV:      2.5707707    96.2430032
RMM:   4    -0.119577939715E+03   -0.27565E-03   -0.33047E-04   272   0.944E-02    0.129E-02
SOL: 113  -0.18173E+01    0.00000E+00   -0.18173E+01    74
  FERMI_SHIFT =   1.999089214711636E-002
Total rVV10 correction in eV:      2.5707712    96.2429826
RMM:   5    -0.119577940537E+03   -0.82126E-06   -0.27157E-05   193   0.292E-02
Total rVV10 correction in eV:      2.5707600    96.2426331
SOL: 114  -0.18176E+01    0.00000E+00   -0.18176E+01    75
  FERMI_SHIFT =   1.999091850229268E-002
Total rVV10 correction in eV:      2.5707715    96.2429813
  10 F= -.11957794E+03 E0= -.11957794E+03  d E =-.614913E-03  mag=     0.0000
 trial-energy change:   -0.000615  1 .order   -0.000637   -0.001604    0.000331
 step:   0.5390(harm=  0.5390)  dis= 0.00323  next Energy=  -119.577991 (dE=-0.665E-03)
 bond charge predicted
       N       E                     dE             d eps       ncg     rms          rms(c)
SOL: 115  -0.18175E+01    0.00000E+00   -0.18175E+01    79
  FERMI_SHIFT =   1.999092345310352E-002
Total rVV10 correction in eV:      2.5707792    96.2429814
DAV:   1    -0.119577918135E+03    0.21580E-04   -0.17838E-02   328   0.615E-01    0.256E-02
SOL: 116  -0.18176E+01    0.00000E+00   -0.18176E+01    76
  FERMI_SHIFT =   1.998790828901220E-002
Total rVV10 correction in eV:      2.5707807    96.2430903
RMM:   2    -0.119577960694E+03   -0.42559E-04   -0.53425E-04   272   0.111E-01    0.133E-02
SOL: 117  -0.18177E+01    0.00000E+00   -0.18177E+01    72
  FERMI_SHIFT =   1.998788862538395E-002
Total rVV10 correction in eV:      2.5707784    96.2430490
RMM:   3    -0.119577965164E+03   -0.44705E-05   -0.16165E-05   184   0.233E-02
Total rVV10 correction in eV:      2.5707619    96.2426332
SOL: 118  -0.18179E+01    0.00000E+00   -0.18179E+01    74
  FERMI_SHIFT =   1.999093859369910E-002
Total rVV10 correction in eV:      2.5707717    96.2429047
  11 F= -.11957797E+03 E0= -.11957797E+03  d E =-.639541E-03  mag=     0.0000
 curvature:  -0.58 expect dE=-0.756E-03 dE for cont linesearch -0.287E-06
 trial: gam= 0.64225 g(F)=  0.130E-02 g(S)=  0.000E+00 ort = 0.513E-04 (trialstep = 0.628E+00)
 search vector abs. value=  0.356E-02
 bond charge predicted
       N       E                     dE             d eps       ncg     rms          rms(c)
SOL: 119  -0.18183E+01    0.00000E+00   -0.18183E+01    87
  FERMI_SHIFT =   1.999093968711904E-002
Total rVV10 correction in eV:      2.5707342    96.2429086
DAV:   1    -0.119576885571E+03    0.10751E-02   -0.41937E-01   272   0.296E+00    0.121E-01
SOL: 120  -0.18184E+01    0.00000E+00   -0.18184E+01    80
  FERMI_SHIFT =   1.999089030469689E-002
Total rVV10 correction in eV:      2.5707573    96.2436402
RMM:   2    -0.119578181183E+03   -0.12956E-02   -0.12808E-02   272   0.522E-01    0.592E-02
SOL: 121  -0.18185E+01    0.00000E+00   -0.18185E+01    77
  FERMI_SHIFT =   1.999089030456103E-002
Total rVV10 correction in eV:      2.5707521    96.2435216
RMM:   3    -0.119578147732E+03    0.33451E-04   -0.26742E-04   264   0.722E-02    0.409E-02
SOL: 122  -0.18188E+01    0.00000E+00   -0.18188E+01    80
  FERMI_SHIFT =   1.998794859811451E-002
Total rVV10 correction in eV:      2.5707319    96.2429778
RMM:   4    -0.119578333748E+03   -0.18602E-03   -0.22806E-04   268   0.810E-02    0.759E-03
SOL: 123  -0.18189E+01    0.00000E+00   -0.18189E+01    73
  FERMI_SHIFT =   1.998794296542172E-002
Total rVV10 correction in eV:      2.5707316    96.2429672
RMM:   5    -0.119578334435E+03   -0.68635E-06   -0.47451E-05   204   0.372E-02
Total rVV10 correction in eV:      2.5707199    96.2426331
SOL: 124  -0.18191E+01    0.00000E+00   -0.18191E+01    75
  FERMI_SHIFT =   1.999087457670748E-002
Total rVV10 correction in eV:      2.5707311    96.2429604
  12 F= -.11957833E+03 E0= -.11957833E+03  d E =-.369270E-03  mag=     0.0000
 trial-energy change:   -0.000369  1 .order   -0.000361   -0.000836    0.000115
 step:   0.5523(harm=  0.5523)  dis= 0.00348  next Energy=  -119.578333 (dE=-0.368E-03)
 bond charge predicted
       N       E                     dE             d eps       ncg     rms          rms(c)
SOL: 125  -0.18191E+01    0.00000E+00   -0.18191E+01    77
  FERMI_SHIFT =   1.999087323253834E-002
Total rVV10 correction in eV:      2.5707356    96.2429605
DAV:   1    -0.119578330578E+03    0.31706E-05   -0.60440E-03   336   0.356E-01    0.145E-02
SOL: 126  -0.18191E+01    0.00000E+00   -0.18191E+01    73
  FERMI_SHIFT =   1.998794425998524E-002
Total rVV10 correction in eV:      2.5707360    96.2430006
RMM:   2    -0.119578342787E+03   -0.12210E-04   -0.22650E-04   272   0.781E-02    0.675E-03
SOL: 127  -0.18192E+01    0.00000E+00   -0.18192E+01    69
  FERMI_SHIFT =   1.998794425996503E-002
Total rVV10 correction in eV:      2.5707350    96.2429742
RMM:   3    -0.119578344725E+03   -0.19375E-05   -0.25107E-05   196   0.292E-02
Total rVV10 correction in eV:      2.5707241    96.2426331
SOL: 128  -0.18193E+01    0.00000E+00   -0.18193E+01    71
  FERMI_SHIFT =   1.998796087279736E-002
Total rVV10 correction in eV:      2.5707324    96.2429005
  13 F= -.11957834E+03 E0= -.11957834E+03  d E =-.379561E-03  mag=     0.0000
 curvature:  -0.74 expect dE=-0.507E-03 dE for cont linesearch -0.696E-07
 trial: gam= 0.48325 g(F)=  0.686E-03 g(S)=  0.000E+00 ort = 0.183E-04 (trialstep = 0.613E+00)
 search vector abs. value=  0.154E-02
 bond charge predicted
       N       E                     dE             d eps       ncg     rms          rms(c)
SOL: 129  -0.18197E+01    0.00000E+00   -0.18197E+01    85
  FERMI_SHIFT =   1.998797821576559E-002
Total rVV10 correction in eV:      2.5707033    96.2429018
DAV:   1    -0.119577868230E+03    0.47456E-03   -0.16788E-01   288   0.188E+00    0.752E-02
SOL: 130  -0.18199E+01    0.00000E+00   -0.18199E+01    79
  FERMI_SHIFT =   1.999085078691828E-002
Total rVV10 correction in eV:      2.5707186    96.2432763
RMM:   2    -0.119578464481E+03   -0.59625E-03   -0.54129E-03   272   0.342E-01    0.406E-02
SOL: 131  -0.18200E+01    0.00000E+00   -0.18200E+01    75
  FERMI_SHIFT =   1.999087363708243E-002
Total rVV10 correction in eV:      2.5707166    96.2431921
RMM:   3    -0.119578444390E+03    0.20091E-04   -0.14427E-04   255   0.571E-02    0.282E-02
SOL: 132  -0.18203E+01    0.00000E+00   -0.18203E+01    79
  FERMI_SHIFT =   1.999091933213570E-002
Total rVV10 correction in eV:      2.5707073    96.2428477
RMM:   4    -0.119578530115E+03   -0.85724E-04   -0.17981E-04   254   0.692E-02    0.677E-03
SOL: 133  -0.18204E+01    0.00000E+00   -0.18204E+01    72
  FERMI_SHIFT =   1.999088019951259E-002
Total rVV10 correction in eV:      2.5707083    96.2428442
RMM:   5    -0.119578533418E+03   -0.33029E-05   -0.12483E-04   209   0.553E-02    0.337E-03
SOL: 134  -0.18205E+01    0.00000E+00   -0.18205E+01    72
  FERMI_SHIFT =   1.999085666768302E-002
Total rVV10 correction in eV:      2.5707087    96.2428379
RMM:   6    -0.119578532241E+03    0.11770E-05   -0.67423E-05   204   0.421E-02
Total rVV10 correction in eV:      2.5707030    96.2426332
SOL: 135  -0.18206E+01    0.00000E+00   -0.18206E+01    69
  FERMI_SHIFT =   1.998797233301131E-002
Total rVV10 correction in eV:      2.5707085    96.2428339
  14 F= -.11957853E+03 E0= -.11957853E+03  d E =-.187516E-03  mag=     0.0000
 trial-energy change:   -0.000188  1 .order   -0.000169   -0.000426    0.000088
 step:   0.5077(harm=  0.5077)  dis= 0.00187  next Energy=  -119.578521 (dE=-0.176E-03)
 bond charge predicted
       N       E                     dE             d eps       ncg     rms          rms(c)
SOL: 136  -0.18205E+01    0.00000E+00   -0.18205E+01    76
  FERMI_SHIFT =   1.998796915551837E-002
Total rVV10 correction in eV:      2.5707135    96.2428340
DAV:   1    -0.119578517430E+03    0.15987E-04   -0.49361E-03   336   0.324E-01    0.128E-02
SOL: 137  -0.18206E+01    0.00000E+00   -0.18206E+01    72
  FERMI_SHIFT =   1.999084245174321E-002
Total rVV10 correction in eV:      2.5707142    96.2428756
RMM:   2    -0.119578532591E+03   -0.15160E-04   -0.16101E-04   272   0.614E-02    0.707E-03
SOL: 138  -0.18206E+01    0.00000E+00   -0.18206E+01    67
  FERMI_SHIFT =   1.999084245180571E-002
Total rVV10 correction in eV:      2.5707136    96.2428556
RMM:   3    -0.119578533784E+03   -0.11935E-05   -0.57556E-06   176   0.158E-02
Total rVV10 correction in eV:      2.5707067    96.2426332
SOL: 139  -0.18207E+01    0.00000E+00   -0.18207E+01    71
  FERMI_SHIFT =   1.999084245181365E-002
Total rVV10 correction in eV:      2.5707113    96.2427814
  15 F= -.11957853E+03 E0= -.11957853E+03  d E =-.189059E-03  mag=     0.0000
 curvature:  -0.56 expect dE=-0.384E-03 dE for cont linesearch -0.166E-06
 trial: gam= 0.97215 g(F)=  0.685E-03 g(S)=  0.000E+00 ort = 0.213E-04 (trialstep = 0.417E+00)
 search vector abs. value=  0.218E-02
 bond charge predicted
       N       E                     dE             d eps       ncg     rms          rms(c)
SOL: 140  -0.18210E+01    0.00000E+00   -0.18210E+01    84
  FERMI_SHIFT =   1.998796670303482E-002
Total rVV10 correction in eV:      2.5706926    96.2427831
DAV:   1    -0.119578243611E+03    0.28898E-03   -0.11225E-01   288   0.152E+00    0.641E-02
SOL: 141  -0.18210E+01    0.00000E+00   -0.18210E+01    77
  FERMI_SHIFT =   1.998798198059282E-002
Total rVV10 correction in eV:      2.5707067    96.2430904
RMM:   2    -0.119578612830E+03   -0.36922E-03   -0.35838E-03   272   0.279E-01    0.335E-02
SOL: 142  -0.18210E+01    0.00000E+00   -0.18210E+01    75
  FERMI_SHIFT =   1.998798198117685E-002
Total rVV10 correction in eV:      2.5707061    96.2430199
RMM:   3    -0.119578604872E+03    0.79573E-05   -0.80371E-05   238   0.415E-02
Total rVV10 correction in eV:      2.5706989    96.2426334
SOL: 143  -0.18211E+01    0.00000E+00   -0.18211E+01    79
  FERMI_SHIFT =   1.999071413341946E-002
Total rVV10 correction in eV:      2.5707013    96.2427652
  16 F= -.11957860E+03 E0= -.11957860E+03  d E =-.710883E-04  mag=     0.0000
 trial-energy change:   -0.000071  1 .order   -0.000110   -0.000295    0.000075
 step:   0.3322(harm=  0.3322)  dis= 0.00194  next Energy=  -119.578651 (dE=-0.117E-03)
 bond charge predicted
       N       E                     dE             d eps       ncg     rms          rms(c)
SOL: 144  -0.18210E+01    0.00000E+00   -0.18210E+01    76
  FERMI_SHIFT =   1.999071176175513E-002
Total rVV10 correction in eV:      2.5707052    96.2427653
DAV:   1    -0.119578643316E+03   -0.30486E-04   -0.51187E-03   304   0.331E-01    0.134E-02
SOL: 145  -0.18211E+01    0.00000E+00   -0.18211E+01    73
  FERMI_SHIFT =   1.999072457329520E-002
Total rVV10 correction in eV:      2.5707057    96.2427849
RMM:   2    -0.119578663271E+03   -0.19955E-04   -0.20512E-04   272   0.705E-02    0.733E-03
SOL: 146  -0.18212E+01    0.00000E+00   -0.18212E+01    70
  FERMI_SHIFT =   1.999073057801831E-002
Total rVV10 correction in eV:      2.5707054    96.2427760
RMM:   3    -0.119578662090E+03    0.11811E-05   -0.98956E-06   180   0.203E-02
Total rVV10 correction in eV:      2.5706993    96.2426333
SOL: 147  -0.18212E+01    0.00000E+00   -0.18212E+01    73
  FERMI_SHIFT =   1.998806822380489E-002
Total rVV10 correction in eV:      2.5707038    96.2427377
  17 F= -.11957866E+03 E0= -.11957866E+03  d E =-.128306E-03  mag=     0.0000
 curvature:  -0.51 expect dE=-0.114E-03 dE for cont linesearch -0.389E-06
 trial: gam= 0.29895 g(F)=  0.223E-03 g(S)=  0.000E+00 ort = 0.407E-04 (trialstep = 0.400E+00)
 search vector abs. value=  0.442E-03
 bond charge predicted
       N       E                     dE             d eps       ncg     rms          rms(c)
SOL: 148  -0.18213E+01    0.00000E+00   -0.18213E+01    78
  FERMI_SHIFT =   1.998806777037365E-002
Total rVV10 correction in eV:      2.5707056    96.2427380
DAV:   1    -0.119578650819E+03    0.12453E-04   -0.20215E-02   288   0.657E-01    0.275E-02
SOL: 149  -0.18213E+01    0.00000E+00   -0.18213E+01    72
  FERMI_SHIFT =   1.998807337020916E-002
Total rVV10 correction in eV:      2.5707088    96.2428834
RMM:   2    -0.119578723925E+03   -0.73107E-04   -0.69293E-04   272   0.127E-01    0.151E-02
SOL: 150  -0.18213E+01    0.00000E+00   -0.18213E+01    70
  FERMI_SHIFT =   1.999074190911457E-002
Total rVV10 correction in eV:      2.5707084    96.2428566
RMM:   3    -0.119578718553E+03    0.53727E-05   -0.25124E-05   195   0.280E-02
Total rVV10 correction in eV:      2.5707007    96.2426334
SOL: 151  -0.18213E+01    0.00000E+00   -0.18213E+01    74
  FERMI_SHIFT =   1.998783776304078E-002
Total rVV10 correction in eV:      2.5707044    96.2427093
  18 F= -.11957872E+03 E0= -.11957872E+03  d E =-.564625E-04  mag=     0.0000
 trial-energy change:   -0.000056  1 .order   -0.000065   -0.000094   -0.000037
 step:   0.6559(harm=  0.6559)  dis= 0.00116  next Energy=  -119.578739 (dE=-0.770E-04)
 bond charge predicted
       N       E                     dE             d eps       ncg     rms          rms(c)
SOL: 152  -0.18214E+01    0.00000E+00   -0.18214E+01    76
  FERMI_SHIFT =   1.998783584924942E-002
Total rVV10 correction in eV:      2.5707055    96.2427095
DAV:   1    -0.119578725361E+03   -0.14356E-05   -0.80388E-03   284   0.414E-01    0.179E-02
SOL: 153  -0.18214E+01    0.00000E+00   -0.18214E+01    70
  FERMI_SHIFT =   1.998789506699816E-002
Total rVV10 correction in eV:      2.5707075    96.2428089
RMM:   2    -0.119578749406E+03   -0.24045E-04   -0.30944E-04   272   0.902E-02    0.950E-03
SOL: 154  -0.18214E+01    0.00000E+00   -0.18214E+01    69
  FERMI_SHIFT =   1.998789506716769E-002
Total rVV10 correction in eV:      2.5707070    96.2427904
RMM:   3    -0.119578748886E+03    0.51997E-06   -0.30988E-05   198   0.313E-02
Total rVV10 correction in eV:      2.5707008    96.2426335
SOL: 155  -0.18214E+01    0.00000E+00   -0.18214E+01    72
  FERMI_SHIFT =   1.998789506719947E-002
Total rVV10 correction in eV:      2.5707046    96.2427159
  19 F= -.11957875E+03 E0= -.11957875E+03  d E =-.867956E-04  mag=     0.0000
 curvature:  -0.62 expect dE=-0.120E-03 dE for cont linesearch -0.380E-06
 trial: gam= 0.84083 g(F)=  0.194E-03 g(S)=  0.000E+00 ort = 0.165E-04 (trialstep = 0.373E+00)
 search vector abs. value=  0.534E-03
 bond charge predicted
       N       E                     dE             d eps       ncg     rms          rms(c)
SOL: 156  -0.18214E+01    0.00000E+00   -0.18214E+01    79
  FERMI_SHIFT =   1.999091794038926E-002
Total rVV10 correction in eV:      2.5707075    96.2427163
DAV:   1    -0.119578731335E+03    0.18070E-04   -0.21281E-02   288   0.661E-01    0.294E-02
SOL: 157  -0.18214E+01    0.00000E+00   -0.18214E+01    74
  FERMI_SHIFT =   1.999089334605625E-002
Total rVV10 correction in eV:      2.5707093    96.2428844
RMM:   2    -0.119578801573E+03   -0.70237E-04   -0.78461E-04   272   0.136E-01    0.168E-02
SOL: 158  -0.18214E+01    0.00000E+00   -0.18214E+01    71
  FERMI_SHIFT =   1.998792535809052E-002
Total rVV10 correction in eV:      2.5707081    96.2428613
RMM:   3    -0.119578796398E+03    0.51744E-05   -0.52714E-05   205   0.392E-02
Total rVV10 correction in eV:      2.5706974    96.2426336
SOL: 159  -0.18214E+01    0.00000E+00   -0.18214E+01    75
  FERMI_SHIFT =   1.998789503722861E-002
Total rVV10 correction in eV:      2.5707028    96.2427305
  20 F= -.11957880E+03 E0= -.11957880E+03  d E =-.475126E-04  mag=     0.0000
 trial-energy change:   -0.000048  1 .order   -0.000056   -0.000078   -0.000035
 step:   0.6773(harm=  0.6773)  dis= 0.00131  next Energy=  -119.578819 (dE=-0.705E-04)
 reached required accuracy - stopping structural energy minimisation
 writing wavefunctions
SOL: 160  -0.18214E+01    0.00000E+00   -0.18214E+01     0
  FERMI_SHIFT =   1.998789503722861E-002
TACC:  Shutdown complete. Exiting. 
Job finished on c501-052.stampede2.tacc.utexas.edu at Fri May 21 08:39:08 CDT 2021
/tmp/slurmd/job7740867/slurm_script: line 17: /home1/07906/yc116: Is a directory
