 vasp.5.4.4.18Apr17-6-g9f103f2a35 (build May 01 2020 14:57:12) complex          
  
 executed on             LinuxIFC date 2021.05.21  02:20:30
 running on   48 total cores
 distrk:  each k-point on   48 cores,    1 groups
 distr:  one band on NCORES_PER_BAND=  12 cores,    4 groups


--------------------------------------------------------------------------------------------------------


 INCAR:
 POTCAR:    PAW_PBE C 08Apr2002                   
 POTCAR:    PAW_PBE F 08Apr2002                   
 POTCAR:    PAW_PBE O 08Apr2002                   

 ----------------------------------------------------------------------------- 
|                                                                             |
|  ADVICE TO THIS USER RUNNING 'VASP/VAMP'   (HEAR YOUR MASTER'S VOICE ...):  |
|                                                                             |
|      You have switched on vdW-DFT.                                          |
|      This routine was written and supplied by Jiri Klimes.                  |
|      We recommed that you carefully read and cite the following             |
|      publication                                                            |
|      J. Klimes, D.R. Bowler, A. Michelides                                  |
|        J. Phys.: Cond Matt. 22 022201 (2010)                                |
|      J. Klimes, D.R. Bowler, A. Michelides                                  |
|        Phys. Rev. B. 83, 195131 (2011)                                      |
|      and references therein.                                                |
|                                                                             |
 ----------------------------------------------------------------------------- 

 POTCAR:    PAW_PBE C 08Apr2002                   
   VRHFIN =C: s2p2                                                              
   LEXCH  = PE                                                                  
   EATOM  =   147.1560 eV,   10.8157 Ry                                         
                                                                                
   TITEL  = PAW_PBE C 08Apr2002                                                 
   LULTRA =        F    use ultrasoft PP ?                                      
   IUNSCR =        1    unscreen: 0-lin 1-nonlin 2-no                           
   RPACOR =    1.200    partial core radius                                     
   POMASS =   12.011; ZVAL   =    4.000    mass and valenz                      
   RCORE  =    1.500    outmost cutoff radius                                   
   RWIGS  =    1.630; RWIGS  =    0.863    wigner-seitz radius (au A)           
   ENMAX  =  400.000; ENMIN  =  300.000 eV                                      
   ICORE  =        2    local potential                                         
   LCOR   =        T    correct aug charges                                     
   LPAW   =        T    paw PP                                                  
   EAUG   =  644.873                                                            
   DEXC   =    0.000                                                            
   RMAX   =    1.529    core radius for proj-oper                               
   RAUG   =    1.300    factor for augmentation sphere                          
   RDEP   =    1.501    radius for radial grids                                 
   RDEPT  =    1.300    core radius for aug-charge                              
                                                                                
   Atomic configuration                                                         
    4 entries                                                                   
     n  l   j            E        occ.                                          
     1  0  0.50      -273.3789   2.0000                                         
     2  0  0.50       -13.7508   2.0000                                         
     2  1  0.50        -5.2854   2.0000                                         
     3  2  1.50        -5.4423   0.0000                                         
   Description                                                                  
     l       E           TYP  RCUT    TYP  RCUT                                 
     0    -13.7508458     23  1.200                                             
     0     -8.2022199     23  1.200                                             
     1     -5.2854383     23  1.500                                             
     1     34.0145650     23  1.500                                             
     2     -5.4423304      7  1.500                                             
  local pseudopotential read in
  partial core-charges read in
  partial kinetic energy density read in
  atomic valenz-charges read in
  non local Contribution for L=           0  read in
    real space projection operators read in
  non local Contribution for L=           0  read in
    real space projection operators read in
  non local Contribution for L=           1  read in
    real space projection operators read in
  non local Contribution for L=           1  read in
    real space projection operators read in
    PAW grid and wavefunctions read in
 
   number of l-projection  operators is LMAX  =           4
   number of lm-projection operators is LMMAX =           8
 
 POTCAR:    PAW_PBE F 08Apr2002                   
   VRHFIN =F: s2p5                                                              
   LEXCH  = PE                                                                  
   EATOM  =   659.6475 eV,   48.4827 Ry                                         
                                                                                
   TITEL  = PAW_PBE F 08Apr2002                                                 
   LULTRA =        F    use ultrasoft PP ?                                      
   IUNSCR =        1    unscreen: 0-lin 1-nonlin 2-no                           
   RPACOR =    1.200    partial core radius                                     
   POMASS =   18.998; ZVAL   =    7.000    mass and valenz                      
   RCORE  =    1.520    outmost cutoff radius                                   
   RWIGS  =    1.500; RWIGS  =    0.794    wigner-seitz radius (au A)           
   ENMAX  =  400.000; ENMIN  =  300.000 eV                                      
   ICORE  =        2    local potential                                         
   LCOR   =        T    correct aug charges                                     
   LPAW   =        T    paw PP                                                  
   EAUG   =  613.614                                                            
   RMAX   =    1.555    core radius for proj-oper                               
   RAUG   =    1.300    factor for augmentation sphere                          
   RDEP   =    1.539    radius for radial grids                                 
   RDEPT  =    1.299    core radius for aug-charge                              
                                                                                
   Atomic configuration                                                         
    4 entries                                                                   
     n  l   j            E        occ.                                          
     1  0  0.50      -663.3661   2.0000                                         
     2  0  0.50       -29.8995   2.0000                                         
     2  1  0.50       -11.1114   5.0000                                         
     3  2  1.50       -10.8847   0.0000                                         
   Description                                                                  
     l       E           TYP  RCUT    TYP  RCUT                                 
     0    -29.8995018     23  1.200                                             
     0     -9.5240782     23  1.200                                             
     1    -11.1113914     23  1.520                                             
     1      1.3605826     23  1.520                                             
     2    -10.8846608      7  1.500                                             
  local pseudopotential read in
  partial core-charges read in
  partial kinetic energy density read in
  atomic valenz-charges read in
  non local Contribution for L=           0  read in
    real space projection operators read in
  non local Contribution for L=           0  read in
    real space projection operators read in
  non local Contribution for L=           1  read in
    real space projection operators read in
  non local Contribution for L=           1  read in
    real space projection operators read in
    PAW grid and wavefunctions read in
 
   number of l-projection  operators is LMAX  =           4
   number of lm-projection operators is LMMAX =           8
 
 POTCAR:    PAW_PBE O 08Apr2002                   
   VRHFIN =O: s2p4                                                              
   LEXCH  = PE                                                                  
   EATOM  =   432.3788 eV,   31.7789 Ry                                         
                                                                                
   TITEL  = PAW_PBE O 08Apr2002                                                 
   LULTRA =        F    use ultrasoft PP ?                                      
   IUNSCR =        1    unscreen: 0-lin 1-nonlin 2-no                           
   RPACOR =    1.200    partial core radius                                     
   POMASS =   16.000; ZVAL   =    6.000    mass and valenz                      
   RCORE  =    1.520    outmost cutoff radius                                   
   RWIGS  =    1.550; RWIGS  =    0.820    wigner-seitz radius (au A)           
   ENMAX  =  400.000; ENMIN  =  300.000 eV                                      
   ICORE  =        2    local potential                                         
   LCOR   =        T    correct aug charges                                     
   LPAW   =        T    paw PP                                                  
   EAUG   =  605.392                                                            
   DEXC   =    0.000                                                            
   RMAX   =    1.553    core radius for proj-oper                               
   RAUG   =    1.300    factor for augmentation sphere                          
   RDEP   =    1.550    radius for radial grids                                 
   RDEPT  =    1.329    core radius for aug-charge                              
                                                                                
   Atomic configuration                                                         
    4 entries                                                                   
     n  l   j            E        occ.                                          
     1  0  0.50      -514.6923   2.0000                                         
     2  0  0.50       -23.9615   2.0000                                         
     2  1  0.50        -9.0305   4.0000                                         
     3  2  1.50        -9.5241   0.0000                                         
   Description                                                                  
     l       E           TYP  RCUT    TYP  RCUT                                 
     0    -23.9615318     23  1.200                                             
     0     -9.5240782     23  1.200                                             
     1     -9.0304911     23  1.520                                             
     1      8.1634956     23  1.520                                             
     2     -9.5240782      7  1.500                                             
  local pseudopotential read in
  partial core-charges read in
  partial kinetic energy density read in
  kinetic energy density of atom read in
  atomic valenz-charges read in
  non local Contribution for L=           0  read in
    real space projection operators read in
  non local Contribution for L=           0  read in
    real space projection operators read in
  non local Contribution for L=           1  read in
    real space projection operators read in
  non local Contribution for L=           1  read in
    real space projection operators read in
    PAW grid and wavefunctions read in
 
   number of l-projection  operators is LMAX  =           4
   number of lm-projection operators is LMMAX =           8
 
 Optimization of the real space projectors (new method)

 maximal supplied QI-value         = 25.13
 optimisation between [QCUT,QGAM] = [ 11.81, 23.88] = [ 39.08,159.64] Ry 
 Optimized for a Real-space Cutoff    1.18 Angstroem

   l    n(q)    QCUT    max X(q) W(low)/X(q) W(high)/X(q)  e(spline) 
   0      8    11.813   115.676    0.10E-03    0.16E-03    0.35E-06
   0      8    11.813    87.132    0.10E-03    0.16E-03    0.35E-06
   1      8    11.813     4.429    0.16E-03    0.13E-04    0.22E-06
   1      8    11.813     2.733    0.13E-03    0.10E-04    0.18E-06
 Optimization of the real space projectors (new method)

 maximal supplied QI-value         = 24.76
 optimisation between [QCUT,QGAM] = [ 11.88, 24.01] = [ 39.54,161.47] Ry 
 Optimized for a Real-space Cutoff    1.18 Angstroem

   l    n(q)    QCUT    max X(q) W(low)/X(q) W(high)/X(q)  e(spline) 
   0      8    11.883    14.049    0.56E-04    0.86E-04    0.22E-06
   0      8    11.883     8.945    0.81E-04    0.11E-03    0.30E-06
   1      8    11.883     7.086    0.16E-03    0.15E-04    0.31E-06
   1      8    11.883     6.747    0.15E-03    0.14E-04    0.28E-06
 Optimization of the real space projectors (new method)

 maximal supplied QI-value         = 24.76
 optimisation between [QCUT,QGAM] = [ 11.88, 24.01] = [ 39.54,161.47] Ry 
 Optimized for a Real-space Cutoff    1.18 Angstroem

   l    n(q)    QCUT    max X(q) W(low)/X(q) W(high)/X(q)  e(spline) 
   0      8    11.883    20.381    0.86E-04    0.11E-03    0.31E-06
   0      8    11.883    15.268    0.94E-04    0.12E-03    0.33E-06
   1      8    11.883     5.964    0.19E-03    0.18E-04    0.33E-06
   1      8    11.883     5.382    0.17E-03    0.20E-04    0.29E-06
  PAW_PBE C 08Apr2002                   :
 energy of atom  1       EATOM= -147.1560
 kinetic energy error for atom=    0.0066 (will be added to EATOM!!)
  PAW_PBE F 08Apr2002                   :
 energy of atom  2       EATOM= -659.6475
 kinetic energy error for atom=    0.0296 (will be added to EATOM!!)
  PAW_PBE O 08Apr2002                   :
 energy of atom  3       EATOM= -432.3788
 kinetic energy error for atom=    0.0194 (will be added to EATOM!!)
 
 
 POSCAR: C F O                                   
  positions in direct lattice
  velocities in cartesian coordinates

 METAGGA = SCAN     LMAXTAU =  6    LMIXTAU =  F

 exchange correlation table for  LEXCH =        8
   RHO(1)=    0.500       N(1)  =     2000
   RHO(2)=  100.500       N(2)  =     4000
 


--------------------------------------------------------------------------------------------------------


 ion  position               nearest neighbor table
   1  0.519  0.588  0.506-   6 1.34   7 1.34  14 1.35   2 1.55
   2  0.484  0.539  0.509-   8 1.36   9 1.36   1 1.55   3 1.55
   3  0.521  0.491  0.509-  10 1.36  11 1.36   4 1.54   2 1.55
   4  0.488  0.443  0.495-  13 1.38  12 1.38   3 1.54   5 1.57
   5  0.522  0.394  0.514-  16 1.24  15 1.24   4 1.57
   6  0.542  0.595  0.454-   1 1.34
   7  0.561  0.589  0.546-   1 1.34
   8  0.452  0.541  0.559-   2 1.36
   9  0.447  0.540  0.463-   2 1.36
  10  0.564  0.499  0.470-   3 1.36
  11  0.545  0.487  0.563-   3 1.36
  12  0.434  0.447  0.520-   4 1.38
  13  0.478  0.442  0.436-   4 1.38
  14  0.483  0.627  0.517-   1 1.35
  15  0.569  0.391  0.489-   5 1.24
  16  0.496  0.368  0.549-   5 1.24
 
  LATTYP: Found a simple orthorhombic cell.
 ALAT       =    22.9912726200
 B/A-ratio  =     1.0023397935
 C/A-ratio  =     1.1689707557
  
  Lattice vectors:
  
 A1 = (   0.0000000000,   0.0000000000,  22.9912726200)
 A2 = ( -23.0450674500,   0.0000000000,   0.0000000000)
 A3 = (   0.0000000000, -26.8761253300,   0.0000000000)


Analysis of symmetry for initial positions (statically):
=====================================================================
 Subroutine PRICEL returns:
 Original cell was already a primitive cell.
 

 Routine SETGRP: Setting up the symmetry group for a 
 simple orthorhombic supercell.


 Subroutine GETGRP returns: Found  1 space group operations
 (whereof  1 operations were pure point group operations)
 out of a pool of  8 trial point group operations.


The static configuration has the point symmetry C_1 .


Analysis of symmetry for dynamics (positions and initial velocities):
=====================================================================
 Subroutine PRICEL returns:
 Original cell was already a primitive cell.
 

 Routine SETGRP: Setting up the symmetry group for a 
 simple orthorhombic supercell.


 Subroutine GETGRP returns: Found  1 space group operations
 (whereof  1 operations were pure point group operations)
 out of a pool of  8 trial point group operations.


The dynamic configuration has the point symmetry C_1 .


Analysis of constrained symmetry for selective dynamics:
=====================================================================
 Subroutine PRICEL returns:
 Original cell was already a primitive cell.
 

 Routine SETGRP: Setting up the symmetry group for a 
 simple orthorhombic supercell.


 Subroutine GETGRP returns: Found  1 space group operations
 (whereof  1 operations were pure point group operations)
 out of a pool of  8 trial point group operations.


The constrained configuration has the point symmetry C_1 .


Analysis of structural, dynamic, and magnetic symmetry:
=====================================================================
 Subroutine PRICEL returns:
 Original cell was already a primitive cell.
 

 Routine SETGRP: Setting up the symmetry group for a 
 simple orthorhombic supercell.


 Subroutine GETGRP returns: Found  1 space group operations
 (whereof  1 operations were pure point group operations)
 out of a pool of  8 trial point group operations.


The magnetic configuration has the point symmetry C_1 .


 Subroutine INISYM returns: Found  1 space group operations
 (whereof  1 operations are pure point group operations),
 and found     1 'primitive' translations

 
 
 KPOINTS: K-Point Grid                            

Automatic generation of k-mesh.
Space group operators:
 irot       det(A)        alpha          n_x          n_y          n_z        tau_x        tau_y        tau_z
    1     1.000000     0.000001     1.000000     0.000000     0.000000     0.000000     0.000000     0.000000
 
 Subroutine IBZKPT returns following result:
 ===========================================
 
 Found      1 irreducible k-points:
 
 Following reciprocal coordinates:
            Coordinates               Weight
  0.000000  0.000000  0.000000      1.000000
 
 Following cartesian coordinates:
            Coordinates               Weight
  0.000000  0.000000  0.000000      1.000000
 


--------------------------------------------------------------------------------------------------------




 Dimension of arrays:
   k-points           NKPTS =      1   k-points in BZ     NKDIM =      1   number of bands    NBANDS=     68
   number of dos      NEDOS =   1200   number of ions     NIONS =     16
   non local maximal  LDIM  =      4   non local SUM 2l+1 LMDIM =      8
   total plane-waves  NPLWV = ******
   max r-space proj   IRMAX =   3316   max aug-charges    IRDMAX=   6398
   dimension x,y,z NGX =   180 NGY =  210 NGZ =  180
   dimension x,y,z NGXF=   360 NGYF=  420 NGZF=  360
   support grid    NGXF=   360 NGYF=  420 NGZF=  360
   ions per type =               5   9   2
   NGX,Y,Z   is equivalent  to a cutoff of  12.99, 12.99, 13.02 a.u.
   NGXF,Y,Z  is equivalent  to a cutoff of  25.97, 25.98, 26.03 a.u.

 SYSTEM =  SiC                                     
 POSCAR =  C F O                                   

 Startparameter for this run:
   NWRITE =      2    write-flag & timer
   PREC   = accura    normal or accurate (medium, high low for compatibility)
   ISTART =      1    job   : 0-new  1-cont  2-samecut
   ICHARG =      0    charge: 1-file 2-atom 10-const
   ISPIN  =      2    spin polarized calculation?
   LNONCOLLINEAR =      F non collinear calculations
   LSORBIT =      F    spin-orbit coupling
   INIWAV =      1    electr: 0-lowe 1-rand  2-diag
   LASPH  =      T    aspherical Exc in radial PAW
   METAGGA=      F    non-selfconsistent MetaGGA calc.

 Electronic Relaxation 1
   ENCUT  =  550.0 eV  40.42 Ry    6.36 a.u.  44.07 51.39 43.96*2*pi/ulx,y,z
   ENINI  =  550.0     initial cutoff
   ENAUG  =  644.9 eV  augmentation charge cutoff
   NELM   =    100;   NELMIN=  2; NELMDL=  0     # of ELM steps 
   EDIFF  = 0.1E-04   stopping-criterion for ELM
   LREAL  =      T    real-space projection
   NLSPLINE    = F    spline interpolate recip. space projectors
   LCOMPAT=      F    compatible to vasp.4.4
   GGA_COMPAT  = T    GGA compatible to vasp.4.4-vasp.4.6
   LMAXPAW     = -100 max onsite density
   LMAXMIX     =    2 max onsite mixed and CHGCAR
   VOSKOWN=      0    Vosko Wilk Nusair interpolation
   ROPT   =   -0.00025  -0.00025  -0.00025
 Ionic relaxation
   EDIFFG = -.2E-01   stopping-criterion for IOM
   NSW    =    500    number of steps for IOM
   NBLOCK =      1;   KBLOCK =    500    inner block; outer block 
   IBRION =      2    ionic relax: 0-MD 1-quasi-New 2-CG
   NFREE  =      1    steps in history (QN), initial steepest desc. (CG)
   ISIF   =      2    stress and relaxation
   IWAVPR =     11    prediction:  0-non 1-charg 2-wave 3-comb
   ISYM   =      2    0-nonsym 1-usesym 2-fastsym
   LCORR  =      T    Harris-Foulkes like correction to forces

   POTIM  = 0.5000    time-step for ionic-motion
   TEIN   =    0.0    initial temperature
   TEBEG  =    0.0;   TEEND  =   0.0 temperature during run
   SMASS  =  -3.00    Nose mass-parameter (am)
   estimated Nose-frequenzy (Omega)   =  0.10E-29 period in steps =****** mass=  -0.121E-25a.u.
   SCALEE = 1.0000    scale energy and forces
   NPACO  =    256;   APACO  = 16.0  distance and # of slots for P.C.
   PSTRESS=    0.0 pullay stress

  Mass of Ions in am
   POMASS =  12.01 19.00 16.00
  Ionic Valenz
   ZVAL   =   4.00  7.00  6.00
  Atomic Wigner-Seitz radii
   RWIGS  =  -1.00 -1.00 -1.00
  virtual crystal weights 
   VCA    =   1.00  1.00  1.00
   NELECT =      96.0000    total number of electrons
   NUPDOWN=      -1.0000    fix difference up-down

 DOS related values:
   EMIN   =  10.00;   EMAX   =-10.00  energy-range for DOS
   EFERMI =   0.00
   ISMEAR =     0;   SIGMA  =   0.05  broadening in eV -4-tet -1-fermi 0-gaus

 Electronic relaxation 2 (details)
   IALGO  =     68    algorithm
   LDIAG  =      T    sub-space diagonalisation (order eigenvalues)
   LSUBROT=      F    optimize rotation matrix (better conditioning)
   TURBO    =      0    0=normal 1=particle mesh
   IRESTART =      0    0=no restart 2=restart with 2 vectors
   NREBOOT  =      0    no. of reboots
   NMIN     =      0    reboot dimension
   EREF     =   0.00    reference energy to select bands
   IMIX   =      4    mixing-type and parameters
     AMIX     =   0.40;   BMIX     =  1.00
     AMIX_MAG =   1.60;   BMIX_MAG =  1.00
     AMIN     =   0.10
     WC   =   100.;   INIMIX=   1;  MIXPRE=   1;  MAXMIX= -45

 Intra band minimization:
   WEIMIN = 0.0010     energy-eigenvalue tresh-hold
   EBREAK =  0.37E-07  absolut break condition
   DEPER  =   0.30     relativ break condition  

   TIME   =   0.40     timestep for ELM

  volume/ion in A,a.u.               =     890.00      6005.98
  Fermi-wavevector in a.u.,A,eV,Ry     =   0.309264  0.584424  1.301319  0.095644
  Thomas-Fermi vector in A             =   1.185819
 
 Write flags
   LWAVE        =      T    write WAVECAR
   LDOWNSAMPLE  =      F    k-point downsampling of WAVECAR
   LCHARG       =      F    write CHGCAR
   LVTOT        =      F    write LOCPOT, total local potential
   LVHAR        =      T    write LOCPOT, Hartree potential only
   LELF         =      F    write electronic localiz. function (ELF)
   LORBIT       =     11    0 simple, 1 ext, 2 COOP (PROOUT), +10 PAW based schemes


 Dipole corrections
   LMONO  =      F    monopole corrections only (constant potential shift)
   LDIPOL =      F    correct potential (dipole corrections)
   IDIPOL =      0    1-x, 2-y, 3-z, 4-all directions 
   EPSILON=  1.0000000 bulk dielectric constant

 Exchange correlation treatment:
   GGA     =    --    GGA type
   LEXCH   =     8    internal setting for exchange type
   VOSKOWN=      0    Vosko Wilk Nusair interpolation
   LHFCALC =     F    Hartree Fock is set to
   LHFONE  =     F    Hartree Fock one center treatment
   AEXX    =    0.0000 exact exchange contribution

 vdW DFT:
   LUSE_VDW   =     T    switch on vdW DFT
   Zab_VDW    =-.8491    correlation parameter
   PARAM1     =0.1234
   PARAM2     =1.0000
   PARAM3     =0.0000
   -- rVV10 --
   BPARAM     =15.7000
   CPARAM     = 0.0093

 Linear response parameters
   LEPSILON=     F    determine dielectric tensor
   LRPA    =     F    only Hartree local field effects (RPA)
   LNABLA  =     F    use nabla operator in PAW spheres
   LVEL    =     F    velocity operator in full k-point grid
   LINTERFAST=   F  fast interpolation
   KINTER  =     0    interpolate to denser k-point grid
   CSHIFT  =0.1000    complex shift for real part using Kramers Kronig
   OMEGAMAX=  -1.0    maximum frequency
   DEG_THRESHOLD= 0.2000000E-02 threshold for treating states as degnerate
   RTIME   =   -0.100 relaxation time in fs
  (WPLASMAI=    0.000 imaginary part of plasma frequency in eV, 0.658/RTIME)
   DFIELD  = 0.0000000 0.0000000 0.0000000 field for delta impulse in time
 
 Orbital magnetization related:
   ORBITALMAG=     F  switch on orbital magnetization
   LCHIMAG   =     F  perturbation theory with respect to B field
   DQ        =  0.001000  dq finite difference perturbation B field
   LLRAUG    =     F  two centre corrections for induced B field

 Solvation model:
   LSOL    =     T         switch on solvation model
   EB_K    = 78.400000     relative permittivity of the bulk solvent
   SIGMA_K =  0.600000     width of the dielectric cavity
   NC_K    =  0.002500     cutoff charge density
   TAU     =  0.000000     cavity surface tension
   LAMBDA_D_K    =  3.040000     Debye length in Angstroms
   LRHOB     =     F     write boundcharge  density
   LRHOION     =     F     write ioniccharge density



--------------------------------------------------------------------------------------------------------


 conjugate gradient relaxation of ions
   using selective dynamics as specified on POSCAR
 charge density and potential will be updated during run
 spin polarized calculation
 RMM-DIIS sequential band-by-band and
  variant of blocked Davidson during initial phase
 perform sub-space diagonalisation
    before iterative eigenvector-optimisation
 modified Broyden-mixing scheme, WC =      100.0
 initial mixing is a Kerker type mixing with AMIX =  0.4000 and BMIX =      1.0000
 Hartree-type preconditioning will be used
 using additional bands           20
 real space projection scheme for non local part
 use partial core corrections
 calculate Harris-corrections to forces 
   (improved forces if not selfconsistent)
 use gradient corrections 
 use of overlap-Matrix (Vanderbilt PP)
 Gauss-broadening in eV      SIGMA  =   0.05


--------------------------------------------------------------------------------------------------------


  energy-cutoff  :      550.00
  volume of cell :    14239.92
      direct lattice vectors                 reciprocal lattice vectors
    23.045067450  0.000000000  0.000000000     0.043393234  0.000000000  0.000000000
     0.000000000 26.876125330  0.000000000     0.000000000  0.037207744  0.000000000
     0.000000000  0.000000000 22.991272620     0.000000000  0.000000000  0.043494765

  length of vectors
    23.045067450 26.876125330 22.991272620     0.043393234  0.037207744  0.043494765


 
 old parameters found on file WAVECAR:
  energy-cutoff  :      550.00
  volume of cell :    14239.92
      direct lattice vectors                 reciprocal lattice vectors
    23.045067450  0.000000000  0.000000000     0.043393234  0.000000000  0.000000000
     0.000000000 26.876125330  0.000000000     0.000000000  0.037207744  0.000000000
     0.000000000  0.000000000 22.991272620     0.000000000  0.000000000  0.043494765

  length of vectors

 
 k-points in units of 2pi/SCALE and weight: K-Point Grid                            
   0.00000000  0.00000000  0.00000000       1.000
 
 k-points in reciprocal lattice and weights: K-Point Grid                            
   0.00000000  0.00000000  0.00000000       1.000
 
 position of ions in fractional coordinates (direct lattice) 
   0.51863069  0.58809227  0.50638035
   0.48362145  0.53906390  0.50921290
   0.52092111  0.49104557  0.50857685
   0.48795019  0.44265101  0.49451175
   0.52151603  0.39432360  0.51361668
   0.54222658  0.59549386  0.45384631
   0.56093774  0.58900135  0.54644809
   0.45165268  0.54132905  0.55863007
   0.44697907  0.53989300  0.46294939
   0.56431824  0.49910391  0.46969090
   0.54491384  0.48718580  0.56255631
   0.43438126  0.44748643  0.52041721
   0.47770971  0.44243506  0.43554708
   0.48276649  0.62678612  0.51707298
   0.56948209  0.39127952  0.48903409
   0.49565183  0.36767935  0.54908111
 
 position of ions in cartesian coordinates  (Angst):
  11.95187923 15.80564163 11.64232857
  11.14508883 14.48794900 11.70745268
  12.00466221 13.19740217 11.69282908
  11.24484500 11.89674408 11.36945440
  12.01837202 10.59789039 11.80870107
  12.49564804 16.00456764 10.43450423
  12.92684797 15.83007405 12.56353691
  10.40836638 14.54882733 12.84361628
  10.30066273 14.51023205 10.64379561
  13.00475195 13.41397914 10.79879154
  12.55757630 13.09366664 12.93388542
  10.01034539 12.02670149 11.96505388
  11.00885245 11.89094006 10.01378171
  11.12538633 16.84558222 11.88816589
  13.12375327 10.51607753 11.24351610
  11.42232985  9.88179623 12.62407352
 


--------------------------------------------------------------------------------------------------------


 k-point  1 :   0.0000 0.0000 0.0000  plane waves:  417009

 maximum and minimum number of plane-waves per node :     34756    34743

 maximum number of plane-waves:    417009
 maximum index in each direction: 
   IXMAX=   44   IYMAX=   51   IZMAX=   43
   IXMIN=  -44   IYMIN=  -51   IZMIN=  -43


 real space projection operators:
  total allocation   :       3169.12 KBytes
  max/ min on nodes  :        271.50        256.81


 parallel 3D FFT for wavefunctions:
    minimum data exchange during FFTs selected (reduces bandwidth)
 parallel 3D FFT for charge:
    minimum data exchange during FFTs selected (reduces bandwidth)


 total amount of memory used by VASP MPI-rank0   315138. kBytes
=======================================================================

   base      :      30000. kBytes
   nonlr-proj:       1216. kBytes
   fftplans  :      56857. kBytes
   grid      :     208138. kBytes
   one-center:         12. kBytes
   wavefun   :      18915. kBytes
 
     INWAV:  cpu time    2.8762: real time    3.0621
 Broyden mixing: mesh for mixing (old mesh)
   NGX = 89   NGY =103   NGZ = 87
  (NGX  =360   NGY  =420   NGZ  =360)
  gives a total of 797529 points

 charge density for first step will be calculated from the start-wavefunctions


--------------------------------------------------------------------------------------------------------


 Maximum index for non-local projection operator          299
 Maximum index for augmentation-charges          361 (set IRDMAX)


--------------------------------------------------------------------------------------------------------


 initial charge from wavefunction
 First call to EWALD:  gamma=   0.073
 Maximum number of real-space cells 3x 3x 3
 Maximum number of reciprocal cells 3x 3x 3

    FEWALD:  cpu time    0.0018: real time    0.0018


--------------------------------------- Iteration      1(   1)  ---------------------------------------


    POTLOK:  cpu time  103.7368: real time  104.1872
    SETDIJ:  cpu time    0.5528: real time    0.5873
     EDDAV:  cpu time   36.9881: real time   37.3310
       DOS:  cpu time    0.0008: real time    0.0329
    CHARGE:  cpu time    6.6123: real time    6.6246
    MIXING:  cpu time    0.0615: real time    0.0617
    --------------------------------------------
      LOOP:  cpu time  147.9524: real time  148.8248

 eigenvalue-minimisations  :   400
 total energy-change (2. order) :-0.1195538E+03  (-0.8229088E-01)
 number of electron      96.0000012 magnetization       0.0000000
 augmentation part       13.1802194 magnetization      -0.0000014

 Broyden mixing:
  rms(total) = 0.64197E-01    rms(broyden)= 0.64157E-01
  rms(prec ) = 0.68751E-01
  weight for this iteration     100.00

 Free energy of the ion-electron system (eV)
  ---------------------------------------------------
  alpha Z        PSCENC =         2.50052397
  Ewald energy   TEWEN  =     13551.44500207
  -Hartree energ DENC   =    -20240.33069065
  -exchange      EXHF   =         0.00000000
  -V(xc)+E(xc)   XCENC  =       557.71722328
  PAW double counting   =      8711.52934514    -8777.66334579
  entropy T*S    EENTRO =        -0.00000000
  eigenvalues    EBANDS =     -1654.55266877
  atomic energy  EATOM  =      7537.02663264
  Solvation  Ediel_sol  =       192.77421801
  ---------------------------------------------------
  free energy    TOTEN  =      -119.55376010 eV

  energy without entropy =     -119.55376010  energy(sigma->0) =     -119.55376010


--------------------------------------------------------------------------------------------------------




--------------------------------------- Iteration      1(   2)  ---------------------------------------


    POTLOK:  cpu time   93.7890: real time   93.9850
    SETDIJ:  cpu time    0.4055: real time    0.4065
    EDDIAG:  cpu time    6.8954: real time    6.9227
  RMM-DIIS:  cpu time   39.7369: real time   39.8232
    ORTHCH:  cpu time    0.0771: real time    0.0772
       DOS:  cpu time    0.0004: real time    0.0004
    CHARGE:  cpu time    6.6956: real time    6.7070
    MIXING:  cpu time    0.0485: real time    0.0497
    --------------------------------------------
      LOOP:  cpu time  147.6485: real time  147.9718

 eigenvalue-minimisations  :   272
 total energy-change (2. order) : 0.7268859E-03  (-0.1466328E-01)
 number of electron      96.0000012 magnetization       0.0000000
 augmentation part       13.1661566 magnetization      -0.0000005

 Broyden mixing:
  rms(total) = 0.34060E-01    rms(broyden)= 0.34053E-01
  rms(prec ) = 0.38218E-01
  weight for this iteration     100.00

 eigenvalues of (default mixing * dielectric matrix)
  average eigenvalue GAMMA=   1.2302
  1.2302

 Free energy of the ion-electron system (eV)
  ---------------------------------------------------
  alpha Z        PSCENC =         2.50052397
  Ewald energy   TEWEN  =     13551.44500207
  -Hartree energ DENC   =    -20240.95300778
  -exchange      EXHF   =         0.00000000
  -V(xc)+E(xc)   XCENC  =       557.84711400
  PAW double counting   =      8716.64064382    -8782.80687289
  entropy T*S    EENTRO =        -0.00000000
  eigenvalues    EBANDS =     -1653.84903069
  atomic energy  EATOM  =      7537.02663264
  Solvation  Ediel_sol  =       192.59596164
  ---------------------------------------------------
  free energy    TOTEN  =      -119.55303321 eV

  energy without entropy =     -119.55303321  energy(sigma->0) =     -119.55303321


--------------------------------------------------------------------------------------------------------




--------------------------------------- Iteration      1(   3)  ---------------------------------------


    POTLOK:  cpu time   89.4032: real time   89.5758
    SETDIJ:  cpu time    0.4074: real time    0.4083
    EDDIAG:  cpu time    6.9069: real time    6.9186
  RMM-DIIS:  cpu time   40.1133: real time   40.1818
    ORTHCH:  cpu time    0.0591: real time    0.0592
       DOS:  cpu time    0.0003: real time    0.0003
    CHARGE:  cpu time    6.6015: real time    6.6122
    MIXING:  cpu time    0.0499: real time    0.0499
    --------------------------------------------
      LOOP:  cpu time  143.5417: real time  143.8061

 eigenvalue-minimisations  :   282
 total energy-change (2. order) : 0.2484459E-02  (-0.1946832E-02)
 number of electron      96.0000012 magnetization       0.0000000
 augmentation part       13.1623853 magnetization      -0.0000002

 Broyden mixing:
  rms(total) = 0.21020E-01    rms(broyden)= 0.21015E-01
  rms(prec ) = 0.24374E-01
  weight for this iteration     100.00

 eigenvalues of (default mixing * dielectric matrix)
  average eigenvalue GAMMA=   1.2631
  1.2631  1.2631

 Free energy of the ion-electron system (eV)
  ---------------------------------------------------
  alpha Z        PSCENC =         2.50052397
  Ewald energy   TEWEN  =     13551.44500207
  -Hartree energ DENC   =    -20240.70230932
  -exchange      EXHF   =         0.00000000
  -V(xc)+E(xc)   XCENC  =       557.83652026
  PAW double counting   =      8716.98834266    -8783.13819589
  entropy T*S    EENTRO =        -0.00000000
  eigenvalues    EBANDS =     -1653.84863704
  atomic energy  EATOM  =      7537.02663264
  Solvation  Ediel_sol  =       192.34157188
  ---------------------------------------------------
  free energy    TOTEN  =      -119.55054875 eV

  energy without entropy =     -119.55054875  energy(sigma->0) =     -119.55054875


--------------------------------------------------------------------------------------------------------




--------------------------------------- Iteration      1(   4)  ---------------------------------------


    POTLOK:  cpu time   88.0758: real time   88.2462
    SETDIJ:  cpu time    0.4057: real time    0.4066
    EDDIAG:  cpu time    6.8529: real time    6.8645
  RMM-DIIS:  cpu time   39.2746: real time   39.3415
    ORTHCH:  cpu time    0.0600: real time    0.0601
       DOS:  cpu time    0.0003: real time    0.0003
    CHARGE:  cpu time    6.5853: real time    6.5967
    MIXING:  cpu time    0.0558: real time    0.0564
    --------------------------------------------
      LOOP:  cpu time  141.3104: real time  141.5724

 eigenvalue-minimisations  :   274
 total energy-change (2. order) : 0.1530104E-02  (-0.3128592E-03)
 number of electron      96.0000012 magnetization       0.0000000
 augmentation part       13.1645572 magnetization      -0.0000002

 Broyden mixing:
  rms(total) = 0.11213E-01    rms(broyden)= 0.11213E-01
  rms(prec ) = 0.14926E-01
  weight for this iteration     100.00

 eigenvalues of (default mixing * dielectric matrix)
  average eigenvalue GAMMA=   1.5401
  2.5141  1.0532  1.0532

 Free energy of the ion-electron system (eV)
  ---------------------------------------------------
  alpha Z        PSCENC =         2.50052397
  Ewald energy   TEWEN  =     13551.44500207
  -Hartree energ DENC   =    -20240.33733440
  -exchange      EXHF   =         0.00000000
  -V(xc)+E(xc)   XCENC  =       557.81129825
  PAW double counting   =      8716.30645868    -8782.45145397
  entropy T*S    EENTRO =        -0.00000000
  eigenvalues    EBANDS =     -1653.93552032
  atomic energy  EATOM  =      7537.02663264
  Solvation  Ediel_sol  =       192.08537443
  ---------------------------------------------------
  free energy    TOTEN  =      -119.54901865 eV

  energy without entropy =     -119.54901865  energy(sigma->0) =     -119.54901865


--------------------------------------------------------------------------------------------------------




--------------------------------------- Iteration      1(   5)  ---------------------------------------


    POTLOK:  cpu time   88.0864: real time   88.2610
    SETDIJ:  cpu time    0.4081: real time    0.4091
    EDDIAG:  cpu time    6.8416: real time    6.8537
  RMM-DIIS:  cpu time   38.9331: real time   38.9995
    ORTHCH:  cpu time    0.0589: real time    0.0590
       DOS:  cpu time    0.0003: real time    0.0003
    CHARGE:  cpu time    6.5911: real time    6.6026
    MIXING:  cpu time    0.0518: real time    0.0518
    --------------------------------------------
      LOOP:  cpu time  140.9712: real time  141.2370

 eigenvalue-minimisations  :   272
 total energy-change (2. order) : 0.2585793E-02  (-0.3662554E-03)
 number of electron      96.0000012 magnetization       0.0000000
 augmentation part       13.1657923 magnetization      -0.0000002

 Broyden mixing:
  rms(total) = 0.62970E-02    rms(broyden)= 0.62958E-02
  rms(prec ) = 0.89867E-02
  weight for this iteration     100.00

 eigenvalues of (default mixing * dielectric matrix)
  average eigenvalue GAMMA=   1.5636
  2.5573  0.8985  1.3993  1.3993

 Free energy of the ion-electron system (eV)
  ---------------------------------------------------
  alpha Z        PSCENC =         2.50052397
  Ewald energy   TEWEN  =     13551.44500207
  -Hartree energ DENC   =    -20240.09299266
  -exchange      EXHF   =         0.00000000
  -V(xc)+E(xc)   XCENC  =       557.84014249
  PAW double counting   =      8716.23512421    -8782.37519387
  entropy T*S    EENTRO =        -0.00000000
  eigenvalues    EBANDS =     -1653.74049407
  atomic energy  EATOM  =      7537.02663264
  Solvation  Ediel_sol  =       191.61482236
  ---------------------------------------------------
  free energy    TOTEN  =      -119.54643286 eV

  energy without entropy =     -119.54643286  energy(sigma->0) =     -119.54643286


--------------------------------------------------------------------------------------------------------




--------------------------------------- Iteration      1(   6)  ---------------------------------------


    POTLOK:  cpu time   87.5560: real time   87.7294
    SETDIJ:  cpu time    0.4071: real time    0.4081
    EDDIAG:  cpu time    6.8185: real time    6.8309
  RMM-DIIS:  cpu time   39.3514: real time   39.4202
    ORTHCH:  cpu time    0.0594: real time    0.0596
       DOS:  cpu time    0.0003: real time    0.0003
    CHARGE:  cpu time    6.5721: real time    6.5835
    MIXING:  cpu time    0.0594: real time    0.0596
    --------------------------------------------
      LOOP:  cpu time  140.8243: real time  141.0915

 eigenvalue-minimisations  :   274
 total energy-change (2. order) :-0.5127548E-03  (-0.2857718E-03)
 number of electron      96.0000012 magnetization       0.0000000
 augmentation part       13.1632753 magnetization       0.0000021

 Broyden mixing:
  rms(total) = 0.87260E-02    rms(broyden)= 0.87246E-02
  rms(prec ) = 0.10116E-01
  weight for this iteration     100.00

 eigenvalues of (default mixing * dielectric matrix)
  average eigenvalue GAMMA=   1.7248
  2.7603  2.7603  0.9546  1.0745  1.0745

 Free energy of the ion-electron system (eV)
  ---------------------------------------------------
  alpha Z        PSCENC =         2.50052397
  Ewald energy   TEWEN  =     13551.44500207
  -Hartree energ DENC   =    -20240.22164117
  -exchange      EXHF   =         0.00000000
  -V(xc)+E(xc)   XCENC  =       557.86873809
  PAW double counting   =      8716.73156493    -8782.88058797
  entropy T*S    EENTRO =        -0.00000000
  eigenvalues    EBANDS =     -1653.31166693
  atomic energy  EATOM  =      7537.02663264
  Solvation  Ediel_sol  =       191.29448876
  ---------------------------------------------------
  free energy    TOTEN  =      -119.54694561 eV

  energy without entropy =     -119.54694561  energy(sigma->0) =     -119.54694561


--------------------------------------------------------------------------------------------------------




--------------------------------------- Iteration      1(   7)  ---------------------------------------


    POTLOK:  cpu time   88.8106: real time   88.9840
    SETDIJ:  cpu time    0.4077: real time    0.4085
    EDDIAG:  cpu time    6.7945: real time    6.8064
  RMM-DIIS:  cpu time   39.4029: real time   39.4712
    ORTHCH:  cpu time    0.0587: real time    0.0588
       DOS:  cpu time    0.0004: real time    0.0004
    CHARGE:  cpu time    6.5793: real time    6.5909
    MIXING:  cpu time    0.0561: real time    0.0562
    --------------------------------------------
      LOOP:  cpu time  142.1102: real time  142.3764

 eigenvalue-minimisations  :   274
 total energy-change (2. order) :-0.5656792E-03  (-0.1574011E-03)
 number of electron      96.0000012 magnetization       0.0000000
 augmentation part       13.1645442 magnetization       0.0000047

 Broyden mixing:
  rms(total) = 0.32664E-02    rms(broyden)= 0.32648E-02
  rms(prec ) = 0.42928E-02
  weight for this iteration     100.00

 eigenvalues of (default mixing * dielectric matrix)
  average eigenvalue GAMMA=   1.6842
  2.9043  2.9043  1.1244  1.1244  1.0240  1.0240

 Free energy of the ion-electron system (eV)
  ---------------------------------------------------
  alpha Z        PSCENC =         2.50052397
  Ewald energy   TEWEN  =     13551.44500207
  -Hartree energ DENC   =    -20239.88872890
  -exchange      EXHF   =         0.00000000
  -V(xc)+E(xc)   XCENC  =       557.85181131
  PAW double counting   =      8716.22480773    -8782.37620861
  entropy T*S    EENTRO =        -0.00000000
  eigenvalues    EBANDS =     -1653.19820416
  atomic energy  EATOM  =      7537.02663264
  Solvation  Ediel_sol  =       190.86685267
  ---------------------------------------------------
  free energy    TOTEN  =      -119.54751129 eV

  energy without entropy =     -119.54751129  energy(sigma->0) =     -119.54751129


--------------------------------------------------------------------------------------------------------




--------------------------------------- Iteration      1(   8)  ---------------------------------------


    POTLOK:  cpu time   84.8122: real time   84.9777
    SETDIJ:  cpu time    0.4072: real time    0.4081
    EDDIAG:  cpu time    6.8183: real time    6.8306
  RMM-DIIS:  cpu time   37.7823: real time   37.8512
    ORTHCH:  cpu time    0.0586: real time    0.0587
       DOS:  cpu time    0.0003: real time    0.0003
    CHARGE:  cpu time    6.5683: real time    6.5801
    MIXING:  cpu time    0.0582: real time    0.0583
    --------------------------------------------
      LOOP:  cpu time  136.5053: real time  136.7650

 eigenvalue-minimisations  :   256
 total energy-change (2. order) :-0.7118563E-03  (-0.3773925E-04)
 number of electron      96.0000012 magnetization       0.0000000
 augmentation part       13.1652074 magnetization       0.0000022

 Broyden mixing:
  rms(total) = 0.26868E-02    rms(broyden)= 0.26865E-02
  rms(prec ) = 0.34243E-02
  weight for this iteration     100.00

 eigenvalues of (default mixing * dielectric matrix)
  average eigenvalue GAMMA=   1.8141
  4.3556  2.6367  1.5213  1.0203  1.0203  1.0723  1.0723

 Free energy of the ion-electron system (eV)
  ---------------------------------------------------
  alpha Z        PSCENC =         2.50052397
  Ewald energy   TEWEN  =     13551.44500207
  -Hartree energ DENC   =    -20239.74541110
  -exchange      EXHF   =         0.00000000
  -V(xc)+E(xc)   XCENC  =       557.85321107
  PAW double counting   =      8716.08329614    -8782.23151545
  entropy T*S    EENTRO =        -0.00000000
  eigenvalues    EBANDS =     -1653.21603105
  atomic energy  EATOM  =      7537.02663264
  Solvation  Ediel_sol  =       190.73606855
  ---------------------------------------------------
  free energy    TOTEN  =      -119.54822315 eV

  energy without entropy =     -119.54822315  energy(sigma->0) =     -119.54822315


--------------------------------------------------------------------------------------------------------




--------------------------------------- Iteration      1(   9)  ---------------------------------------


    POTLOK:  cpu time   85.9237: real time   86.0963
    SETDIJ:  cpu time    0.4101: real time    0.4109
    EDDIAG:  cpu time    6.8782: real time    6.8901
  RMM-DIIS:  cpu time   38.0220: real time   38.0869
    ORTHCH:  cpu time    0.0580: real time    0.0581
       DOS:  cpu time    0.0004: real time    0.0004
    CHARGE:  cpu time    6.5824: real time    6.5933
    MIXING:  cpu time    0.0609: real time    0.0610
    --------------------------------------------
      LOOP:  cpu time  137.9355: real time  138.1968

 eigenvalue-minimisations  :   257
 total energy-change (2. order) :-0.1431631E-02  (-0.8123254E-04)
 number of electron      96.0000012 magnetization       0.0000000
 augmentation part       13.1647876 magnetization      -0.0000014

 Broyden mixing:
  rms(total) = 0.11876E-02    rms(broyden)= 0.11870E-02
  rms(prec ) = 0.16313E-02
  weight for this iteration     100.00

 eigenvalues of (default mixing * dielectric matrix)
  average eigenvalue GAMMA=   1.9354
  5.3549  2.4303  2.4303  1.0580  1.0580  0.9087  1.1217  1.1217

 Free energy of the ion-electron system (eV)
  ---------------------------------------------------
  alpha Z        PSCENC =         2.50052397
  Ewald energy   TEWEN  =     13551.44500207
  -Hartree energ DENC   =    -20239.66999454
  -exchange      EXHF   =         0.00000000
  -V(xc)+E(xc)   XCENC  =       557.85877733
  PAW double counting   =      8716.12880126    -8782.27801665
  entropy T*S    EENTRO =        -0.00000000
  eigenvalues    EBANDS =     -1653.09791821
  atomic energy  EATOM  =      7537.02663264
  Solvation  Ediel_sol  =       190.53653735
  ---------------------------------------------------
  free energy    TOTEN  =      -119.54965478 eV

  energy without entropy =     -119.54965478  energy(sigma->0) =     -119.54965478


--------------------------------------------------------------------------------------------------------




--------------------------------------- Iteration      1(  10)  ---------------------------------------


    POTLOK:  cpu time   82.8277: real time   82.9886
    SETDIJ:  cpu time    0.4086: real time    0.4095
    EDDIAG:  cpu time    6.9058: real time    6.9175
  RMM-DIIS:  cpu time   37.4921: real time   37.5552
    ORTHCH:  cpu time    0.0588: real time    0.0589
       DOS:  cpu time    0.0004: real time    0.0004
    CHARGE:  cpu time    6.5951: real time    6.6061
    MIXING:  cpu time    0.0636: real time    0.0637
    --------------------------------------------
      LOOP:  cpu time  134.3520: real time  134.5999

 eigenvalue-minimisations  :   254
 total energy-change (2. order) :-0.1339909E-02  (-0.7221097E-04)
 number of electron      96.0000012 magnetization       0.0000000
 augmentation part       13.1646647 magnetization      -0.0000004

 Broyden mixing:
  rms(total) = 0.10744E-02    rms(broyden)= 0.10743E-02
  rms(prec ) = 0.12551E-02
  weight for this iteration     100.00

 eigenvalues of (default mixing * dielectric matrix)
  average eigenvalue GAMMA=   1.9832
  6.4178  2.6706  2.6706  1.0445  1.0445  1.1902  1.1902  0.9554  0.6647

 Free energy of the ion-electron system (eV)
  ---------------------------------------------------
  alpha Z        PSCENC =         2.50052397
  Ewald energy   TEWEN  =     13551.44500207
  -Hartree energ DENC   =    -20239.57873511
  -exchange      EXHF   =         0.00000000
  -V(xc)+E(xc)   XCENC  =       557.85269012
  PAW double counting   =      8716.08593863    -8782.23501025
  entropy T*S    EENTRO =        -0.00000000
  eigenvalues    EBANDS =     -1653.11571150
  atomic energy  EATOM  =      7537.02663264
  Solvation  Ediel_sol  =       190.46767474
  ---------------------------------------------------
  free energy    TOTEN  =      -119.55099469 eV

  energy without entropy =     -119.55099469  energy(sigma->0) =     -119.55099469


--------------------------------------------------------------------------------------------------------




--------------------------------------- Iteration      1(  11)  ---------------------------------------


    POTLOK:  cpu time   78.9922: real time   79.1403
    SETDIJ:  cpu time    0.4071: real time    0.4080
    EDDIAG:  cpu time    6.9167: real time    6.9282
  RMM-DIIS:  cpu time   35.5630: real time   35.6234
    ORTHCH:  cpu time    0.0581: real time    0.0583
       DOS:  cpu time    0.0003: real time    0.0003
    CHARGE:  cpu time    6.6579: real time    6.6694
    MIXING:  cpu time    0.0729: real time    0.0731
    --------------------------------------------
      LOOP:  cpu time  128.6683: real time  128.9009

 eigenvalue-minimisations  :   235
 total energy-change (2. order) :-0.3627926E-03  (-0.2519451E-04)
 number of electron      96.0000012 magnetization      -0.0000000
 augmentation part       13.1647330 magnetization       0.0000004

 Broyden mixing:
  rms(total) = 0.49198E-03    rms(broyden)= 0.49193E-03
  rms(prec ) = 0.67567E-03
  weight for this iteration     100.00

 eigenvalues of (default mixing * dielectric matrix)
  average eigenvalue GAMMA=   1.9926
  7.1322  2.9190  2.3483  1.4040  1.4040  1.0635  1.0635  0.9802  0.9802  0.6313

 Free energy of the ion-electron system (eV)
  ---------------------------------------------------
  alpha Z        PSCENC =         2.50052397
  Ewald energy   TEWEN  =     13551.44500207
  -Hartree energ DENC   =    -20239.53341389
  -exchange      EXHF   =         0.00000000
  -V(xc)+E(xc)   XCENC  =       557.84984066
  PAW double counting   =      8716.05102162    -8782.19983260
  entropy T*S    EENTRO =        -0.00000000
  eigenvalues    EBANDS =     -1653.14524098
  atomic energy  EATOM  =      7537.02663264
  Solvation  Ediel_sol  =       190.45410903
  ---------------------------------------------------
  free energy    TOTEN  =      -119.55135748 eV

  energy without entropy =     -119.55135748  energy(sigma->0) =     -119.55135748


--------------------------------------------------------------------------------------------------------




--------------------------------------- Iteration      1(  12)  ---------------------------------------


    POTLOK:  cpu time   79.8203: real time   79.9745
    SETDIJ:  cpu time    0.4057: real time    0.4065
    EDDIAG:  cpu time    6.8835: real time    6.8955
  RMM-DIIS:  cpu time   33.8260: real time   33.8839
    ORTHCH:  cpu time    0.0582: real time    0.0583
       DOS:  cpu time    0.0004: real time    0.0004
    CHARGE:  cpu time    6.5906: real time    6.6012
    MIXING:  cpu time    0.0712: real time    0.0713
    --------------------------------------------
      LOOP:  cpu time  127.6560: real time  127.8916

 eigenvalue-minimisations  :   213
 total energy-change (2. order) :-0.3573492E-03  (-0.1211969E-04)
 number of electron      96.0000012 magnetization      -0.0000000
 augmentation part       13.1648372 magnetization       0.0000011

 Broyden mixing:
  rms(total) = 0.51218E-03    rms(broyden)= 0.51207E-03
  rms(prec ) = 0.60423E-03
  weight for this iteration     100.00

 eigenvalues of (default mixing * dielectric matrix)
  average eigenvalue GAMMA=   2.1617
  8.2020  3.8833  2.6389  2.0757  1.0588  1.0588  1.3158  1.0123  0.9598  0.9598
  0.6141

 Free energy of the ion-electron system (eV)
  ---------------------------------------------------
  alpha Z        PSCENC =         2.50052397
  Ewald energy   TEWEN  =     13551.44500207
  -Hartree energ DENC   =    -20239.48185602
  -exchange      EXHF   =         0.00000000
  -V(xc)+E(xc)   XCENC  =       557.84779457
  PAW double counting   =      8716.02500190    -8782.17365291
  entropy T*S    EENTRO =        -0.00000000
  eigenvalues    EBANDS =     -1653.18528422
  atomic energy  EATOM  =      7537.02663264
  Solvation  Ediel_sol  =       190.44412318
  ---------------------------------------------------
  free energy    TOTEN  =      -119.55171483 eV

  energy without entropy =     -119.55171483  energy(sigma->0) =     -119.55171483


--------------------------------------------------------------------------------------------------------




--------------------------------------- Iteration      1(  13)  ---------------------------------------


    POTLOK:  cpu time   80.7756: real time   80.9319
    SETDIJ:  cpu time    0.4076: real time    0.4086
    EDDIAG:  cpu time    6.9148: real time    6.9274
  RMM-DIIS:  cpu time   32.8902: real time   32.9481
    ORTHCH:  cpu time    0.0579: real time    0.0582
       DOS:  cpu time    0.0004: real time    0.0004
    CHARGE:  cpu time    6.5679: real time    6.5788
    MIXING:  cpu time    0.0745: real time    0.0747
    --------------------------------------------
      LOOP:  cpu time  127.6891: real time  127.9280

 eigenvalue-minimisations  :   206
 total energy-change (2. order) :-0.3139988E-03  (-0.7757998E-05)
 number of electron      96.0000012 magnetization      -0.0000000
 augmentation part       13.1647997 magnetization       0.0000012

 Broyden mixing:
  rms(total) = 0.30727E-03    rms(broyden)= 0.30725E-03
  rms(prec ) = 0.35013E-03
  weight for this iteration     100.00

 eigenvalues of (default mixing * dielectric matrix)
  average eigenvalue GAMMA=   2.0909
  8.2826  4.1766  2.7219  1.8977  1.4204  1.0678  1.0678  1.0070  1.0070  1.0265
  0.8028  0.6121

 Free energy of the ion-electron system (eV)
  ---------------------------------------------------
  alpha Z        PSCENC =         2.50052397
  Ewald energy   TEWEN  =     13551.44500207
  -Hartree energ DENC   =    -20239.44395154
  -exchange      EXHF   =         0.00000000
  -V(xc)+E(xc)   XCENC  =       557.84749625
  PAW double counting   =      8716.03173921    -8782.18043515
  entropy T*S    EENTRO =        -0.00000000
  eigenvalues    EBANDS =     -1653.21298978
  atomic energy  EATOM  =      7537.02663264
  Solvation  Ediel_sol  =       190.43395350
  ---------------------------------------------------
  free energy    TOTEN  =      -119.55202883 eV

  energy without entropy =     -119.55202883  energy(sigma->0) =     -119.55202883


--------------------------------------------------------------------------------------------------------




--------------------------------------- Iteration      1(  14)  ---------------------------------------


    POTLOK:  cpu time   77.0522: real time   77.2001
    SETDIJ:  cpu time    0.4077: real time    0.4084
    EDDIAG:  cpu time    6.8901: real time    6.9021
  RMM-DIIS:  cpu time   30.6783: real time   30.7321
    ORTHCH:  cpu time    0.0584: real time    0.0585
       DOS:  cpu time    0.0003: real time    0.0003
    CHARGE:  cpu time    6.6135: real time    6.6246
    MIXING:  cpu time    0.0777: real time    0.0779
    --------------------------------------------
      LOOP:  cpu time  121.7782: real time  122.0041

 eigenvalue-minimisations  :   185
 total energy-change (2. order) :-0.7149327E-04  (-0.2379454E-05)
 number of electron      96.0000012 magnetization      -0.0000000
 augmentation part       13.1647348 magnetization       0.0000006

 Broyden mixing:
  rms(total) = 0.10403E-03    rms(broyden)= 0.10394E-03
  rms(prec ) = 0.15470E-03
  weight for this iteration     100.00

 eigenvalues of (default mixing * dielectric matrix)
  average eigenvalue GAMMA=   2.1285
  8.6416  4.4287  2.9024  1.9526  1.9526  1.0637  1.0637  1.3989  1.0027  1.0027
  0.9791  0.6727  0.6094

 Free energy of the ion-electron system (eV)
  ---------------------------------------------------
  alpha Z        PSCENC =         2.50052397
  Ewald energy   TEWEN  =     13551.44500207
  -Hartree energ DENC   =    -20239.43836753
  -exchange      EXHF   =         0.00000000
  -V(xc)+E(xc)   XCENC  =       557.84787986
  PAW double counting   =      8716.03921345    -8782.18795848
  entropy T*S    EENTRO =        -0.00000000
  eigenvalues    EBANDS =     -1653.21224557
  atomic energy  EATOM  =      7537.02663264
  Solvation  Ediel_sol  =       190.42721928
  ---------------------------------------------------
  free energy    TOTEN  =      -119.55210032 eV

  energy without entropy =     -119.55210032  energy(sigma->0) =     -119.55210032


--------------------------------------------------------------------------------------------------------




--------------------------------------- Iteration      1(  15)  ---------------------------------------


    POTLOK:  cpu time   76.8725: real time   77.0187
    SETDIJ:  cpu time    0.4094: real time    0.4104
    EDDIAG:  cpu time    6.9117: real time    6.9236
  RMM-DIIS:  cpu time   30.2921: real time   30.3450
    ORTHCH:  cpu time    0.0584: real time    0.0585
       DOS:  cpu time    0.0004: real time    0.0004
    CHARGE:  cpu time    6.5899: real time    6.6009
    MIXING:  cpu time    0.0823: real time    0.0825
    --------------------------------------------
      LOOP:  cpu time  121.2168: real time  121.4400

 eigenvalue-minimisations  :   182
 total energy-change (2. order) :-0.1106907E-03  (-0.1595331E-05)
 number of electron      96.0000012 magnetization      -0.0000000
 augmentation part       13.1647006 magnetization       0.0000011

 Broyden mixing:
  rms(total) = 0.17167E-03    rms(broyden)= 0.17163E-03
  rms(prec ) = 0.18830E-03
  weight for this iteration     100.00

 eigenvalues of (default mixing * dielectric matrix)
  average eigenvalue GAMMA=   2.1371
  9.1161  4.8536  3.0706  2.4159  1.6208  1.6208  1.0657  1.0657  0.9979  0.9979
  0.9942  0.8402  0.6557  0.6044

 Free energy of the ion-electron system (eV)
  ---------------------------------------------------
  alpha Z        PSCENC =         2.50052397
  Ewald energy   TEWEN  =     13551.44500207
  -Hartree energ DENC   =    -20239.41422456
  -exchange      EXHF   =         0.00000000
  -V(xc)+E(xc)   XCENC  =       557.84742047
  PAW double counting   =      8716.03066409    -8782.17930399
  entropy T*S    EENTRO =        -0.00000000
  eigenvalues    EBANDS =     -1653.22224884
  atomic energy  EATOM  =      7537.02663264
  Solvation  Ediel_sol  =       190.41332314
  ---------------------------------------------------
  free energy    TOTEN  =      -119.55221101 eV

  energy without entropy =     -119.55221101  energy(sigma->0) =     -119.55221101


--------------------------------------------------------------------------------------------------------




--------------------------------------- Iteration      1(  16)  ---------------------------------------


    POTLOK:  cpu time   72.8072: real time   72.9484
    SETDIJ:  cpu time    0.4068: real time    0.4077
    EDDIAG:  cpu time    6.7858: real time    6.7974
  RMM-DIIS:  cpu time   29.8314: real time   29.8811
    ORTHCH:  cpu time    0.0586: real time    0.0587
       DOS:  cpu time    0.0003: real time    0.0003
    CHARGE:  cpu time    6.6307: real time    6.6413
    MIXING:  cpu time    0.0951: real time    0.0953
    --------------------------------------------
      LOOP:  cpu time  116.6160: real time  116.8303

 eigenvalue-minimisations  :   178
 total energy-change (2. order) :-0.2781176E-04  (-0.6757937E-06)
 number of electron      96.0000012 magnetization      -0.0000000
 augmentation part       13.1647088 magnetization       0.0000005

 Broyden mixing:
  rms(total) = 0.86694E-04    rms(broyden)= 0.86690E-04
  rms(prec ) = 0.10010E-03
  weight for this iteration     100.00

 eigenvalues of (default mixing * dielectric matrix)
  average eigenvalue GAMMA=   2.1163
  9.2821  5.1814  3.0398  2.4373  1.6769  1.6769  1.0733  1.0733  1.1083  1.1083
  1.1491  0.9495  0.7612  0.6257  0.6019

 Free energy of the ion-electron system (eV)
  ---------------------------------------------------
  alpha Z        PSCENC =         2.50052397
  Ewald energy   TEWEN  =     13551.44500207
  -Hartree energ DENC   =    -20239.40063770
  -exchange      EXHF   =         0.00000000
  -V(xc)+E(xc)   XCENC  =       557.84685986
  PAW double counting   =      8716.02119406    -8782.16975476
  entropy T*S    EENTRO =        -0.00000000
  eigenvalues    EBANDS =     -1653.22919889
  atomic energy  EATOM  =      7537.02663264
  Solvation  Ediel_sol  =       190.40713993
  ---------------------------------------------------
  free energy    TOTEN  =      -119.55223882 eV

  energy without entropy =     -119.55223882  energy(sigma->0) =     -119.55223882


--------------------------------------------------------------------------------------------------------




--------------------------------------- Iteration      1(  17)  ---------------------------------------


    POTLOK:  cpu time   72.2548: real time   72.3929
    SETDIJ:  cpu time    0.4046: real time    0.4055
    EDDIAG:  cpu time    6.8168: real time    6.8284
  RMM-DIIS:  cpu time   29.8283: real time   29.8769
    ORTHCH:  cpu time    0.0591: real time    0.0592
       DOS:  cpu time    0.0004: real time    0.0004
    CHARGE:  cpu time    6.6110: real time    6.6215
    MIXING:  cpu time    0.0938: real time    0.0939
    --------------------------------------------
      LOOP:  cpu time  116.0689: real time  116.2787

 eigenvalue-minimisations  :   176
 total energy-change (2. order) :-0.2120260E-04  (-0.4073966E-06)
 number of electron      96.0000012 magnetization      -0.0000000
 augmentation part       13.1647256 magnetization       0.0000004

 Broyden mixing:
  rms(total) = 0.36990E-04    rms(broyden)= 0.36969E-04
  rms(prec ) = 0.49546E-04
  weight for this iteration     100.00

 eigenvalues of (default mixing * dielectric matrix)
  average eigenvalue GAMMA=   2.1353
  9.3970  5.5276  3.2918  2.4272  2.4272  1.4567  1.4567  1.0732  1.0732  1.0857
  1.0857  0.9670  0.9670  0.7079  0.6222  0.5992

 Free energy of the ion-electron system (eV)
  ---------------------------------------------------
  alpha Z        PSCENC =         2.50052397
  Ewald energy   TEWEN  =     13551.44500207
  -Hartree energ DENC   =    -20239.39016894
  -exchange      EXHF   =         0.00000000
  -V(xc)+E(xc)   XCENC  =       557.84661237
  PAW double counting   =      8716.01510896    -8782.16362245
  entropy T*S    EENTRO =        -0.00000000
  eigenvalues    EBANDS =     -1653.23309326
  atomic energy  EATOM  =      7537.02663264
  Solvation  Ediel_sol  =       190.40074461
  ---------------------------------------------------
  free energy    TOTEN  =      -119.55226002 eV

  energy without entropy =     -119.55226002  energy(sigma->0) =     -119.55226002


--------------------------------------------------------------------------------------------------------




--------------------------------------- Iteration      1(  18)  ---------------------------------------


    POTLOK:  cpu time   73.1558: real time   73.2994
    SETDIJ:  cpu time    0.4074: real time    0.4082
    EDDIAG:  cpu time    6.8534: real time    6.8656
  RMM-DIIS:  cpu time   29.6722: real time   29.7222
    ORTHCH:  cpu time    0.0589: real time    0.0591
       DOS:  cpu time    0.0004: real time    0.0004
    CHARGE:  cpu time    6.5990: real time    6.6105
    MIXING:  cpu time    0.0979: real time    0.0981
    --------------------------------------------
      LOOP:  cpu time  116.8451: real time  117.0634

 eigenvalue-minimisations  :   176
 total energy-change (2. order) :-0.1967777E-04  (-0.3581172E-06)
 number of electron      96.0000012 magnetization      -0.0000000
 augmentation part       13.1647301 magnetization       0.0000001

 Broyden mixing:
  rms(total) = 0.28525E-04    rms(broyden)= 0.28520E-04
  rms(prec ) = 0.34757E-04
  weight for this iteration     100.00

 eigenvalues of (default mixing * dielectric matrix)
  average eigenvalue GAMMA=   2.1570
  9.6383  5.9776  3.8113  2.6846  2.2972  1.5713  1.5713  1.0726  1.0726  1.1404
  1.1404  1.0370  0.9647  0.8245  0.6597  0.6228  0.5824

 Free energy of the ion-electron system (eV)
  ---------------------------------------------------
  alpha Z        PSCENC =         2.50052397
  Ewald energy   TEWEN  =     13551.44500207
  -Hartree energ DENC   =    -20239.38165604
  -exchange      EXHF   =         0.00000000
  -V(xc)+E(xc)   XCENC  =       557.84665658
  PAW double counting   =      8716.01594659    -8782.16446709
  entropy T*S    EENTRO =        -0.00000000
  eigenvalues    EBANDS =     -1653.23360881
  atomic energy  EATOM  =      7537.02663264
  Solvation  Ediel_sol  =       190.39269039
  ---------------------------------------------------
  free energy    TOTEN  =      -119.55227970 eV

  energy without entropy =     -119.55227970  energy(sigma->0) =     -119.55227970


--------------------------------------------------------------------------------------------------------




--------------------------------------- Iteration      1(  19)  ---------------------------------------


    POTLOK:  cpu time   69.5412: real time   69.7119
    SETDIJ:  cpu time    0.4075: real time    0.4083
    EDDIAG:  cpu time    6.8182: real time    6.8301
  RMM-DIIS:  cpu time   29.6576: real time   29.7068
    ORTHCH:  cpu time    0.0592: real time    0.0593
       DOS:  cpu time    0.0003: real time    0.0003
    --------------------------------------------
      LOOP:  cpu time  106.4840: real time  106.7167

 eigenvalue-minimisations  :   176
 total energy-change (2. order) :-0.6797358E-05  (-0.2674156E-06)
 number of electron      96.0000012 magnetization      -0.0000000
 augmentation part       13.1647301 magnetization       0.0000001

 Free energy of the ion-electron system (eV)
  ---------------------------------------------------
  alpha Z        PSCENC =         2.50052397
  Ewald energy   TEWEN  =     13551.44500207
  -Hartree energ DENC   =    -20239.37880493
  -exchange      EXHF   =         0.00000000
  -V(xc)+E(xc)   XCENC  =       557.84671521
  PAW double counting   =      8716.01888375    -8782.16743495
  entropy T*S    EENTRO =        -0.00000000
  eigenvalues    EBANDS =     -1653.23288034
  atomic energy  EATOM  =      7537.02663264
  Solvation  Ediel_sol  =       190.38907609
  ---------------------------------------------------
  free energy    TOTEN  =      -119.55228650 eV

  energy without entropy =     -119.55228650  energy(sigma->0) =     -119.55228650


--------------------------------------------------------------------------------------------------------




 average (electrostatic) potential at core
  the test charge radii are     0.6991  0.7167  0.7215
  (the norm of the test charge is              1.0000)
       1 -67.5492       2 -66.2973       3 -66.0036       4 -65.0657       5 -63.2783
       6 -91.9328       7 -91.9671       8 -91.7825       9 -91.8049      10 -91.6288
      11 -91.6236      12 -90.9911      13 -91.0132      14 -91.8222      15 -83.2310
      16 -83.2933
 
 
 
 E-fermi :  -5.9504     XC(G=0):  -0.1430     alpha+bet : -0.0868


 spin component 1

 k-point     1 :       0.0000    0.0000    0.0000
  band No.  band energies     occupation 
      1     -35.7086      1.00000
      2     -34.7393      1.00000
      3     -34.3330      1.00000
      4     -33.6314      1.00000
      5     -33.4176      1.00000
      6     -33.2056      1.00000
      7     -33.0664      1.00000
      8     -32.8415      1.00000
      9     -32.1246      1.00000
     10     -27.7068      1.00000
     11     -25.6106      1.00000
     12     -21.7530      1.00000
     13     -20.3833      1.00000
     14     -18.5514      1.00000
     15     -17.4133      1.00000
     16     -16.3722      1.00000
     17     -16.1310      1.00000
     18     -16.1083      1.00000
     19     -15.5432      1.00000
     20     -15.3833      1.00000
     21     -15.0939      1.00000
     22     -14.8406      1.00000
     23     -14.6230      1.00000
     24     -14.1276      1.00000
     25     -12.6320      1.00000
     26     -12.4921      1.00000
     27     -12.3727      1.00000
     28     -12.2060      1.00000
     29     -12.0205      1.00000
     30     -11.8815      1.00000
     31     -11.8498      1.00000
     32     -11.6366      1.00000
     33     -11.3830      1.00000
     34     -11.2796      1.00000
     35     -10.9832      1.00000
     36     -10.9686      1.00000
     37     -10.9147      1.00000
     38     -10.8529      1.00000
     39     -10.7049      1.00000
     40     -10.6645      1.00000
     41     -10.4554      1.00000
     42     -10.3124      1.00000
     43     -10.0967      1.00000
     44     -10.0562      1.00000
     45      -8.9252      1.00000
     46      -6.7751      1.00000
     47      -6.2640      1.00000
     48      -6.1790      1.00000
     49      -0.8355      0.00000
     50      -0.3366      0.00000
     51      -0.0448      0.00000
     52       0.1479      0.00000
     53       0.1591      0.00000
     54       0.2361      0.00000
     55       0.2513      0.00000
     56       0.2774      0.00000
     57       0.2785      0.00000
     58       0.3980      0.00000
     59       0.4282      0.00000
     60       0.4593      0.00000
     61       0.4625      0.00000
     62       0.4781      0.00000
     63       0.4852      0.00000
     64       0.4914      0.00000
     65       0.5172      0.00000
     66       0.5379      0.00000
     67       0.5482      0.00000
     68       0.7158      0.00000

 spin component 2

 k-point     1 :       0.0000    0.0000    0.0000
  band No.  band energies     occupation 
      1     -35.7086      1.00000
      2     -34.7393      1.00000
      3     -34.3330      1.00000
      4     -33.6314      1.00000
      5     -33.4176      1.00000
      6     -33.2056      1.00000
      7     -33.0664      1.00000
      8     -32.8415      1.00000
      9     -32.1246      1.00000
     10     -27.7068      1.00000
     11     -25.6106      1.00000
     12     -21.7530      1.00000
     13     -20.3833      1.00000
     14     -18.5514      1.00000
     15     -17.4133      1.00000
     16     -16.3722      1.00000
     17     -16.1310      1.00000
     18     -16.1083      1.00000
     19     -15.5432      1.00000
     20     -15.3833      1.00000
     21     -15.0939      1.00000
     22     -14.8406      1.00000
     23     -14.6230      1.00000
     24     -14.1276      1.00000
     25     -12.6320      1.00000
     26     -12.4921      1.00000
     27     -12.3727      1.00000
     28     -12.2060      1.00000
     29     -12.0205      1.00000
     30     -11.8815      1.00000
     31     -11.8498      1.00000
     32     -11.6366      1.00000
     33     -11.3830      1.00000
     34     -11.2796      1.00000
     35     -10.9832      1.00000
     36     -10.9686      1.00000
     37     -10.9147      1.00000
     38     -10.8529      1.00000
     39     -10.7049      1.00000
     40     -10.6645      1.00000
     41     -10.4554      1.00000
     42     -10.3124      1.00000
     43     -10.0967      1.00000
     44     -10.0562      1.00000
     45      -8.9252      1.00000
     46      -6.7751      1.00000
     47      -6.2640      1.00000
     48      -6.1791      1.00000
     49      -0.8368      0.00000
     50      -0.3459      0.00000
     51      -0.0435      0.00000
     52       0.1483      0.00000
     53       0.1593      0.00000
     54       0.2363      0.00000
     55       0.2509      0.00000
     56       0.2774      0.00000
     57       0.2792      0.00000
     58       0.3977      0.00000
     59       0.4285      0.00000
     60       0.4593      0.00000
     61       0.4628      0.00000
     62       0.4781      0.00000
     63       0.4849      0.00000
     64       0.4909      0.00000
     65       0.5163      0.00000
     66       0.5382      0.00000
     67       0.5481      0.00000
     68       0.7158      0.00000


--------------------------------------------------------------------------------------------------------


 soft charge-density along one line, spin component           1
         0         1         2         3         4         5         6         7         8         9
 total charge-density along one line
 
 soft charge-density along one line, spin component           2
         0         1         2         3         4         5         6         7         8         9
 total charge-density along one line
 
 pseudopotential strength for first ion, spin component:           1
 10.775  14.338   0.014  -0.001   0.009  -0.035   0.001  -0.021
 14.338  19.079   0.018  -0.001   0.011  -0.044   0.002  -0.027
  0.014   0.018  -4.753   0.001  -0.002   9.246  -0.000  -0.001
 -0.001  -0.001   0.001  -4.752   0.000  -0.000   9.250   0.000
  0.009   0.011  -0.002   0.000  -4.753  -0.001   0.000   9.249
 -0.035  -0.044   9.246  -0.000  -0.001 -20.281   0.000   0.003
  0.001   0.002  -0.000   9.250   0.000   0.000 -20.291  -0.000
 -0.021  -0.027  -0.001   0.000   9.249   0.003  -0.000 -20.287
 pseudopotential strength for first ion, spin component:           2
 10.775  14.338   0.014  -0.001   0.009  -0.035   0.001  -0.021
 14.338  19.079   0.018  -0.001   0.011  -0.044   0.002  -0.027
  0.014   0.018  -4.753   0.001  -0.002   9.246  -0.000  -0.001
 -0.001  -0.001   0.001  -4.752   0.000  -0.000   9.250   0.000
  0.009   0.011  -0.002   0.000  -4.753  -0.001   0.000   9.249
 -0.035  -0.044   9.246  -0.000  -0.001 -20.281   0.000   0.003
  0.001   0.002  -0.000   9.250   0.000   0.000 -20.291  -0.000
 -0.021  -0.027  -0.001   0.000   9.249   0.003  -0.000 -20.287
 total augmentation occupancy for first ion, spin component:           1
  8.389  -4.119   0.277  -0.019   0.184   0.073  -0.005   0.047
 -4.119   2.244  -0.303   0.016  -0.193  -0.050   0.003  -0.032
  0.277  -0.303   1.527  -0.012   0.094   0.134  -0.000  -0.010
 -0.019   0.016  -0.012   1.402  -0.003  -0.000   0.158   0.001
  0.184  -0.193   0.094  -0.003   1.442  -0.010   0.001   0.149
  0.073  -0.050   0.134  -0.000  -0.010   0.015  -0.000  -0.003
 -0.005   0.003  -0.000   0.158   0.001  -0.000   0.022   0.000
  0.047  -0.032  -0.010   0.001   0.149  -0.003   0.000   0.019
 total augmentation occupancy for first ion, spin component:           2
 -0.000   0.000  -0.000  -0.000   0.000  -0.000  -0.000   0.000
  0.000  -0.000   0.000   0.000  -0.000   0.000   0.000  -0.000
 -0.000   0.000  -0.000  -0.000   0.000  -0.000   0.000   0.000
 -0.000   0.000  -0.000  -0.000   0.000   0.000   0.000  -0.000
  0.000  -0.000   0.000   0.000  -0.000   0.000   0.000   0.000
 -0.000   0.000  -0.000   0.000   0.000   0.000   0.000   0.000
 -0.000   0.000   0.000   0.000   0.000   0.000   0.000  -0.000
  0.000  -0.000   0.000  -0.000   0.000   0.000  -0.000   0.000


------------------------ aborting loop because EDIFF is reached ----------------------------------------


 


 total charge     
 
# of ion       s       p       d       tot
------------------------------------------
    1        0.817   1.556   0.000   2.373
    2        0.834   1.599   0.000   2.433
    3        0.835   1.593   0.000   2.428
    4        0.840   1.564   0.000   2.404
    5        0.876   1.719   0.000   2.594
    6        1.758   4.413   0.000   6.171
    7        1.758   4.412   0.000   6.170
    8        1.757   4.402   0.000   6.160
    9        1.757   4.401   0.000   6.158
   10        1.757   4.403   0.000   6.160
   11        1.757   4.401   0.000   6.158
   12        1.755   4.401   0.000   6.156
   13        1.755   4.400   0.000   6.154
   14        1.758   4.407   0.000   6.165
   15        1.586   3.597   0.000   5.183
   16        1.587   3.598   0.000   5.185
--------------------------------------------------
tot         23.187  54.865   0.000  78.052
 


 magnetization (x)
 
# of ion       s       p       d       tot
------------------------------------------
    1       -0.000  -0.000   0.000  -0.000
    2        0.000   0.000   0.000   0.000
    3       -0.000  -0.000   0.000  -0.000
    4       -0.000  -0.000   0.000  -0.000
    5       -0.000  -0.000   0.000  -0.000
    6       -0.000   0.000   0.000   0.000
    7       -0.000  -0.000   0.000  -0.000
[...]
     10     -27.6192      1.00000
     11     -25.4407      1.00000
     12     -21.7471      1.00000
     13     -20.3856      1.00000
     14     -18.5933      1.00000
     15     -17.4389      1.00000
     16     -16.4093      1.00000
     17     -16.1768      1.00000
     18     -16.1448      1.00000
     19     -15.5784      1.00000
     20     -15.4244      1.00000
     21     -15.1300      1.00000
     22     -14.8804      1.00000
     23     -14.6550      1.00000
     24     -14.1724      1.00000
     25     -12.6677      1.00000
     26     -12.5123      1.00000
     27     -12.3963      1.00000
     28     -12.2228      1.00000
     29     -11.9941      1.00000
     30     -11.9022      1.00000
     31     -11.8626      1.00000
     32     -11.6483      1.00000
     33     -11.4035      1.00000
     34     -11.3548      1.00000
     35     -11.0119      1.00000
     36     -10.9919      1.00000
     37     -10.9112      1.00000
     38     -10.8784      1.00000
     39     -10.7363      1.00000
     40     -10.6214      1.00000
     41     -10.4145      1.00000
     42     -10.3033      1.00000
     43     -10.0601      1.00000
     44     -10.0111      1.00000
     45      -8.8899      1.00000
     46      -6.6808      1.00000
     47      -6.2110      1.00000
     48      -6.1006      1.00000
     49      -0.8919      0.00000
     50      -0.4565      0.00000
     51      -0.0374      0.00000
     52       0.1422      0.00000
     53       0.1668      0.00000
     54       0.1771      0.00000
     55       0.2447      0.00000
     56       0.2825      0.00000
     57       0.2879      0.00000
     58       0.3085      0.00000
     59       0.4089      0.00000
     60       0.4537      0.00000
     61       0.4702      0.00000
     62       0.4742      0.00000
     63       0.4877      0.00000
     64       0.4935      0.00000
     65       0.4985      0.00000
     66       0.5043      0.00000
     67       0.5501      0.00000
     68       0.5605      0.00000

 spin component 2

 k-point     1 :       0.0000    0.0000    0.0000
  band No.  band energies     occupation 
      1     -35.7753      1.00000
      2     -34.7676      1.00000
      3     -34.3463      1.00000
      4     -33.6914      1.00000
      5     -33.4505      1.00000
      6     -33.3354      1.00000
      7     -33.1034      1.00000
      8     -32.8450      1.00000
      9     -32.1820      1.00000
     10     -27.6192      1.00000
     11     -25.4407      1.00000
     12     -21.7471      1.00000
     13     -20.3856      1.00000
     14     -18.5933      1.00000
     15     -17.4389      1.00000
     16     -16.4093      1.00000
     17     -16.1768      1.00000
     18     -16.1448      1.00000
     19     -15.5784      1.00000
     20     -15.4244      1.00000
     21     -15.1300      1.00000
     22     -14.8804      1.00000
     23     -14.6550      1.00000
     24     -14.1724      1.00000
     25     -12.6677      1.00000
     26     -12.5123      1.00000
     27     -12.3963      1.00000
     28     -12.2228      1.00000
     29     -11.9941      1.00000
     30     -11.9022      1.00000
     31     -11.8626      1.00000
     32     -11.6483      1.00000
     33     -11.4035      1.00000
     34     -11.3548      1.00000
     35     -11.0119      1.00000
     36     -10.9919      1.00000
     37     -10.9112      1.00000
     38     -10.8784      1.00000
     39     -10.7363      1.00000
     40     -10.6215      1.00000
     41     -10.4145      1.00000
     42     -10.3033      1.00000
     43     -10.0601      1.00000
     44     -10.0111      1.00000
     45      -8.8899      1.00000
     46      -6.6808      1.00000
     47      -6.2110      1.00000
     48      -6.1007      1.00000
     49      -0.8919      0.00000
     50      -0.4565      0.00000
     51      -0.0373      0.00000
     52       0.1422      0.00000
     53       0.1668      0.00000
     54       0.1770      0.00000
     55       0.2447      0.00000
     56       0.2825      0.00000
     57       0.2879      0.00000
     58       0.3085      0.00000
     59       0.4089      0.00000
     60       0.4537      0.00000
     61       0.4701      0.00000
     62       0.4743      0.00000
     63       0.4877      0.00000
     64       0.4935      0.00000
     65       0.4985      0.00000
     66       0.5043      0.00000
     67       0.5501      0.00000
     68       0.5604      0.00000


--------------------------------------------------------------------------------------------------------


 soft charge-density along one line, spin component           1
         0         1         2         3         4         5         6         7         8         9
 total charge-density along one line
 
 soft charge-density along one line, spin component           2
         0         1         2         3         4         5         6         7         8         9
 total charge-density along one line
 
 pseudopotential strength for first ion, spin component:           1
 10.778  14.342   0.014  -0.001   0.008  -0.035   0.001  -0.021
 14.342  19.083   0.018  -0.001   0.011  -0.044   0.002  -0.027
  0.014   0.018  -4.754   0.000  -0.001   9.248  -0.000  -0.002
 -0.001  -0.001   0.000  -4.753   0.000  -0.000   9.252  -0.000
  0.008   0.011  -0.001   0.000  -4.754  -0.002  -0.000   9.252
 -0.035  -0.044   9.248  -0.000  -0.002 -20.286   0.000   0.005
  0.001   0.002  -0.000   9.252  -0.000   0.000 -20.296   0.000
 -0.021  -0.027  -0.002  -0.000   9.252   0.005   0.000 -20.293
 pseudopotential strength for first ion, spin component:           2
 10.778  14.342   0.014  -0.001   0.008  -0.035   0.001  -0.021
 14.342  19.083   0.018  -0.001   0.011  -0.044   0.002  -0.027
  0.014   0.018  -4.754   0.000  -0.001   9.248  -0.000  -0.002
 -0.001  -0.001   0.000  -4.753   0.000  -0.000   9.252  -0.000
  0.008   0.011  -0.001   0.000  -4.754  -0.002  -0.000   9.252
 -0.035  -0.044   9.248  -0.000  -0.002 -20.286   0.000   0.005
  0.001   0.002  -0.000   9.252  -0.000   0.000 -20.296   0.000
 -0.021  -0.027  -0.002  -0.000   9.252   0.005   0.000 -20.293
 total augmentation occupancy for first ion, spin component:           1
  8.491  -4.184   0.288  -0.016   0.163   0.074  -0.004   0.042
 -4.184   2.282  -0.305   0.014  -0.178  -0.051   0.003  -0.029
  0.288  -0.305   1.534  -0.008   0.079   0.136   0.000  -0.013
 -0.016   0.014  -0.008   1.409  -0.006   0.000   0.159   0.000
  0.163  -0.178   0.079  -0.006   1.453  -0.013   0.000   0.150
  0.074  -0.051   0.136   0.000  -0.013   0.016   0.000  -0.004
 -0.004   0.003   0.000   0.159   0.000   0.000   0.022   0.000
  0.042  -0.029  -0.013   0.000   0.150  -0.004   0.000   0.020
 total augmentation occupancy for first ion, spin component:           2
  0.000  -0.000   0.000  -0.000  -0.000   0.000  -0.000  -0.000
 -0.000  -0.000  -0.000   0.000   0.000  -0.000   0.000  -0.000
  0.000  -0.000  -0.000  -0.000   0.000   0.000  -0.000   0.000
 -0.000   0.000  -0.000  -0.000  -0.000  -0.000  -0.000  -0.000
 -0.000   0.000   0.000  -0.000   0.000   0.000  -0.000   0.000
  0.000  -0.000   0.000  -0.000   0.000   0.000   0.000   0.000
 -0.000   0.000  -0.000  -0.000  -0.000   0.000  -0.000  -0.000
 -0.000  -0.000   0.000  -0.000   0.000   0.000  -0.000   0.000


------------------------ aborting loop because EDIFF is reached ----------------------------------------


 


 total charge     
 
# of ion       s       p       d       tot
------------------------------------------
    1        0.816   1.563   0.000   2.379
    2        0.833   1.603   0.000   2.436
    3        0.835   1.595   0.000   2.430
    4        0.840   1.575   0.000   2.415
    5        0.875   1.720   0.000   2.595
    6        1.758   4.414   0.000   6.172
    7        1.758   4.412   0.000   6.170
    8        1.757   4.404   0.000   6.161
    9        1.757   4.402   0.000   6.160
   10        1.757   4.404   0.000   6.161
   11        1.757   4.401   0.000   6.158
   12        1.755   4.405   0.000   6.160
   13        1.755   4.402   0.000   6.157
   14        1.758   4.412   0.000   6.170
   15        1.585   3.595   0.000   5.181
   16        1.586   3.596   0.000   5.182
--------------------------------------------------
tot         23.184  54.903   0.000  78.087
 


 magnetization (x)
 
# of ion       s       p       d       tot
------------------------------------------
    1        0.000  -0.000   0.000  -0.000
    2       -0.000   0.000   0.000   0.000
    3        0.000   0.000   0.000   0.000
    4       -0.000   0.000   0.000   0.000
    5       -0.000  -0.000   0.000  -0.000
    6        0.000  -0.000   0.000  -0.000
    7       -0.000  -0.000   0.000  -0.000
    8        0.000   0.000   0.000   0.000
    9        0.000   0.000   0.000   0.000
   10       -0.000   0.000   0.000   0.000
   11       -0.000   0.000   0.000   0.000
   12       -0.000  -0.000   0.000  -0.000
   13       -0.000  -0.000   0.000  -0.000
   14        0.000   0.000   0.000   0.000
   15        0.000   0.000   0.000   0.000
   16       -0.000  -0.000   0.000  -0.000
--------------------------------------------------
tot          0.000   0.000   0.000   0.000
 
    CHARGE:  cpu time    0.8691: real time    0.8705
    FORLOC:  cpu time    0.1197: real time    0.1200
    FORNL :  cpu time    2.5264: real time    2.5304
    STRESS:  cpu time  118.9987: real time  119.1933
    FORCOR:  cpu time   27.5085: real time   27.5683
    FORHAR:  cpu time    0.3801: real time    0.3811
    MIXING:  cpu time    0.0537: real time    0.0540
    OFIELD:  cpu time    0.0002: real time    0.0002

  FORCE on cell =-STRESS in cart. coord.  units (eV):
  Direction    XX          YY          ZZ          XY          YZ          ZX
  --------------------------------------------------------------------------------------
  Alpha Z     2.50052     2.50052     2.50052
  Ewald    3675.30046  6663.75252  3227.79783   -22.56416  -130.22269  -289.27254
  Hartree  5911.21227  8955.25532  5386.90832    -4.52001   -60.73849  -143.38257
  E(xc)    -524.46307  -522.64238  -525.58931    -0.25159    -0.35014    -0.02917
  Local  -10860.20805-16989.11741 -9844.05617    25.23527   183.95244   407.93751
  n-local  -408.96895  -413.01339  -406.70600     1.20665     2.23771     2.18527
  augment   178.06266   190.01251   172.03223     0.59131     0.14523     1.56692
  Kinetic  2026.41451  2112.67305  1987.29818     1.02251     5.35334    21.58156
  Fock        0.00000     0.00000     0.00000     0.00000     0.00000     0.00000
  -------------------------------------------------------------------------------------
  Total      -0.14964    -0.57926     0.18560     0.71999     0.37741     0.58697
  in kB      -0.01684    -0.06517     0.02088     0.08101     0.04246     0.06604
  external pressure =       -0.02 kB  Pullay stress =        0.00 kB


 VOLUME and BASIS-vectors are now :
 -----------------------------------------------------------------------------
  energy-cutoff  :      550.00
  volume of cell :    14239.92
      direct lattice vectors                 reciprocal lattice vectors
    23.045067450  0.000000000  0.000000000     0.043393234  0.000000000  0.000000000
     0.000000000 26.876125330  0.000000000     0.000000000  0.037207744  0.000000000
     0.000000000  0.000000000 22.991272620     0.000000000  0.000000000  0.043494765

  length of vectors
    23.045067450 26.876125330 22.991272620     0.043393234  0.037207744  0.043494765


 FORCES acting on ions
    electron-ion (+dipol)            ewald-force                    non-local-force                 convergence-correction
 -----------------------------------------------------------------------------------------------
   -.247E+02 -.168E+03 -.157E+01   0.198E+02 0.159E+03 0.181E+01   0.480E+01 0.799E+01 -.278E+00   -.149E-02 -.832E-03 -.979E-03
   0.414E+02 -.783E+02 -.914E+01   -.309E+02 0.757E+02 0.874E+01   -.101E+02 0.768E+00 0.419E+00   -.327E-03 0.111E-02 -.109E-02
   -.283E+02 0.477E+02 -.832E+01   0.181E+02 -.518E+02 0.570E+01   0.105E+02 0.197E+01 0.253E+01   -.196E-02 -.162E-02 -.282E-03
   0.127E+02 0.180E+03 0.993E+01   -.136E+01 -.187E+03 -.355E+01   -.104E+02 0.506E+01 -.593E+01   0.239E-04 -.189E-02 0.960E-03
   -.308E+02 0.213E+03 -.201E+02   0.311E+02 -.214E+03 0.203E+02   0.670E+00 -.742E+00 0.376E+00   0.384E-04 -.323E-02 -.401E-02
   -.306E+03 -.389E+03 0.559E+03   0.330E+03 0.395E+03 -.613E+03   -.241E+02 -.843E+01 0.532E+02   0.550E-02 -.303E-02 0.511E-02
   -.509E+03 -.324E+03 -.428E+03   0.552E+03 0.322E+03 0.468E+03   -.428E+02 -.992E+00 -.401E+02   -.307E-02 0.214E-02 -.612E-02
   0.473E+03 -.149E+03 -.565E+03   -.504E+03 0.147E+03 0.613E+03   0.318E+02 -.113E+01 -.475E+02   -.242E-02 0.567E-02 -.380E-02
   0.529E+03 -.163E+03 0.489E+03   -.564E+03 0.159E+03 -.533E+03   0.360E+02 0.426E+00 0.440E+02   0.812E-03 0.156E-01 -.503E-02
   -.585E+03 0.141E+02 0.407E+03   0.628E+03 -.129E+02 -.444E+03   -.420E+02 -.570E+01 0.368E+02   -.267E-02 0.710E-02 -.622E-02
   -.365E+03 0.124E+03 -.617E+03   0.388E+03 -.134E+03 0.666E+03   -.232E+02 0.586E+01 -.498E+02   -.699E-02 0.765E-02 -.135E-01
   0.631E+03 0.243E+03 -.213E+03   -.677E+03 -.245E+03 0.237E+03   0.473E+02 -.122E+01 -.231E+02   0.398E-02 -.118E-01 0.516E-02
   0.186E+03 0.267E+03 0.654E+03   -.193E+03 -.271E+03 -.705E+03   0.857E+01 0.226E+01 0.517E+02   0.352E-02 -.139E-01 0.365E-01
   0.302E+03 -.696E+03 -.105E+03   -.337E+03 0.740E+03 0.116E+03   0.353E+02 -.455E+02 -.107E+02   -.185E-01 -.401E-02 -.682E-02
   -.446E+03 0.351E+03 0.155E+03   0.492E+03 -.358E+03 -.178E+03   -.446E+02 0.475E+01 0.224E+02   -.125E-01 0.583E-03 0.134E-01
   0.128E+03 0.493E+03 -.304E+03   -.151E+03 -.524E+03 0.339E+03   0.238E+02 0.297E+02 -.333E+02   -.886E-02 -.240E-01 -.287E-01
 -----------------------------------------------------------------------------------------------
   -.133E+01 0.498E+01 -.628E+00   0.171E-12 0.114E-12 -.398E-12   0.137E+01 -.496E+01 0.622E+00   -.450E-01 -.245E-01 -.155E-01
 
 
 POSITION                                       TOTAL-FORCE (eV/Angst)
 -----------------------------------------------------------------------------------
     11.95138     15.82199     11.64339         0.010738     -0.007119     -0.003504
     11.14470     14.50175     11.70828        -0.000661      0.007834      0.005511
     12.00447     13.21266     11.69537         0.004679     -0.000916     -0.005234
     11.24161     11.91216     11.36830        -0.004196     -0.010517     -0.004836
     12.00889     10.62242     11.80263         0.013754      0.007001     -0.002072
     12.49366     15.99963     10.43301         0.000719     -0.004617      0.007290
     12.92658     15.82149     12.56408         0.000457     -0.004095     -0.009263
     10.41022     14.53766     12.84431         0.001415      0.000500     -0.000246
     10.30242     14.49468     10.64529         0.003852     -0.004563      0.008306
     13.00738     13.39631     10.79931         0.005848      0.003892      0.004176
     12.55838     13.07904     12.93295        -0.006140     -0.005168     -0.003669
     10.01199     12.01044     11.96455        -0.010809      0.011094     -0.010720
     11.01555     11.88422     10.01504        -0.001852      0.013337     -0.010016
     11.12911     16.85143     11.89049        -0.005484     -0.001863      0.007324
     13.11848     10.50843     11.24503        -0.014741     -0.005971      0.000986
     11.42457      9.89378     12.62146         0.002421      0.001171      0.015967
 -----------------------------------------------------------------------------------
    total drift:                                0.002475     -0.008107     -0.021415


--------------------------------------------------------------------------------------------------------



  FREE ENERGIE OF THE ION-ELECTRON SYSTEM (eV)
  ---------------------------------------------------
  free  energy   TOTEN  =      -119.57879640 eV

  energy  without entropy=     -119.57879640  energy(sigma->0) =     -119.57879640
 
 d Force = 0.5630186E-04[ 0.349E-04, 0.777E-04]  d Energy = 0.4751261E-04 0.879E-05
 d Force = 0.4459676E+00[ 0.446E+00, 0.446E+00]  d Ewald  = 0.4459675E+00 0.343E-08


--------------------------------------------------------------------------------------------------------


    POTLOK:  cpu time   79.6767: real time   79.8347


--------------------------------------------------------------------------------------------------------


 Conjugate gradient step on ions:
 trial-energy change:   -0.000048  1 .order   -0.000056   -0.000078   -0.000035
  (g-gl).g = 0.187E-03      g.g   = 0.194E-03  gl.gl    = 0.223E-03
 g(Force)  = 0.194E-03   g(Stress)= 0.000E+00 ortho     = 0.165E-04
 gamma     =   0.84083
 trial     =   0.37299
 opt step  =   0.67730  (harmonic =   0.67730) maximal distance =0.00131140
 next E    =  -119.578819   (d E  =  -0.00007)


--------------------------------------------------------------------------------------------------------


  
 reached required accuracy - stopping structural energy minimisation
 writing wavefunctions
     LOOP+:  cpu time  600.5392: real time  604.2075
    4ORBIT:  cpu time    0.0000: real time    0.0000
 


 total charge     
 
# of ion       s       p       d       tot
------------------------------------------
    1        0.816   1.563   0.000   2.379
    2        0.833   1.603   0.000   2.436
    3        0.835   1.595   0.000   2.430
    4        0.840   1.575   0.000   2.415
    5        0.875   1.720   0.000   2.595
    6        1.758   4.414   0.000   6.172
    7        1.758   4.412   0.000   6.170
    8        1.757   4.404   0.000   6.161
    9        1.757   4.402   0.000   6.160
   10        1.757   4.404   0.000   6.161
   11        1.757   4.401   0.000   6.158
   12        1.755   4.405   0.000   6.160
   13        1.755   4.402   0.000   6.157
   14        1.758   4.412   0.000   6.170
   15        1.585   3.595   0.000   5.181
   16        1.586   3.596   0.000   5.182
--------------------------------------------------
tot         23.184  54.903   0.000  78.087
 


 magnetization (x)
 
# of ion       s       p       d       tot
------------------------------------------
    1        0.000  -0.000   0.000  -0.000
    2       -0.000   0.000   0.000   0.000
    3        0.000   0.000   0.000   0.000
    4       -0.000   0.000   0.000   0.000
    5       -0.000  -0.000   0.000  -0.000
    6        0.000  -0.000   0.000  -0.000
    7       -0.000  -0.000   0.000  -0.000
    8        0.000   0.000   0.000   0.000
    9        0.000   0.000   0.000   0.000
   10       -0.000   0.000   0.000   0.000
   11       -0.000   0.000   0.000   0.000
   12       -0.000  -0.000   0.000  -0.000
   13       -0.000  -0.000   0.000  -0.000
   14        0.000   0.000   0.000   0.000
   15        0.000   0.000   0.000   0.000
   16       -0.000  -0.000   0.000  -0.000
--------------------------------------------------
tot          0.000   0.000   0.000   0.000
 

 total amount of memory used by VASP MPI-rank0   315138. kBytes
=======================================================================

   base      :      30000. kBytes
   nonlr-proj:       1216. kBytes
   fftplans  :      56857. kBytes
   grid      :     208138. kBytes
   one-center:         12. kBytes
   wavefun   :      18915. kBytes
 
  
  
 General timing and accounting informations for this job:
 ========================================================
  
                  Total CPU time used (sec):    22655.115
                            User time (sec):    21584.928
                          System time (sec):     1070.187
                         Elapsed time (sec):    22718.786
  
                   Maximum memory used (kb):     1445492.
                   Average memory used (kb):           0.
  
                          Minor page faults:      7078019
                          Major page faults:          166
                 Voluntary context switches:       240941
