 vasp.5.4.4.18Apr17-6-g9f103f2a35 (build May 01 2020 14:57:12) complex          
  
 executed on             LinuxIFC date 2021.02.27  17:34:31
 running on  192 total cores
 distrk:  each k-point on  192 cores,    1 groups
 distr:  one band on NCORES_PER_BAND=  48 cores,    4 groups


--------------------------------------------------------------------------------------------------------


 INCAR:
 POTCAR:    PAW_PBE B 06Sep2000                   
 POTCAR:    PAW_PBE N 08Apr2002                   

 ----------------------------------------------------------------------------- 
|                                                                             |
|           W    W    AA    RRRRR   N    N  II  N    N   GGGG   !!!           |
|           W    W   A  A   R    R  NN   N  II  NN   N  G    G  !!!           |
|           W    W  A    A  R    R  N N  N  II  N N  N  G       !!!           |
|           W WW W  AAAAAA  RRRRR   N  N N  II  N  N N  G  GGG   !            |
|           WW  WW  A    A  R   R   N   NN  II  N   NN  G    G                |
|           W    W  A    A  R    R  N    N  II  N    N   GGGG   !!!           |
|                                                                             |
|      For optimal performance we recommend to set                            |
|        NCORE= 4 - approx SQRT( number of cores)                             |
|      NCORE specifies how many cores store one orbital (NPAR=cpu/NCORE).     |
|      This setting can  greatly improve the performance of VASP for DFT.     |
|      The default,   NCORE=1            might be grossly inefficient         |
|      on modern multi-core architectures or massively parallel machines.     |
|      Do your own testing !!!!                                               |
|      Unfortunately you need to use the default for GW and RPA calculations. |
|      (for HF NCORE is supported but not extensively tested yet)             |
|                                                                             |
 ----------------------------------------------------------------------------- 


 ----------------------------------------------------------------------------- 
|                                                                             |
|  ADVICE TO THIS USER RUNNING 'VASP/VAMP'   (HEAR YOUR MASTER'S VOICE ...):  |
|                                                                             |
|      You have switched on vdW-DFT.                                          |
|      This routine was written and supplied by Jiri Klimes.                  |
|      We recommed that you carefully read and cite the following             |
|      publication                                                            |
|      J. Klimes, D.R. Bowler, A. Michelides                                  |
|        J. Phys.: Cond Matt. 22 022201 (2010)                                |
|      J. Klimes, D.R. Bowler, A. Michelides                                  |
|        Phys. Rev. B. 83, 195131 (2011)                                      |
|      and references therein.                                                |
|                                                                             |
 ----------------------------------------------------------------------------- 

 POTCAR:    PAW_PBE B 06Sep2000                   
   VRHFIN =B: s2p1                                                              
   LEXCH  = PE                                                                  
   EATOM  =    71.1703 eV,    5.2309 Ry                                         
                                                                                
   TITEL  = PAW_PBE B 06Sep2000                                                 
   LULTRA =        F    use ultrasoft PP ?                                      
   IUNSCR =        1    unscreen: 0-lin 1-nonlin 2-no                           
   RPACOR =    1.200    partial core radius                                     
   POMASS =   10.811; ZVAL   =    3.000    mass and valenz                      
   RCORE  =    1.700    outmost cutoff radius                                   
   RWIGS  =    1.710; RWIGS  =    0.905    wigner-seitz radius (au A)           
   ENMAX  =  318.614; ENMIN  =  238.960 eV                                      
   ICORE  =        2    local potential                                         
   LCOR   =        T    correct aug charges                                     
   LPAW   =        T    paw PP                                                  
   EAUG   =  535.514                                                            
   DEXC   =    0.000                                                            
   RMAX   =    1.732    core radius for proj-oper                               
   RAUG   =    1.300    factor for augmentation sphere                          
   RDEP   =    1.757    radius for radial grids                                 
   RDEPT  =    1.436    core radius for aug-charge                              
                                                                                
   Atomic configuration                                                         
    4 entries                                                                   
     n  l   j            E        occ.                                          
     1  0  0.50      -180.5896   2.0000                                         
     2  0  0.50        -9.4431   2.0000                                         
     2  1  0.50        -3.6068   1.0000                                         
     3  2  1.50        -4.0817   0.0000                                         
   Description                                                                  
     l       E           TYP  RCUT    TYP  RCUT                                 
     0     -9.4430752     23  1.500                                             
     0      0.8675899     23  1.500                                             
     1     -3.6067955     23  1.700                                             
     1      6.1086146     23  1.700                                             
     2     -4.0817478      7  1.700                                             
  local pseudopotential read in
  partial core-charges read in
  partial kinetic energy density read in
  atomic valenz-charges read in
  non local Contribution for L=           0  read in
    real space projection operators read in
  non local Contribution for L=           0  read in
    real space projection operators read in
  non local Contribution for L=           1  read in
    real space projection operators read in
  non local Contribution for L=           1  read in
    real space projection operators read in
    PAW grid and wavefunctions read in
 
   number of l-projection  operators is LMAX  =           4
   number of lm-projection operators is LMMAX =           8
 
 POTCAR:    PAW_PBE N 08Apr2002                   
   VRHFIN =N: s2p3                                                              
   LEXCH  = PE                                                                  
   EATOM  =   264.5486 eV,   19.4438 Ry                                         
                                                                                
   TITEL  = PAW_PBE N 08Apr2002                                                 
   LULTRA =        F    use ultrasoft PP ?                                      
   IUNSCR =        1    unscreen: 0-lin 1-nonlin 2-no                           
   RPACOR =    1.200    partial core radius                                     
   POMASS =   14.001; ZVAL   =    5.000    mass and valenz                      
   RCORE  =    1.500    outmost cutoff radius                                   
   RWIGS  =    1.400; RWIGS  =    0.741    wigner-seitz radius (au A)           
   ENMAX  =  400.000; ENMIN  =  300.000 eV                                      
   ICORE  =        2    local potential                                         
   LCOR   =        T    correct aug charges                                     
   LPAW   =        T    paw PP                                                  
   EAUG   =  627.112                                                            
   DEXC   =    0.000                                                            
   RMAX   =    1.529    core radius for proj-oper                               
   RAUG   =    1.300    factor for augmentation sphere                          
   RDEP   =    1.514    radius for radial grids                                 
   RDEPT  =    1.338    core radius for aug-charge                              
                                                                                
   Atomic configuration                                                         
    4 entries                                                                   
     n  l   j            E        occ.                                          
     1  0  0.50      -384.7179   2.0000                                         
     2  0  0.50       -18.5828   2.0000                                         
     2  1  0.50        -7.0898   3.0000                                         
     3  2  1.50        -6.8029   0.0000                                         
   Description                                                                  
     l       E           TYP  RCUT    TYP  RCUT                                 
     0    -18.5828119     23  1.200                                             
     0    -13.5018863     23  1.200                                             
     1     -7.0897853     23  1.500                                             
     1      9.5240782     23  1.500                                             
     2     -6.8029130      7  1.500                                             
  local pseudopotential read in
  partial core-charges read in
  partial kinetic energy density read in
  atomic valenz-charges read in
  non local Contribution for L=           0  read in
    real space projection operators read in
  non local Contribution for L=           0  read in
    real space projection operators read in
  non local Contribution for L=           1  read in
    real space projection operators read in
  non local Contribution for L=           1  read in
    real space projection operators read in
    PAW grid and wavefunctions read in
 
   number of l-projection  operators is LMAX  =           4
   number of lm-projection operators is LMMAX =           8
 
 Optimization of the real space projectors (new method)

 maximal supplied QI-value         = 22.11
 optimisation between [QCUT,QGAM] = [ 11.94, 23.88] = [ 39.92,159.67] Ry 
 Optimized for a Real-space Cutoff    1.18 Angstroem

   l    n(q)    QCUT    max X(q) W(low)/X(q) W(high)/X(q)  e(spline) 
   0      8    11.939    53.033    0.11E-03    0.34E-03    0.60E-07
   0      8    11.939    34.740    0.11E-03    0.34E-03    0.59E-07
   1      8    11.939    30.949    0.22E-03    0.20E-03    0.17E-06
   1      8    11.939    19.518    0.20E-03    0.18E-03    0.16E-06
 Optimization of the real space projectors (new method)

 maximal supplied QI-value         = 25.13
 optimisation between [QCUT,QGAM] = [ 11.81, 23.88] = [ 39.08,159.64] Ry 
 Optimized for a Real-space Cutoff    1.41 Angstroem

   l    n(q)    QCUT    max X(q) W(low)/X(q) W(high)/X(q)  e(spline) 
   0     10    11.813    79.467    0.48E-04    0.30E-04    0.67E-06
   0     10    11.813    66.151    0.47E-04    0.30E-04    0.67E-06
   1     10    11.813    20.169    0.11E-03    0.17E-03    0.11E-05
   1     10    11.813    14.454    0.11E-03    0.17E-03    0.11E-05
  PAW_PBE B 06Sep2000                   :
 energy of atom  1       EATOM=  -71.1703
 kinetic energy error for atom=    0.0009 (will be added to EATOM!!)
  PAW_PBE N 08Apr2002                   :
 energy of atom  2       EATOM= -264.5486
 kinetic energy error for atom=    0.0116 (will be added to EATOM!!)
 
 
 POSCAR: B N                                     
  positions in direct lattice
  velocities in cartesian coordinates

 METAGGA = SCAN     LMAXTAU =  6    LMIXTAU =  F

 exchange correlation table for  LEXCH =        8
   RHO(1)=    0.500       N(1)  =     2000
   RHO(2)=  100.500       N(2)  =     4000
 


--------------------------------------------------------------------------------------------------------


 ion  position               nearest neighbor table
   1  0.111  0.056  0.500-  42 1.45  43 1.45  37 1.45
   2  0.111  0.222  0.500-  44 1.45  37 1.45  38 1.45
   3  0.111  0.389  0.500-  45 1.45  38 1.45  39 1.45
   4  0.111  0.556  0.500-  39 1.45  46 1.45  40 1.45
   5  0.111  0.722  0.500-  47 1.45  40 1.45  41 1.45
   6  0.111  0.889  0.500-  48 1.45  41 1.45  42 1.45
   7  0.278  0.056  0.500-  48 1.45  49 1.45  43 1.45
   8  0.278  0.222  0.500-  43 1.45  50 1.45  44 1.45
   9  0.278  0.389  0.500-  44 1.45  51 1.45  45 1.45
  10  0.278  0.556  0.500-  45 1.45  52 1.45  46 1.45
  11  0.278  0.722  0.500-  46 1.45  53 1.45  47 1.45
  12  0.278  0.889  0.500-  47 1.45  54 1.45  48 1.45
  13  0.444  0.056  0.500-  54 1.45  55 1.45  49 1.45
  14  0.444  0.222  0.500-  49 1.45  56 1.45  50 1.45
  15  0.444  0.389  0.500-  50 1.45  57 1.45  51 1.45
  16  0.444  0.556  0.500-  51 1.45  58 1.45  52 1.45
  17  0.444  0.722  0.500-  52 1.45  59 1.45  53 1.45
  18  0.444  0.889  0.500-  53 1.45  60 1.45  54 1.45
  19  0.611  0.056  0.500-  60 1.45  61 1.45  55 1.45
  20  0.611  0.222  0.500-  62 1.45  55 1.45  56 1.45
  21  0.611  0.389  0.500-  63 1.45  56 1.45  57 1.45
  22  0.611  0.556  0.500-  57 1.45  64 1.45  58 1.45
  23  0.611  0.722  0.500-  65 1.45  58 1.45  59 1.45
  24  0.611  0.889  0.500-  66 1.45  59 1.45  60 1.45
  25  0.778  0.056  0.500-  66 1.45  67 1.45  61 1.45
  26  0.778  0.222  0.500-  61 1.45  68 1.45  62 1.45
  27  0.778  0.389  0.500-  62 1.45  69 1.45  63 1.45
  28  0.778  0.556  0.500-  63 1.45  70 1.45  64 1.45
  29  0.778  0.722  0.500-  64 1.45  71 1.45  65 1.45
  30  0.778  0.889  0.500-  65 1.45  72 1.45  66 1.45
  31  0.944  0.056  0.500-  72 1.45  37 1.45  67 1.45
  32  0.944  0.222  0.500-  38 1.45  67 1.45  68 1.45
  33  0.944  0.389  0.500-  39 1.45  68 1.45  69 1.45
  34  0.944  0.556  0.500-  69 1.45  40 1.45  70 1.45
  35  0.944  0.722  0.500-  41 1.45  70 1.45  71 1.45
  36  0.944  0.889  0.500-  42 1.45  71 1.45  72 1.45
  37  0.056  0.111  0.500-   2 1.45  31 1.45   1 1.45
  38  0.056  0.278  0.500-  32 1.45   3 1.45   2 1.45
  39  0.056  0.444  0.500-  33 1.45   4 1.45   3 1.45
  40  0.056  0.611  0.500-   5 1.45  34 1.45   4 1.45
  41  0.056  0.778  0.500-  35 1.45   6 1.45   5 1.45
  42  0.056  0.944  0.500-  36 1.45   1 1.45   6 1.45
  43  0.222  0.111  0.500-   8 1.45   1 1.45   7 1.45
  44  0.222  0.278  0.500-   2 1.45   9 1.45   8 1.45
  45  0.222  0.444  0.500-   3 1.45  10 1.45   9 1.45
  46  0.222  0.611  0.500-  11 1.45   4 1.45  10 1.45
  47  0.222  0.778  0.500-   5 1.45  12 1.45  11 1.45
  48  0.222  0.944  0.500-   6 1.45   7 1.45  12 1.45
  49  0.389  0.111  0.500-  14 1.45   7 1.45  13 1.45
  50  0.389  0.278  0.500-   8 1.45  15 1.45  14 1.45
  51  0.389  0.444  0.500-   9 1.45  16 1.45  15 1.45
  52  0.389  0.611  0.500-  17 1.45  10 1.45  16 1.45
  53  0.389  0.778  0.500-  11 1.45  18 1.45  17 1.45
  54  0.389  0.944  0.500-  12 1.45  13 1.45  18 1.45
  55  0.556  0.111  0.500-  13 1.45  20 1.45  19 1.45
  56  0.556  0.278  0.500-  14 1.45  21 1.45  20 1.45
  57  0.556  0.444  0.500-  15 1.45  22 1.45  21 1.45
  58  0.556  0.611  0.500-  16 1.45  23 1.45  22 1.45
  59  0.556  0.778  0.500-  17 1.45  24 1.45  23 1.45
  60  0.556  0.944  0.500-  18 1.45  19 1.45  24 1.45
  61  0.722  0.111  0.500-  26 1.45  19 1.45  25 1.45
  62  0.722  0.278  0.500-  20 1.45  27 1.45  26 1.45
  63  0.722  0.444  0.500-  21 1.45  28 1.45  27 1.45
  64  0.722  0.611  0.500-  29 1.45  22 1.45  28 1.45
  65  0.722  0.778  0.500-  23 1.45  30 1.45  29 1.45
  66  0.722  0.944  0.500-  24 1.45  25 1.45  30 1.45
  67  0.889  0.111  0.500-  32 1.45  25 1.45  31 1.45
  68  0.889  0.278  0.500-  26 1.45  33 1.45  32 1.45
  69  0.889  0.444  0.500-  27 1.45  34 1.45  33 1.45
  70  0.889  0.611  0.500-  35 1.45  28 1.45  34 1.45
  71  0.889  0.778  0.500-  29 1.45  36 1.45  35 1.45
  72  0.889  0.944  0.500-  30 1.45  31 1.45  36 1.45
 
  LATTYP: Found a hexagonal cell.
 ALAT       =    15.0731507304
 C/A-ratio  =     2.3296167479
  
  Lattice vectors:
  
 A1 = (   7.5365500567, -13.0537460594,   0.0000000000)
 A2 = (   7.5365500567,  13.0537460594,   0.0000000000)
 A3 = (   0.0000000000,   0.0000000000,  35.1146643856)


Analysis of symmetry for initial positions (statically):
=====================================================================
 Subroutine PRICEL returns following result:
 
  Warning from LATTYP: Got some problem with cell dimensions!
  Tried to take original basis but could not verify dimensions!
  LATTYP: Found a hexagonal cell.
 ALAT       =     2.5121833522
 C/A-ratio  =    13.9777474261
  
  Lattice vectors:
  
 A1 = (   2.5121833522,  -0.0000000000,   0.0000000000)
 A2 = (  -1.2560916761,  -2.1756243432,   0.0000000000)
 A3 = (   0.0000000000,   0.0000000000, -35.1146643856)
 
  36 primitive cells build up your supercell.
 

 Routine SETGRP: Setting up the symmetry group for a 
 hexagonal supercell.


 Subroutine GETGRP returns: Found 12 space group operations
 (whereof 12 operations were pure point group operations)
 out of a pool of 24 trial point group operations.


The static configuration has the point symmetry D_3h.


Analysis of symmetry for dynamics (positions and initial velocities):
=====================================================================
 Subroutine PRICEL returns following result:
 
  Warning from LATTYP: Got some problem with cell dimensions!
  Tried to take original basis but could not verify dimensions!
  LATTYP: Found a hexagonal cell.
 ALAT       =     2.5121833522
 C/A-ratio  =    13.9777474261
  
  Lattice vectors:
  
 A1 = (   2.5121833522,  -0.0000000000,   0.0000000000)
 A2 = (  -1.2560916761,  -2.1756243432,   0.0000000000)
 A3 = (   0.0000000000,   0.0000000000, -35.1146643856)
 
  36 primitive cells build up your supercell.
 

 Routine SETGRP: Setting up the symmetry group for a 
 hexagonal supercell.


 Subroutine GETGRP returns: Found 12 space group operations
 (whereof 12 operations were pure point group operations)
 out of a pool of 24 trial point group operations.


The dynamic configuration has the point symmetry D_3h.


Analysis of constrained symmetry for selective dynamics:
=====================================================================
 Subroutine PRICEL returns following result:
 
  Warning from LATTYP: Got some problem with cell dimensions!
  Tried to take original basis but could not verify dimensions!
  LATTYP: Found a hexagonal cell.
 ALAT       =     2.5121833522
 C/A-ratio  =    13.9777474261
  
  Lattice vectors:
  
 A1 = (   2.5121833522,  -0.0000000000,   0.0000000000)
 A2 = (  -1.2560916761,  -2.1756243432,   0.0000000000)
 A3 = (   0.0000000000,   0.0000000000, -35.1146643856)
 
  36 primitive cells build up your supercell.
 

 Routine SETGRP: Setting up the symmetry group for a 
 hexagonal supercell.


 Subroutine GETGRP returns: Found 12 space group operations
 (whereof 12 operations were pure point group operations)
 out of a pool of 24 trial point group operations.


The constrained configuration has the point symmetry D_3h.


Analysis of structural, dynamic, and magnetic symmetry:
=====================================================================
 Subroutine PRICEL returns following result:
 
  Warning from LATTYP: Got some problem with cell dimensions!
  Tried to take original basis but could not verify dimensions!
  LATTYP: Found a hexagonal cell.
 ALAT       =     2.5121833522
 C/A-ratio  =    13.9777474261
  
  Lattice vectors:
  
 A1 = (   2.5121833522,  -0.0000000000,   0.0000000000)
 A2 = (  -1.2560916761,  -2.1756243432,   0.0000000000)
 A3 = (   0.0000000000,   0.0000000000, -35.1146643856)
 
  36 primitive cells build up your supercell.
 

 Routine SETGRP: Setting up the symmetry group for a 
 hexagonal supercell.


 Subroutine GETGRP returns: Found 12 space group operations
 (whereof 12 operations were pure point group operations)
 out of a pool of 24 trial point group operations.


The magnetic configuration has the point symmetry D_3h.


 Subroutine INISYM returns: Found 12 space group operations
 (whereof 12 operations are pure point group operations),
 and found    36 'primitive' translations

 
 
 KPOINTS: K-Point Grid                            

Automatic generation of k-mesh.
Space group operators:
 irot       det(A)        alpha          n_x          n_y          n_z        tau_x        tau_y        tau_z
    1     1.000000     0.000000     1.000000     0.000000     0.000000     0.000000     0.000000     0.000000
    2    -1.000000    60.000000     0.000000     0.000000    -1.000000     0.000000     0.000000     0.000000
    3     1.000000   120.000000     0.000000     0.000000    -1.000000     0.000000     0.000000     0.000000
    4    -1.000000   180.000000     0.000000     0.000000     1.000000     0.000000     0.000000     0.000000
    5     1.000000   120.000000     0.000000     0.000000     1.000000     0.000000     0.000000     0.000000
    6    -1.000000    60.000000     0.000000     0.000000     1.000000     0.000000     0.000000     0.000000
    7    -1.000000   180.000000     0.500002    -0.866024     0.000000     0.000000     0.000000     0.000000
    8     1.000000   180.000000     0.000000     1.000000     0.000000     0.000000     0.000000     0.000000
    9    -1.000000   180.000000    -0.500002    -0.866024     0.000000     0.000000     0.000000     0.000000
   10     1.000000   180.000000     0.866026     0.499998     0.000000     0.000000     0.000000     0.000000
   11    -1.000000   180.000000     1.000000     0.000000     0.000000     0.000000     0.000000     0.000000
   12     1.000000   180.000000     0.866026    -0.499998     0.000000     0.000000     0.000000     0.000000
 
 Subroutine IBZKPT returns following result:
 ===========================================
 
 Found      3 irreducible k-points:
 
 Following reciprocal coordinates:
            Coordinates               Weight
  0.000000  0.000000  0.000000      1.000000
  0.333333  0.000000  0.000000      6.000000
  0.333333  0.333333  0.000000      2.000000
 
 Following cartesian coordinates:
            Coordinates               Weight
  0.000000  0.000000  0.000000      1.000000
  0.022114 -0.012768  0.000000      6.000000
  0.044229  0.000000  0.000000      2.000000
 


--------------------------------------------------------------------------------------------------------




 Dimension of arrays:
   k-points           NKPTS =      3   k-points in BZ     NKDIM =      3   number of bands    NBANDS=    220
   number of dos      NEDOS =   1200   number of ions     NIONS =     72
   non local maximal  LDIM  =      4   non local SUM 2l+1 LMDIM =      8
   total plane-waves  NPLWV = ******
   max r-space proj   IRMAX =   6598   max aug-charges    IRDMAX=   8974
   dimension x,y,z NGX =   120 NGY =  120 NGZ =  270
   dimension x,y,z NGXF=   240 NGYF=  240 NGZF=  540
   support grid    NGXF=   240 NGYF=  240 NGZF=  540
   ions per type =              36  36
   NGX,Y,Z   is equivalent  to a cutoff of  13.24, 13.24, 12.78 a.u.
   NGXF,Y,Z  is equivalent  to a cutoff of  26.47, 26.47, 25.57 a.u.

 SYSTEM =  SiC                                     
 POSCAR =  B N                                     

 Startparameter for this run:
   NWRITE =      2    write-flag & timer
   PREC   = accura    normal or accurate (medium, high low for compatibility)
   ISTART =      1    job   : 0-new  1-cont  2-samecut
   ICHARG =      0    charge: 1-file 2-atom 10-const
   ISPIN  =      2    spin polarized calculation?
   LNONCOLLINEAR =      F non collinear calculations
   LSORBIT =      F    spin-orbit coupling
   INIWAV =      1    electr: 0-lowe 1-rand  2-diag
   LASPH  =      T    aspherical Exc in radial PAW
   METAGGA=      F    non-selfconsistent MetaGGA calc.

 Electronic Relaxation 1
   ENCUT  =  550.0 eV  40.42 Ry    6.36 a.u.  28.82 28.82 67.15*2*pi/ulx,y,z
   ENINI  =  550.0     initial cutoff
   ENAUG  =  627.1 eV  augmentation charge cutoff
   NELM   =    100;   NELMIN=  2; NELMDL=  0     # of ELM steps 
   EDIFF  = 0.1E-04   stopping-criterion for ELM
   LREAL  =      T    real-space projection
   NLSPLINE    = F    spline interpolate recip. space projectors
   LCOMPAT=      F    compatible to vasp.4.4
   GGA_COMPAT  = T    GGA compatible to vasp.4.4-vasp.4.6
   LMAXPAW     = -100 max onsite density
   LMAXMIX     =    2 max onsite mixed and CHGCAR
   VOSKOWN=      0    Vosko Wilk Nusair interpolation
   ROPT   =   -0.00025  -0.00025
 Ionic relaxation
   EDIFFG = -.2E-01   stopping-criterion for IOM
   NSW    =    500    number of steps for IOM
   NBLOCK =      1;   KBLOCK =    500    inner block; outer block 
   IBRION =      2    ionic relax: 0-MD 1-quasi-New 2-CG
   NFREE  =      1    steps in history (QN), initial steepest desc. (CG)
   ISIF   =      2    stress and relaxation
   IWAVPR =     11    prediction:  0-non 1-charg 2-wave 3-comb
   ISYM   =      2    0-nonsym 1-usesym 2-fastsym
   LCORR  =      T    Harris-Foulkes like correction to forces

   POTIM  = 0.5000    time-step for ionic-motion
   TEIN   =    0.0    initial temperature
   TEBEG  =    0.0;   TEEND  =   0.0 temperature during run
   SMASS  =  -3.00    Nose mass-parameter (am)
   estimated Nose-frequenzy (Omega)   =  0.10E-29 period in steps =****** mass=  -0.519E-26a.u.
   SCALEE = 1.0000    scale energy and forces
   NPACO  =    256;   APACO  = 16.0  distance and # of slots for P.C.
   PSTRESS=    0.0 pullay stress

  Mass of Ions in am
   POMASS =  10.81 14.00
  Ionic Valenz
   ZVAL   =   3.00  5.00
  Atomic Wigner-Seitz radii
   RWIGS  =  -1.00 -1.00
  virtual crystal weights 
   VCA    =   1.00  1.00
   NELECT =     288.0000    total number of electrons
   NUPDOWN=      -1.0000    fix difference up-down

 DOS related values:
   EMIN   =  10.00;   EMAX   =-10.00  energy-range for DOS
   EFERMI =   0.00
   ISMEAR =     0;   SIGMA  =   0.05  broadening in eV -4-tet -1-fermi 0-gaus

 Electronic relaxation 2 (details)
   IALGO  =     68    algorithm
   LDIAG  =      T    sub-space diagonalisation (order eigenvalues)
   LSUBROT=      F    optimize rotation matrix (better conditioning)
   TURBO    =      0    0=normal 1=particle mesh
   IRESTART =      0    0=no restart 2=restart with 2 vectors
   NREBOOT  =      0    no. of reboots
   NMIN     =      0    reboot dimension
   EREF     =   0.00    reference energy to select bands
   IMIX   =      4    mixing-type and parameters
     AMIX     =   0.40;   BMIX     =  1.00
     AMIX_MAG =   1.60;   BMIX_MAG =  1.00
     AMIN     =   0.10
     WC   =   100.;   INIMIX=   1;  MIXPRE=   1;  MAXMIX= -45

 Intra band minimization:
   WEIMIN = 0.0010     energy-eigenvalue tresh-hold
   EBREAK =  0.11E-07  absolut break condition
   DEPER  =   0.30     relativ break condition  

   TIME   =   0.40     timestep for ELM

  volume/ion in A,a.u.               =      95.96       647.58
  Fermi-wavevector in a.u.,A,eV,Ry     =   0.567628  1.072661  4.383813  0.322201
  Thomas-Fermi vector in A             =   1.606518
 
 Write flags
   LWAVE        =      T    write WAVECAR
   LDOWNSAMPLE  =      F    k-point downsampling of WAVECAR
   LCHARG       =      F    write CHGCAR
   LVTOT        =      F    write LOCPOT, total local potential
   LVHAR        =      T    write LOCPOT, Hartree potential only
   LELF         =      F    write electronic localiz. function (ELF)
   LORBIT       =     11    0 simple, 1 ext, 2 COOP (PROOUT), +10 PAW based schemes


 Dipole corrections
   LMONO  =      F    monopole corrections only (constant potential shift)
   LDIPOL =      F    correct potential (dipole corrections)
   IDIPOL =      0    1-x, 2-y, 3-z, 4-all directions 
   EPSILON=  1.0000000 bulk dielectric constant

 Exchange correlation treatment:
   GGA     =    --    GGA type
   LEXCH   =     8    internal setting for exchange type
   VOSKOWN=      0    Vosko Wilk Nusair interpolation
   LHFCALC =     F    Hartree Fock is set to
   LHFONE  =     F    Hartree Fock one center treatment
   AEXX    =    0.0000 exact exchange contribution

 vdW DFT:
   LUSE_VDW   =     T    switch on vdW DFT
   Zab_VDW    =-.8491    correlation parameter
   PARAM1     =0.1234
   PARAM2     =1.0000
   PARAM3     =0.0000
   -- rVV10 --
   BPARAM     =15.7000
   CPARAM     = 0.0093

 Linear response parameters
   LEPSILON=     F    determine dielectric tensor
   LRPA    =     F    only Hartree local field effects (RPA)
   LNABLA  =     F    use nabla operator in PAW spheres
   LVEL    =     F    velocity operator in full k-point grid
   LINTERFAST=   F  fast interpolation
   KINTER  =     0    interpolate to denser k-point grid
   CSHIFT  =0.1000    complex shift for real part using Kramers Kronig
   OMEGAMAX=  -1.0    maximum frequency
   DEG_THRESHOLD= 0.2000000E-02 threshold for treating states as degnerate
   RTIME   =   -0.100 relaxation time in fs
  (WPLASMAI=    0.000 imaginary part of plasma frequency in eV, 0.658/RTIME)
   DFIELD  = 0.0000000 0.0000000 0.0000000 field for delta impulse in time
 
 Orbital magnetization related:
   ORBITALMAG=     F  switch on orbital magnetization
   LCHIMAG   =     F  perturbation theory with respect to B field
   DQ        =  0.001000  dq finite difference perturbation B field
   LLRAUG    =     F  two centre corrections for induced B field

 Solvation model:
   LSOL    =     T         switch on solvation model
   EB_K    = 78.400000     relative permittivity of the bulk solvent
   SIGMA_K =  0.600000     width of the dielectric cavity
   NC_K    =  0.002500     cutoff charge density
   TAU     =  0.000000     cavity surface tension
   LAMBDA_D_K    =  3.040000     Debye length in Angstroms
   LRHOB     =     F     write boundcharge  density
   LRHOION     =     F     write ioniccharge density



--------------------------------------------------------------------------------------------------------


 conjugate gradient relaxation of ions
   using selective dynamics as specified on POSCAR
 charge density and potential will be updated during run
 spin polarized calculation
 RMM-DIIS sequential band-by-band and
  variant of blocked Davidson during initial phase
 perform sub-space diagonalisation
    before iterative eigenvector-optimisation
 modified Broyden-mixing scheme, WC =      100.0
 initial mixing is a Kerker type mixing with AMIX =  0.4000 and BMIX =      1.0000
 Hartree-type preconditioning will be used
 using additional bands           76
 real space projection scheme for non local part
 use partial core corrections
 calculate Harris-corrections to forces 
   (improved forces if not selfconsistent)
 use gradient corrections 
 use of overlap-Matrix (Vanderbilt PP)
 Gauss-broadening in eV      SIGMA  =   0.05


--------------------------------------------------------------------------------------------------------


  energy-cutoff  :      550.00
  volume of cell :     6909.18
      direct lattice vectors                 reciprocal lattice vectors
     7.536550057-13.053746059  0.000000000     0.066343353 -0.038303181  0.000000000
     7.536550057 13.053746059  0.000000000     0.066343353  0.038303181  0.000000000
     0.000000000  0.000000000 35.114664386     0.000000000  0.000000000  0.028478131

  length of vectors
    15.073150730 15.073150730 35.114664386     0.076606620  0.076606620  0.028478131


 
 old parameters found on file WAVECAR:
  energy-cutoff  :      550.00
  volume of cell :     6909.18
      direct lattice vectors                 reciprocal lattice vectors
     7.536550057-13.053746059  0.000000000     0.066343353 -0.038303181  0.000000000
     7.536550057 13.053746059  0.000000000     0.066343353  0.038303181  0.000000000
     0.000000000  0.000000000 35.114664386     0.000000000  0.000000000  0.028478131

  length of vectors

 
 k-points in units of 2pi/SCALE and weight: K-Point Grid                            
   0.00000000  0.00000000  0.00000000       0.111
   0.02211445 -0.01276773  0.00000000       0.667
   0.04422890  0.00000000  0.00000000       0.222
 
 k-points in reciprocal lattice and weights: K-Point Grid                            
   0.00000000  0.00000000  0.00000000       0.111
   0.33333333  0.00000000  0.00000000       0.667
   0.33333333  0.33333333  0.00000000       0.222
 
 position of ions in fractional coordinates (direct lattice) 
   0.11111143  0.05555590  0.50000000
   0.11111143  0.22222257  0.50000000
   0.11111143  0.38888924  0.50000000
   0.11111143  0.55555590  0.50000000
   0.11111143  0.72222257  0.50000000
   0.11111143  0.88888924  0.50000000
   0.27777810  0.05555590  0.50000000
   0.27777810  0.22222257  0.50000000
   0.27777810  0.38888924  0.50000000
   0.27777810  0.55555590  0.50000000
   0.27777810  0.72222257  0.50000000
   0.27777810  0.88888924  0.50000000
   0.44444476  0.05555590  0.50000000
   0.44444476  0.22222257  0.50000000
   0.44444476  0.38888924  0.50000000
   0.44444476  0.55555590  0.50000000
   0.44444476  0.72222257  0.50000000
   0.44444476  0.88888924  0.50000000
   0.61111143  0.05555590  0.50000000
   0.61111143  0.22222257  0.50000000
   0.61111143  0.38888924  0.50000000
   0.61111143  0.55555590  0.50000000
   0.61111143  0.72222257  0.50000000
   0.61111143  0.88888924  0.50000000
   0.77777810  0.05555590  0.50000000
   0.77777810  0.22222257  0.50000000
   0.77777810  0.38888924  0.50000000
   0.77777810  0.55555590  0.50000000
   0.77777810  0.72222257  0.50000000
   0.77777810  0.88888924  0.50000000
   0.94444476  0.05555590  0.50000000
   0.94444476  0.22222257  0.50000000
   0.94444476  0.38888924  0.50000000
   0.94444476  0.55555590  0.50000000
   0.94444476  0.72222257  0.50000000
   0.94444476  0.88888924  0.50000000
   0.05555590  0.11111143  0.50000000
   0.05555590  0.27777810  0.50000000
   0.05555590  0.44444476  0.50000000
   0.05555590  0.61111143  0.50000000
   0.05555590  0.77777810  0.50000000
   0.05555590  0.94444476  0.50000000
   0.22222257  0.11111143  0.50000000
   0.22222257  0.27777810  0.50000000
   0.22222257  0.44444476  0.50000000
   0.22222257  0.61111143  0.50000000
   0.22222257  0.77777810  0.50000000
   0.22222257  0.94444476  0.50000000
   0.38888924  0.11111143  0.50000000
   0.38888924  0.27777810  0.50000000
   0.38888924  0.44444476  0.50000000
   0.38888924  0.61111143  0.50000000
   0.38888924  0.77777810  0.50000000
   0.38888924  0.94444476  0.50000000
   0.55555590  0.11111143  0.50000000
   0.55555590  0.27777810  0.50000000
   0.55555590  0.44444476  0.50000000
   0.55555590  0.61111143  0.50000000
   0.55555590  0.77777810  0.50000000
   0.55555590  0.94444476  0.50000000
   0.72222257  0.11111143  0.50000000
   0.72222257  0.27777810  0.50000000
   0.72222257  0.44444476  0.50000000
   0.72222257  0.61111143  0.50000000
   0.72222257  0.77777810  0.50000000
   0.72222257  0.94444476  0.50000000
   0.88888924  0.11111143  0.50000000
   0.88888924  0.27777810  0.50000000
   0.88888924  0.44444476  0.50000000
   0.88888924  0.61111143  0.50000000
   0.88888924  0.77777810  0.50000000
   0.88888924  0.94444476  0.50000000
 
 position of ions in cartesian coordinates  (Angst):
   1.25609669 -0.72520776 17.55733219
   2.51218837  1.45041658 17.55733219
   3.76828004  3.62604092 17.55733219
   5.02437172  5.80166527 17.55733219
   6.28046340  7.97728961 17.55733219
   7.53655507 10.15291395 17.55733219
   2.51218837 -2.90083211 17.55733219
   3.76828004 -0.72520776 17.55733219
   5.02437172  1.45041658 17.55733219
   6.28046340  3.62604092 17.55733219
   7.53655507  5.80166527 17.55733219
   8.79264675  7.97728961 17.55733219
   3.76828004 -5.07645645 17.55733219
   5.02437172 -2.90083211 17.55733219
   6.28046340 -0.72520776 17.55733219
   7.53655507  1.45041658 17.55733219
   8.79264675  3.62604092 17.55733219
  10.04873843  5.80166527 17.55733219
   5.02437172 -7.25208079 17.55733219
   6.28046340 -5.07645645 17.55733219
   7.53655507 -2.90083211 17.55733219
   8.79264675 -0.72520776 17.55733219
  10.04873843  1.45041658 17.55733219
  11.30483010  3.62604092 17.55733219
   6.28046340 -9.42770514 17.55733219
   7.53655507 -7.25208079 17.55733219
   8.79264675 -5.07645645 17.55733219
  10.04873843 -2.90083211 17.55733219
  11.30483010 -0.72520776 17.55733219
  12.56092178  1.45041658 17.55733219
   7.53655507-11.60332948 17.55733219
   8.79264675 -9.42770514 17.55733219
  10.04873843 -7.25208079 17.55733219
  11.30483010 -5.07645645 17.55733219
  12.56092178 -2.90083211 17.55733219
  13.81701345 -0.72520776 17.55733219
   1.25609669  0.72520776 17.55733219
   2.51218837  2.90083211 17.55733219
   3.76828004  5.07645645 17.55733219
   5.02437172  7.25208079 17.55733219
   6.28046340  9.42770514 17.55733219
   7.53655507 11.60332948 17.55733219
   2.51218837 -1.45041658 17.55733219
   3.76828004  0.72520776 17.55733219
   5.02437172  2.90083211 17.55733219
   6.28046340  5.07645645 17.55733219
   7.53655507  7.25208079 17.55733219
   8.79264675  9.42770514 17.55733219
   3.76828004 -3.62604092 17.55733219
   5.02437172 -1.45041658 17.55733219
   6.28046340  0.72520776 17.55733219
   7.53655507  2.90083211 17.55733219
   8.79264675  5.07645645 17.55733219
  10.04873843  7.25208079 17.55733219
   5.02437172 -5.80166527 17.55733219
   6.28046340 -3.62604092 17.55733219
   7.53655507 -1.45041658 17.55733219
   8.79264675  0.72520776 17.55733219
  10.04873843  2.90083211 17.55733219
  11.30483010  5.07645645 17.55733219
   6.28046340 -7.97728961 17.55733219
   7.53655507 -5.80166527 17.55733219
   8.79264675 -3.62604092 17.55733219
  10.04873843 -1.45041658 17.55733219
  11.30483010  0.72520776 17.55733219
  12.56092178  2.90083211 17.55733219
   7.53655507-10.15291395 17.55733219
   8.79264675 -7.97728961 17.55733219
  10.04873843 -5.80166527 17.55733219
  11.30483010 -3.62604092 17.55733219
  12.56092178 -1.45041658 17.55733219
  13.81701345  0.72520776 17.55733219
 


--------------------------------------------------------------------------------------------------------


 k-point  1 :   0.0000 0.0000 0.0000  plane waves:  202395
 k-point  2 :   0.3333 0.0000 0.0000  plane waves:  202358
 k-point  3 :   0.3333 0.3333 0.0000  plane waves:  202335

 maximum and minimum number of plane-waves per node :      4241     4178

 maximum number of plane-waves:    202395
 maximum index in each direction: 
   IXMAX=   28   IYMAX=   28   IZMAX=   67
   IXMIN=  -29   IYMIN=  -29   IZMIN=  -67


 real space projection operators:
  total allocation   :      22693.50 KBytes
  max/ min on nodes  :        600.38        350.62


 parallel 3D FFT for wavefunctions:
    minimum data exchange during FFTs selected (reduces bandwidth)
 parallel 3D FFT for charge:
    minimum data exchange during FFTs selected (reduces bandwidth)


 total amount of memory used by VASP MPI-rank0   110877. kBytes
=======================================================================

   base      :      30000. kBytes
   nonlr-proj:       8749. kBytes
   fftplans  :      10805. kBytes
   grid      :      38967. kBytes
   one-center:         12. kBytes
   wavefun   :      22344. kBytes
 
     INWAV:  cpu time   11.4900: real time   11.6896
 Broyden mixing: mesh for mixing (old mesh)
   NGX = 57   NGY = 57   NGZ =135
  (NGX  =240   NGY  =240   NGZ  =540)
  gives a total of 438615 points

 charge density for first step will be calculated from the start-wavefunctions


--------------------------------------------------------------------------------------------------------


 Maximum index for non-local projection operator          367
 Maximum index for augmentation-charges          387 (set IRDMAX)


--------------------------------------------------------------------------------------------------------


 initial charge from wavefunction
 First call to EWALD:  gamma=   0.093
 Maximum number of real-space cells 4x 4x 2
 Maximum number of reciprocal cells 2x 2x 5

    FEWALD:  cpu time    0.0048: real time    0.0044


--------------------------------------- Iteration      1(   1)  ---------------------------------------


    POTLOK:  cpu time   18.8037: real time   18.7044
    SETDIJ:  cpu time    0.6060: real time    0.4098
     EDDAV:  cpu time   56.5901: real time   28.3723
       DOS:  cpu time    0.0140: real time    0.0070
    CHARGE:  cpu time   35.1600: real time   32.2631
    MIXING:  cpu time    0.0195: real time    0.0196
    --------------------------------------------
      LOOP:  cpu time  111.1934: real time   79.7763

 eigenvalue-minimisations  :  3024
 total energy-change (2. order) :-0.6996024E+03  (-0.1179224E-02)
 number of electron     287.9999972 magnetization      -0.0000000
 augmentation part        8.1951456 magnetization       0.0000363

 Broyden mixing:
  rms(total) = 0.10182E-01    rms(broyden)= 0.10179E-01
  rms(prec ) = 0.10591E-01
  weight for this iteration     100.00

 Free energy of the ion-electron system (eV)
  ---------------------------------------------------
  alpha Z        PSCENC =        66.74861214
  Ewald energy   TEWEN  =     92052.63332070
  -Hartree energ DENC   =   -102349.16971634
  -exchange      EXHF   =         0.00000000
  -V(xc)+E(xc)   XCENC  =      1248.66895110
  PAW double counting   =     35152.81308456   -35279.87522079
  entropy T*S    EENTRO =        -0.00000000
  eigenvalues    EBANDS =     -3899.31569085
  atomic energy  EATOM  =     12085.42833786
  Solvation  Ediel_sol  =       222.46587889
  ---------------------------------------------------
  free energy    TOTEN  =      -699.60244273 eV

  energy without entropy =     -699.60244273  energy(sigma->0) =     -699.60244273


--------------------------------------------------------------------------------------------------------




--------------------------------------- Iteration      1(   2)  ---------------------------------------


    POTLOK:  cpu time   15.5923: real time   15.6304
    SETDIJ:  cpu time    0.5966: real time    0.4003
    EDDIAG:  cpu time   11.8894: real time    6.0273
  RMM-DIIS:  cpu time   66.2846: real time   33.3000
    ORTHCH:  cpu time    0.3364: real time    0.1691
       DOS:  cpu time    0.0032: real time    0.0016
    CHARGE:  cpu time   35.1342: real time   32.2657
    MIXING:  cpu time    0.0114: real time    0.0114
    --------------------------------------------
      LOOP:  cpu time  129.8481: real time   87.8058

 eigenvalue-minimisations  :  2640
 total energy-change (2. order) : 0.6277767E-03  (-0.8696181E-04)
 number of electron     287.9999972 magnetization      -0.0000000
 augmentation part        8.1987260 magnetization       0.0000307

 Broyden mixing:
  rms(total) = 0.37744E-02    rms(broyden)= 0.37736E-02
  rms(prec ) = 0.39980E-02
  weight for this iteration     100.00

 eigenvalues of (default mixing * dielectric matrix)
  average eigenvalue GAMMA=   1.4097
  1.4097

 Free energy of the ion-electron system (eV)
  ---------------------------------------------------
  alpha Z        PSCENC =        66.74861214
  Ewald energy   TEWEN  =     92052.63332070
  -Hartree energ DENC   =   -102347.26229956
  -exchange      EXHF   =         0.00000000
  -V(xc)+E(xc)   XCENC  =      1248.53218462
  PAW double counting   =     35149.03352296   -35276.08139555
  entropy T*S    EENTRO =        -0.00000000
  eigenvalues    EBANDS =     -3901.55708412
  atomic energy  EATOM  =     12085.42833786
  Solvation  Ediel_sol  =       222.92298599
  ---------------------------------------------------
  free energy    TOTEN  =      -699.60181495 eV

  energy without entropy =     -699.60181495  energy(sigma->0) =     -699.60181495


--------------------------------------------------------------------------------------------------------




--------------------------------------- Iteration      1(   3)  ---------------------------------------


    POTLOK:  cpu time   15.0178: real time   15.0538
    SETDIJ:  cpu time    0.5959: real time    0.3996
    EDDIAG:  cpu time   11.9051: real time    6.0318
  RMM-DIIS:  cpu time   66.2601: real time   33.3034
    ORTHCH:  cpu time    0.3377: real time    0.1697
       DOS:  cpu time    0.0029: real time    0.0014
    CHARGE:  cpu time   35.1037: real time   32.2405
    MIXING:  cpu time    0.0062: real time    0.0062
    --------------------------------------------
      LOOP:  cpu time  129.2293: real time   87.2064

 eigenvalue-minimisations  :  2640
 total energy-change (2. order) : 0.1305077E-03  (-0.3452241E-04)
 number of electron     287.9999972 magnetization      -0.0000000
 augmentation part        8.2010801 magnetization       0.0000380

 Broyden mixing:
  rms(total) = 0.20076E-02    rms(broyden)= 0.20070E-02
  rms(prec ) = 0.21086E-02
  weight for this iteration     100.00

 eigenvalues of (default mixing * dielectric matrix)
  average eigenvalue GAMMA=   2.1080
  2.1080  2.1080

 Free energy of the ion-electron system (eV)
  ---------------------------------------------------
  alpha Z        PSCENC =        66.74861214
  Ewald energy   TEWEN  =     92052.63332070
  -Hartree energ DENC   =   -102345.91017880
  -exchange      EXHF   =         0.00000000
  -V(xc)+E(xc)   XCENC  =      1248.49142988
  PAW double counting   =     35144.53019485   -35271.56966235
  entropy T*S    EENTRO =        -0.00000000
  eigenvalues    EBANDS =     -3903.20272317
  atomic energy  EATOM  =     12085.42833786
  Solvation  Ediel_sol  =       223.24898445
  ---------------------------------------------------
  free energy    TOTEN  =      -699.60168444 eV

  energy without entropy =     -699.60168444  energy(sigma->0) =     -699.60168444


--------------------------------------------------------------------------------------------------------




--------------------------------------- Iteration      1(   4)  ---------------------------------------


    POTLOK:  cpu time   15.8841: real time   15.9242
    SETDIJ:  cpu time    0.5967: real time    0.4004
    EDDIAG:  cpu time   11.9062: real time    6.0304
  RMM-DIIS:  cpu time   66.2596: real time   33.2852
    ORTHCH:  cpu time    0.3344: real time    0.1680
       DOS:  cpu time    0.0029: real time    0.0014
    CHARGE:  cpu time   35.1284: real time   32.2564
    MIXING:  cpu time    0.0062: real time    0.0062
    --------------------------------------------
      LOOP:  cpu time  130.1186: real time   88.0723

 eigenvalue-minimisations  :  2640
 total energy-change (2. order) :-0.5946491E-04  (-0.1013275E-04)
 number of electron     287.9999972 magnetization      -0.0000000
 augmentation part        8.2002599 magnetization       0.0000098

 Broyden mixing:
  rms(total) = 0.18625E-02    rms(broyden)= 0.18625E-02
  rms(prec ) = 0.19299E-02
  weight for this iteration     100.00

 eigenvalues of (default mixing * dielectric matrix)
  average eigenvalue GAMMA=   1.6009
  2.4590  1.0044  1.3391

 Free energy of the ion-electron system (eV)
  ---------------------------------------------------
  alpha Z        PSCENC =        66.74861214
  Ewald energy   TEWEN  =     92052.63332070
  -Hartree energ DENC   =   -102345.10589209
  -exchange      EXHF   =         0.00000000
  -V(xc)+E(xc)   XCENC  =      1248.48316548
  PAW double counting   =     35139.13426237   -35266.17325625
  entropy T*S    EENTRO =        -0.00000000
  eigenvalues    EBANDS =     -3904.10806686
  atomic energy  EATOM  =     12085.42833786
  Solvation  Ediel_sol  =       223.35777275
  ---------------------------------------------------
  free energy    TOTEN  =      -699.60174391 eV

  energy without entropy =     -699.60174391  energy(sigma->0) =     -699.60174391


--------------------------------------------------------------------------------------------------------




--------------------------------------- Iteration      1(   5)  ---------------------------------------


    POTLOK:  cpu time   14.4650: real time   14.5042
    SETDIJ:  cpu time    0.5958: real time    0.3995
    EDDIAG:  cpu time   11.8637: real time    6.0119
  RMM-DIIS:  cpu time   61.3642: real time   30.8595
    ORTHCH:  cpu time    0.3341: real time    0.1679
       DOS:  cpu time    0.0028: real time    0.0014
    CHARGE:  cpu time   35.0886: real time   32.2168
    MIXING:  cpu time    0.0065: real time    0.0065
    --------------------------------------------
      LOOP:  cpu time  123.7206: real time   84.1676

 eigenvalue-minimisations  :  2359
 total energy-change (2. order) : 0.4051052E-04  (-0.4067496E-05)
 number of electron     287.9999972 magnetization      -0.0000000
 augmentation part        8.2011140 magnetization       0.0000070

 Broyden mixing:
  rms(total) = 0.34949E-03    rms(broyden)= 0.34915E-03
  rms(prec ) = 0.43238E-03
  weight for this iteration     100.00

 eigenvalues of (default mixing * dielectric matrix)
  average eigenvalue GAMMA=   1.5332
  1.7992  1.7992  1.6492  0.8851

 Free energy of the ion-electron system (eV)
  ---------------------------------------------------
  alpha Z        PSCENC =        66.74861214
  Ewald energy   TEWEN  =     92052.63332070
  -Hartree energ DENC   =   -102344.83184305
  -exchange      EXHF   =         0.00000000
  -V(xc)+E(xc)   XCENC  =      1248.46440833
  PAW double counting   =     35139.41566074   -35266.45337602
  entropy T*S    EENTRO =        -0.00000000
  eigenvalues    EBANDS =     -3904.35865309
  atomic energy  EATOM  =     12085.42833786
  Solvation  Ediel_sol  =       223.35182898
  ---------------------------------------------------
  free energy    TOTEN  =      -699.60170340 eV

  energy without entropy =     -699.60170340  energy(sigma->0) =     -699.60170340


--------------------------------------------------------------------------------------------------------




--------------------------------------- Iteration      1(   6)  ---------------------------------------


    POTLOK:  cpu time   14.7834: real time   14.8202
    SETDIJ:  cpu time    0.5975: real time    0.4012
    EDDIAG:  cpu time   11.8860: real time    6.0236
  RMM-DIIS:  cpu time   51.7601: real time   25.9663
    ORTHCH:  cpu time    0.3315: real time    0.1666
       DOS:  cpu time    0.0029: real time    0.0014
    CHARGE:  cpu time   35.1180: real time   32.2518
    MIXING:  cpu time    0.0071: real time    0.0071
    --------------------------------------------
      LOOP:  cpu time  114.4866: real time   79.6383

 eigenvalue-minimisations  :  1802
 total energy-change (2. order) :-0.2805199E-04  (-0.9299911E-06)
 number of electron     287.9999972 magnetization      -0.0000000
 augmentation part        8.2012724 magnetization       0.0000078

 Broyden mixing:
  rms(total) = 0.34045E-03    rms(broyden)= 0.34037E-03
  rms(prec ) = 0.39203E-03
  weight for this iteration     100.00

 eigenvalues of (default mixing * dielectric matrix)
  average eigenvalue GAMMA=   1.7006
  2.7672  2.7672  1.1276  1.1276  0.7133

 Free energy of the ion-electron system (eV)
  ---------------------------------------------------
  alpha Z        PSCENC =        66.74861214
  Ewald energy   TEWEN  =     92052.63332070
  -Hartree energ DENC   =   -102344.56148390
  -exchange      EXHF   =         0.00000000
  -V(xc)+E(xc)   XCENC  =      1248.46565897
  PAW double counting   =     35139.57961970   -35266.61875911
  entropy T*S    EENTRO =        -0.00000000
  eigenvalues    EBANDS =     -3904.49942963
  atomic energy  EATOM  =     12085.42833786
  Solvation  Ediel_sol  =       223.22239181
  ---------------------------------------------------
  free energy    TOTEN  =      -699.60173145 eV

  energy without entropy =     -699.60173145  energy(sigma->0) =     -699.60173145


--------------------------------------------------------------------------------------------------------




--------------------------------------- Iteration      1(   7)  ---------------------------------------


    POTLOK:  cpu time   14.8365: real time   14.8774
    SETDIJ:  cpu time    0.5971: real time    0.4008
    EDDIAG:  cpu time   11.8484: real time    6.0065
  RMM-DIIS:  cpu time   51.2606: real time   25.7396
    ORTHCH:  cpu time    0.3332: real time    0.1675
       DOS:  cpu time    0.0029: real time    0.0014
    CHARGE:  cpu time   35.2031: real time   32.3249
    MIXING:  cpu time    0.0072: real time    0.0072
    --------------------------------------------
      LOOP:  cpu time  114.0891: real time   79.5254

 eigenvalue-minimisations  :  1776
 total energy-change (2. order) :-0.3923907E-04  (-0.6260337E-06)
 number of electron     287.9999972 magnetization      -0.0000000
 augmentation part        8.2012429 magnetization      -0.0000032

 Broyden mixing:
  rms(total) = 0.16773E-03    rms(broyden)= 0.16769E-03
  rms(prec ) = 0.20891E-03
  weight for this iteration     100.00

 eigenvalues of (default mixing * dielectric matrix)
  average eigenvalue GAMMA=   1.5504
  2.7626  2.7626  1.2176  0.9509  0.9509  0.6580

 Free energy of the ion-electron system (eV)
  ---------------------------------------------------
  alpha Z        PSCENC =        66.74861214
  Ewald energy   TEWEN  =     92052.63332070
  -Hartree energ DENC   =   -102344.25936766
  -exchange      EXHF   =         0.00000000
  -V(xc)+E(xc)   XCENC  =      1248.46205197
  PAW double counting   =     35139.13924211   -35266.17908866
  entropy T*S    EENTRO =        -0.00000000
  eigenvalues    EBANDS =     -3904.68331842
  atomic energy  EATOM  =     12085.42833786
  Solvation  Ediel_sol  =       223.10843928
  ---------------------------------------------------
  free energy    TOTEN  =      -699.60177069 eV

  energy without entropy =     -699.60177069  energy(sigma->0) =     -699.60177069


--------------------------------------------------------------------------------------------------------




--------------------------------------- Iteration      1(   8)  ---------------------------------------


    POTLOK:  cpu time   14.2340: real time   14.2710
    SETDIJ:  cpu time    0.5945: real time    0.3981
    EDDIAG:  cpu time   11.8447: real time    5.9993
  RMM-DIIS:  cpu time   51.3541: real time   25.7698
    ORTHCH:  cpu time    0.3322: real time    0.1670
       DOS:  cpu time    0.0029: real time    0.0015
    CHARGE:  cpu time   35.1575: real time   32.2764
    MIXING:  cpu time    0.0076: real time    0.0077
    --------------------------------------------
      LOOP:  cpu time  113.5276: real time   78.8908

 eigenvalue-minimisations  :  1776
 total energy-change (2. order) :-0.1394154E-04  (-0.2932975E-06)
 number of electron     287.9999972 magnetization      -0.0000000
 augmentation part        8.2012517 magnetization       0.0000011

 Broyden mixing:
  rms(total) = 0.11288E-03    rms(broyden)= 0.11286E-03
  rms(prec ) = 0.15467E-03
  weight for this iteration     100.00

 eigenvalues of (default mixing * dielectric matrix)
  average eigenvalue GAMMA=   1.7010
  3.0064  3.0064  1.9666  1.2273  1.2273  0.8524  0.6211

 Free energy of the ion-electron system (eV)
  ---------------------------------------------------
  alpha Z        PSCENC =        66.74861214
  Ewald energy   TEWEN  =     92052.63332070
  -Hartree energ DENC   =   -102344.16733449
  -exchange      EXHF   =         0.00000000
  -V(xc)+E(xc)   XCENC  =      1248.46082149
  PAW double counting   =     35139.08459591   -35266.12418283
  entropy T*S    EENTRO =        -0.00000000
  eigenvalues    EBANDS =     -3904.72204436
  atomic energy  EATOM  =     12085.42833786
  Solvation  Ediel_sol  =       223.05608895
  ---------------------------------------------------
  free energy    TOTEN  =      -699.60178463 eV

  energy without entropy =     -699.60178463  energy(sigma->0) =     -699.60178463


--------------------------------------------------------------------------------------------------------




--------------------------------------- Iteration      1(   9)  ---------------------------------------


    POTLOK:  cpu time   14.4331: real time   14.4699
    SETDIJ:  cpu time    0.5965: real time    0.4002
    EDDIAG:  cpu time   11.8705: real time    6.0120
  RMM-DIIS:  cpu time   53.4052: real time   26.7686
    ORTHCH:  cpu time    0.3341: real time    0.1675
       DOS:  cpu time    0.0028: real time    0.0014
    CHARGE:  cpu time   35.1361: real time   32.2466
    MIXING:  cpu time    0.0080: real time    0.0080
    --------------------------------------------
      LOOP:  cpu time  115.7864: real time   80.0743

 eigenvalue-minimisations  :  1881
 total energy-change (2. order) :-0.4532553E-04  (-0.8654807E-06)
 number of electron     287.9999972 magnetization      -0.0000000
 augmentation part        8.2012405 magnetization      -0.0000015

 Broyden mixing:
  rms(total) = 0.53784E-04    rms(broyden)= 0.53752E-04
  rms(prec ) = 0.70266E-04
  weight for this iteration     100.00

 eigenvalues of (default mixing * dielectric matrix)
  average eigenvalue GAMMA=   1.8699
  5.0774  3.0792  2.1119  1.1984  1.1984  0.9707  0.7181  0.6052

 Free energy of the ion-electron system (eV)
  ---------------------------------------------------
  alpha Z        PSCENC =        66.74861214
  Ewald energy   TEWEN  =     92052.63332070
  -Hartree energ DENC   =   -102343.85962677
  -exchange      EXHF   =         0.00000000
  -V(xc)+E(xc)   XCENC  =      1248.45880749
  PAW double counting   =     35139.24969897   -35266.28906472
  entropy T*S    EENTRO =        -0.00000000
  eigenvalues    EBANDS =     -3904.78974915
  atomic energy  EATOM  =     12085.42833786
  Solvation  Ediel_sol  =       222.81783354
  ---------------------------------------------------
  free energy    TOTEN  =      -699.60182996 eV

  energy without entropy =     -699.60182996  energy(sigma->0) =     -699.60182996


--------------------------------------------------------------------------------------------------------




--------------------------------------- Iteration      1(  10)  ---------------------------------------


    POTLOK:  cpu time   14.0012: real time   14.0380
    SETDIJ:  cpu time    0.5966: real time    0.4004
    EDDIAG:  cpu time   11.8528: real time    6.0049
  RMM-DIIS:  cpu time   51.0477: real time   25.5952
    ORTHCH:  cpu time    0.3342: real time    0.1675
       DOS:  cpu time    0.0028: real time    0.0014
    CHARGE:  cpu time   35.2051: real time   32.2999
    MIXING:  cpu time    0.0078: real time    0.0079
    --------------------------------------------
      LOOP:  cpu time  113.0482: real time   78.5151

 eigenvalue-minimisations  :  1756
 total energy-change (2. order) :-0.1053463E-04  (-0.1806084E-06)
 number of electron     287.9999972 magnetization      -0.0000000
 augmentation part        8.2012442 magnetization      -0.0000009

 Broyden mixing:
  rms(total) = 0.58421E-04    rms(broyden)= 0.58402E-04
  rms(prec ) = 0.68144E-04
  weight for this iteration     100.00

 eigenvalues of (default mixing * dielectric matrix)
  average eigenvalue GAMMA=   1.8329
  5.4228  3.0373  2.0486  1.4196  1.1857  1.1857  0.8996  0.6911  0.6057

 Free energy of the ion-electron system (eV)
  ---------------------------------------------------
  alpha Z        PSCENC =        66.74861214
  Ewald energy   TEWEN  =     92052.63332070
  -Hartree energ DENC   =   -102343.79487487
  -exchange      EXHF   =         0.00000000
  -V(xc)+E(xc)   XCENC  =      1248.45841219
  PAW double counting   =     35139.26472875   -35266.30418065
  entropy T*S    EENTRO =        -0.00000000
  eigenvalues    EBANDS =     -3904.79737313
  atomic energy  EATOM  =     12085.42833786
  Solvation  Ediel_sol  =       222.76117652
  ---------------------------------------------------
  free energy    TOTEN  =      -699.60184049 eV

  energy without entropy =     -699.60184049  energy(sigma->0) =     -699.60184049


--------------------------------------------------------------------------------------------------------




--------------------------------------- Iteration      1(  11)  ---------------------------------------


    POTLOK:  cpu time   13.6601: real time   13.6925
    SETDIJ:  cpu time    0.5959: real time    0.3996
    EDDIAG:  cpu time   11.8572: real time    6.0057
  RMM-DIIS:  cpu time   50.7891: real time   25.6874
    ORTHCH:  cpu time    0.3310: real time    0.1664
       DOS:  cpu time    0.0029: real time    0.0015
    CHARGE:  cpu time   35.1912: real time   32.2862
    MIXING:  cpu time    0.0117: real time    0.0117
    --------------------------------------------
      LOOP:  cpu time  112.4390: real time   78.2508

 eigenvalue-minimisations  :  1630
 total energy-change (2. order) :-0.1123197E-04  (-0.1044828E-06)
 number of electron     287.9999972 magnetization      -0.0000000
 augmentation part        8.2012595 magnetization       0.0000018

 Broyden mixing:
  rms(total) = 0.25580E-04    rms(broyden)= 0.25559E-04
  rms(prec ) = 0.33436E-04
  weight for this iteration     100.00

 eigenvalues of (default mixing * dielectric matrix)
  average eigenvalue GAMMA=   2.0011
  6.3543  3.5103  2.3052  2.3052  1.2376  1.2376  0.9572  0.8421  0.6078  0.6542

 Free energy of the ion-electron system (eV)
  ---------------------------------------------------
  alpha Z        PSCENC =        66.74861214
  Ewald energy   TEWEN  =     92052.63332070
  -Hartree energ DENC   =   -102343.74334561
  -exchange      EXHF   =         0.00000000
  -V(xc)+E(xc)   XCENC  =      1248.45821081
  PAW double counting   =     35139.22331023   -35266.26294831
  entropy T*S    EENTRO =        -0.00000000
  eigenvalues    EBANDS =     -3904.79341046
  atomic energy  EATOM  =     12085.42833786
  Solvation  Ediel_sol  =       222.70606091
  ---------------------------------------------------
  free energy    TOTEN  =      -699.60185172 eV

  energy without entropy =     -699.60185172  energy(sigma->0) =     -699.60185172


--------------------------------------------------------------------------------------------------------




--------------------------------------- Iteration      1(  12)  ---------------------------------------


    POTLOK:  cpu time   13.9344: real time   13.9698
    SETDIJ:  cpu time    0.5961: real time    0.3998
    EDDIAG:  cpu time   11.8357: real time    5.9949
  RMM-DIIS:  cpu time   48.7793: real time   24.4510
    ORTHCH:  cpu time    0.3328: real time    0.1668
       DOS:  cpu time    0.0029: real time    0.0014
    --------------------------------------------
      LOOP:  cpu time   75.4812: real time   44.9837

 eigenvalue-minimisations  :  1627
 total energy-change (2. order) :-0.7216011E-05  (-0.9538522E-07)
 number of electron     287.9999972 magnetization      -0.0000000
 augmentation part        8.2012595 magnetization       0.0000018

 Free energy of the ion-electron system (eV)
  ---------------------------------------------------
  alpha Z        PSCENC =        66.74861214
  Ewald energy   TEWEN  =     92052.63332070
  -Hartree energ DENC   =   -102343.69217914
  -exchange      EXHF   =         0.00000000
  -V(xc)+E(xc)   XCENC  =      1248.45819069
  PAW double counting   =     35139.23177783   -35266.27148619
  entropy T*S    EENTRO =        -0.00000000
  eigenvalues    EBANDS =     -3904.78737996
  atomic energy  EATOM  =     12085.42833786
  Solvation  Ediel_sol  =       222.64894713
  ---------------------------------------------------
  free energy    TOTEN  =      -699.60185894 eV

  energy without entropy =     -699.60185894  energy(sigma->0) =     -699.60185894


--------------------------------------------------------------------------------------------------------




 average (electrostatic) potential at core
  the test charge radii are     0.7672  0.7089
  (the norm of the test charge is              1.0000)
       1 -38.5139       2 -38.5139       3 -38.5139       4 -38.5139       5 -38.5139
       6 -38.5139       7 -38.5139       8 -38.5139       9 -38.5139      10 -38.5139
      11 -38.5139      12 -38.5139      13 -38.5139      14 -38.5139      15 -38.5139
      16 -38.5139      17 -38.5139      18 -38.5139      19 -38.5139      20 -38.5139
      21 -38.5139      22 -38.5139      23 -38.5139      24 -38.5139      25 -38.5139
      26 -38.5139      27 -38.5139      28 -38.5139      29 -38.5139      30 -38.5139
      31 -38.5139      32 -38.5139      33 -38.5139      34 -38.5139      35 -38.5139
      36 -38.5139      37 -76.0687      38 -76.0687      39 -76.0687      40 -76.0687
      41 -76.0687      42 -76.0687      43 -76.0687      44 -76.0687      45 -76.0687
      46 -76.0687      47 -76.0687      48 -76.0687      49 -76.0687      50 -76.0687
      51 -76.0687      52 -76.0687      53 -76.0687      54 -76.0687      55 -76.0687
      56 -76.0687      57 -76.0687      58 -76.0687      59 -76.0687      60 -76.0687
      61 -76.0687      62 -76.0687      63 -76.0687      64 -76.0687      65 -76.0687
      66 -76.0687      67 -76.0687      68 -76.0687      69 -76.0687      70 -76.0687
      71 -76.0687      72 -76.0687
 
 
 
 E-fermi :  -5.8408     XC(G=0):  -1.1824     alpha+bet : -1.0310


 spin component 1

 k-point     1 :       0.0000    0.0000    0.0000
  band No.  band energies     occupation 
      1     -24.7485      1.00000
      2     -24.2030      1.00000
      3     -24.2030      1.00000
      4     -24.2030      1.00000
      5     -24.2030      1.00000
      6     -24.2030      1.00000
      7     -24.2030      1.00000
      8     -23.1891      1.00000
      9     -23.1891      1.00000
     10     -23.1891      1.00000
     11     -23.1891      1.00000
     12     -23.1890      1.00000
     13     -23.1890      1.00000
     14     -22.7490      1.00000
     15     -22.7490      1.00000
     16     -22.7490      1.00000
     17     -22.7490      1.00000
     18     -22.7490      1.00000
     19     -22.7490      1.00000
     20     -21.6891      1.00000
     21     -21.6891      1.00000
     22     -21.6891      1.00000
     23     -21.6891      1.00000
     24     -21.6891      1.00000
     25     -21.6891      1.00000
     26     -21.6891      1.00000
     27     -21.6891      1.00000
     28     -21.6891      1.00000
     29     -21.6891      1.00000
     30     -21.6891      1.00000
     31     -21.6891      1.00000
     32     -21.6016      1.00000
     33     -21.6015      1.00000
     34     -21.6015      1.00000
     35     -21.0231      1.00000
     36     -21.0231      1.00000
     37     -15.3055      1.00000
     38     -15.3055      1.00000
     39     -15.3055      1.00000
     40     -14.4507      1.00000
     41     -14.4507      1.00000
     42     -14.4507      1.00000
     43     -14.4507      1.00000
     44     -14.4507      1.00000
     45     -14.4507      1.00000
     46     -14.4507      1.00000
     47     -14.4507      1.00000
     48     -14.4507      1.00000
     49     -14.4507      1.00000
     50     -14.4507      1.00000
     51     -14.4507      1.00000
     52     -14.1889      1.00000
     53     -14.1889      1.00000
     54     -13.5831      1.00000
     55     -13.5831      1.00000
     56     -13.2423      1.00000
     57     -13.2423      1.00000
     58     -13.2422      1.00000
     59     -13.2422      1.00000
     60     -13.2422      1.00000
     61     -13.2422      1.00000
     62     -11.8360      1.00000
     63     -11.8360      1.00000
     64     -11.8359      1.00000
     65     -11.8359      1.00000
     66     -11.8359      1.00000
     67     -11.8359      1.00000
     68     -11.5789      1.00000
     69     -11.5789      1.00000
     70     -11.5789      1.00000
     71     -11.5789      1.00000
     72     -11.5789      1.00000
     73     -11.5789      1.00000
     74     -11.5789      1.00000
     75     -11.5789      1.00000
     76     -11.5789      1.00000
     77     -11.5789      1.00000
     78     -11.5789      1.00000
     79     -11.5789      1.00000
     80     -11.4387      1.00000
     81     -10.7039      1.00000
     82     -10.7039      1.00000
     83     -10.7039      1.00000
     84     -10.7039      1.00000
     85     -10.7039      1.00000
     86     -10.7039      1.00000
     87     -10.3483      1.00000
     88     -10.3483      1.00000
     89     -10.3483      1.00000
     90     -10.1253      1.00000
     91     -10.1253      1.00000
     92     -10.1253      1.00000
     93     -10.1253      1.00000
     94     -10.1253      1.00000
     95     -10.1253      1.00000
     96      -9.7746      1.00000
     97      -9.7746      1.00000
     98      -9.7745      1.00000
     99      -9.7745      1.00000
    100      -9.7745      1.00000
    101      -9.7745      1.00000
    102      -9.5245      1.00000
    103      -9.5245      1.00000
    104      -9.5244      1.00000
    105      -9.5244      1.00000
    106      -9.5244      1.00000
    107      -9.5244      1.00000
    108      -9.3173      1.00000
    109      -9.3173      1.00000
    110      -9.3173      1.00000
    111      -9.3173      1.00000
    112      -9.3173      1.00000
    113      -9.3173      1.00000
    114      -8.6988      1.00000
    115      -8.6988      1.00000
    116      -8.6988      1.00000
    117      -8.6988      1.00000
    118      -8.6988      1.00000
    119      -8.6988      1.00000
    120      -8.3704      1.00000
    121      -8.3704      1.00000
    122      -8.3704      1.00000
    123      -8.3704      1.00000
    124      -8.3704      1.00000
    125      -8.3704      1.00000
    126      -7.4540      1.00000
    127      -7.4540      1.00000
    128      -7.1483      1.00000
    129      -7.1483      1.00000
    130      -7.1483      1.00000
    131      -7.1483      1.00000
    132      -7.1483      1.00000
    133      -7.1483      1.00000
    134      -7.1483      1.00000
    135      -7.1483      1.00000
    136      -7.1483      1.00000
    137      -7.1483      1.00000
    138      -7.1483      1.00000
    139      -7.1483      1.00000
    140      -6.9897      1.00000
    141      -6.9896      1.00000
    142      -6.9896      1.00000
    143      -6.0804      1.00000
    144      -6.0804      1.00000
    145      -0.9450      0.00000
    146      -0.7818      0.00000
    147      -0.7818      0.00000
    148      -0.7187      0.00000
    149      -0.7187      0.00000
    150      -0.7187      0.00000
    151      -0.1959      0.00000
    152      -0.1200      0.00000
    153      -0.0425      0.00000
    154      -0.0425      0.00000
    155      -0.0425      0.00000
    156      -0.0425      0.00000
    157      -0.0425      0.00000
    158      -0.0425      0.00000
    159      -0.0017      0.00000
    160      -0.0017      0.00000
    161      -0.0017      0.00000
    162      -0.0017      0.00000
    163      -0.0017      0.00000
    164      -0.0017      0.00000
    165      -0.0017      0.00000
    166      -0.0017      0.00000
    167      -0.0017      0.00000
    168      -0.0017      0.00000
    169      -0.0017      0.00000
    170      -0.0017      0.00000
    171       0.1328      0.00000
    172       0.2537      0.00000
    173       0.6639      0.00000
    174       0.6639      0.00000
    175       0.6640      0.00000
    176       0.6640      0.00000
    177       0.6640      0.00000
    178       0.6639      0.00000
    179       0.7615      0.00000
    180       0.7629      0.00000
    181       0.7630      0.00000
    182       0.7629      0.00000
    183       0.7629      0.00000
    184       0.7630      0.00000
    185       0.7630      0.00000
    186       0.9220      0.00000
    187       1.0022      0.00000
    188       1.0021      0.00000
    189       1.0022      0.00000
    190       1.0021      0.00000
    191       1.0022      0.00000
    192       1.0022      0.00000
    193       1.1379      0.00000
    194       1.1379      0.00000
    195       1.1379      0.00000
    196       1.1379      0.00000
    197       1.1379      0.00000
    198       1.1379      0.00000
    199       1.5964      0.00000
    200       1.5964      0.00000
    201       1.5965      0.00000
    202       1.5966      0.00000
    203       1.5966      0.00000
    204       1.5971      0.00000
    205       1.6238      0.00000
    206       1.6238      0.00000
    207       1.6238      0.00000
    208       1.6238      0.00000
    209       1.6239      0.00000
    210       1.6240      0.00000
    211       1.6608      0.00000
    212       1.7101      0.00000
    213       1.7109      0.00000
    214       1.7116      0.00000
    215       1.7230      0.00000
    216       1.7288      0.00000
    217       1.7381      0.00000
    218       1.8074      0.00000
    219       1.8085      0.00000
    220       1.8303      0.00000

 k-point     2 :       0.3333    0.0000    0.0000
  band No.  band energies     occupation 
      1     -24.6869      1.00000
      2     -24.5033      1.00000
      3     -24.3222      1.00000
      4     -24.3222      1.00000
      5     -23.9681      1.00000
      6     -23.9681      1.00000
      7     -23.7959      1.00000
      8     -23.6253      1.00000
      9     -23.6253      1.00000
     10     -23.3002      1.00000
     11     -23.1384      1.00000
     12     -23.1384      1.00000
     13     -22.9890      1.00000
     14     -22.9890      1.00000
     15     -22.6849      1.00000
     16     -22.6848      1.00000
     17     -22.4337      1.00000
     18     -22.4337      1.00000
     19     -22.2036      1.00000
     20     -22.1583      1.00000
     21     -22.1583      1.00000
     22     -22.0678      1.00000
     23     -22.0678      1.00000
     24     -21.7722      1.00000
     25     -21.7136      1.00000
     26     -21.7136      1.00000
     27     -21.6505      1.00000
     28     -21.6505      1.00000
     29     -21.6156      1.00000
     30     -21.6156      1.00000
     31     -21.3978      1.00000
     32     -21.3978      1.00000
     33     -21.3495      1.00000
     34     -21.3495      1.00000
     35     -21.1101      1.00000
     36     -21.1100      1.00000
     37     -15.1972      1.00000
     38     -15.1972      1.00000
     39     -15.0298      1.00000
     40     -14.9009      1.00000
     41     -14.9009      1.00000
     42     -14.8910      1.00000
     43     -14.8910      1.00000
     44     -14.5186      1.00000
     45     -14.5185      1.00000
     46     -14.3814      1.00000
     47     -14.3814      1.00000
     48     -14.2881      1.00000
     49     -14.1915      1.00000
     50     -14.1915      1.00000
     51     -14.0434      1.00000
     52     -14.0434      1.00000
     53     -13.7750      1.00000
     54     -13.7750      1.00000
     55     -13.6849      1.00000
     56     -13.6849      1.00000
     57     -13.1743      1.00000
     58     -13.1743      1.00000
     59     -12.7680      1.00000
     60     -12.7680      1.00000
     61     -12.6487      1.00000
     62     -12.6487      1.00000
     63     -12.4237      1.00000
     64     -12.4236      1.00000
     65     -12.0984      1.00000
     66     -12.0984      1.00000
     67     -12.0860      1.00000
     68     -12.0860      1.00000
     69     -12.0286      1.00000
     70     -11.7394      1.00000
     71     -11.7394      1.00000
     72     -11.3559      1.00000
     73     -11.2554      1.00000
     74     -11.2554      1.00000
     75     -11.1091      1.00000
     76     -10.9771      1.00000
     77     -10.9771      1.00000
     78     -10.9689      1.00000
     79     -10.9689      1.00000
     80     -10.8650      1.00000
     81     -10.8650      1.00000
     82     -10.7688      1.00000
     83     -10.7688      1.00000
     84     -10.7661      1.00000
     85     -10.7661      1.00000
     86     -10.7544      1.00000
     87     -10.5193      1.00000
     88     -10.5193      1.00000
     89     -10.3854      1.00000
     90     -10.3854      1.00000
     91     -10.2825      1.00000
     92     -10.1898      1.00000
     93     -10.1898      1.00000
     94     -10.1509      1.00000
     95     -10.1273      1.00000
     96     -10.1272      1.00000
     97     -10.0879      1.00000
     98      -9.9672      1.00000
     99      -9.9671      1.00000
    100      -9.9180      1.00000
    101      -9.9180      1.00000
    102      -9.7540      1.00000
    103      -9.7539      1.00000
    104      -9.4701      1.00000
    105      -9.4081      1.00000
    106      -9.4081      1.00000
    107      -9.3609      1.00000
    108      -9.2466      1.00000
    109      -9.2466      1.00000
    110      -9.0772      1.00000
    111      -9.0772      1.00000
    112      -9.0373      1.00000
    113      -9.0373      1.00000
    114      -8.8771      1.00000
    115      -8.7694      1.00000
    116      -8.7694      1.00000
    117      -8.6115      1.00000
    118      -8.6115      1.00000
    119      -8.4634      1.00000
    120      -8.2518      1.00000
    121      -8.2518      1.00000
    122      -8.2485      1.00000
    123      -8.2485      1.00000
    124      -7.9115      1.00000
    125      -7.9084      1.00000
    126      -7.8538      1.00000
    127      -7.8538      1.00000
    128      -7.7232      1.00000
    129      -7.7159      1.00000
    130      -7.7159      1.00000
    131      -7.5762      1.00000
    132      -7.2593      1.00000
    133      -7.1917      1.00000
    134      -7.1917      1.00000
    135      -7.0792      1.00000
    136      -7.0792      1.00000
    137      -7.0156      1.00000
    138      -7.0156      1.00000
    139      -6.6858      1.00000
    140      -6.6858      1.00000
    141      -6.6185      1.00000
    142      -6.6185      1.00000
    143      -6.2272      1.00000
    144      -6.2272      1.00000
    145      -0.8410      0.00000
    146      -0.6840      0.00000
    147      -0.6840      0.00000
    148      -0.6136      0.00000
    149      -0.6136      0.00000
    150      -0.5728      0.00000
    151      -0.5728      0.00000
    152      -0.5361      0.00000
    153      -0.4107      0.00000
    154      -0.4107      0.00000
    155      -0.3594      0.00000
    156      -0.3375      0.00000
    157      -0.3375      0.00000
    158      -0.2368      0.00000
    159      -0.2368      0.00000
    160      -0.0997      0.00000
    161      -0.0218      0.00000
    162       0.1882      0.00000
    163       0.2298      0.00000
    164       0.2338      0.00000
    165       0.2338      0.00000
    166       0.2725      0.00000
    167       0.3487      0.00000
    168       0.3487      0.00000
    169       0.3523      0.00000
    170       0.4745      0.00000
    171       0.4745      0.00000
    172       0.5044      0.00000
    173       0.5044      0.00000
    174       0.5201      0.00000
    175       0.5360      0.00000
    176       0.5669      0.00000
    177       0.5669      0.00000
    178       0.6316      0.00000
    179       0.6474      0.00000
    180       0.8097      0.00000
    181       0.8097      0.00000
    182       0.8579      0.00000
    183       0.8833      0.00000
    184       0.8833      0.00000
    185       0.9351      0.00000
    186       0.9352      0.00000
    187       0.9421      0.00000
    188       0.9421      0.00000
    189       1.0212      0.00000
    190       1.0385      0.00000
    191       1.0385      0.00000
    192       1.0624      0.00000
    193       1.0625      0.00000
    194       1.1464      0.00000
    195       1.1552      0.00000
    196       1.1552      0.00000
    197       1.3117      0.00000
    198       1.3172      0.00000
    199       1.3852      0.00000
    200       1.3853      0.00000
    201       1.4335      0.00000
    202       1.4335      0.00000
    203       1.4492      0.00000
    204       1.4797      0.00000
    205       1.5299      0.00000
    206       1.5299      0.00000
[...]
   0.141E-03 -.501E-03 -.288E-09   -.783E-09 0.777E-03 -.240E-17   0.800E-19 0.152E-19 0.349E-24   -.161E-09 -.180E-09 0.520E-12
   -.305E-02 0.482E-03 -.272E-10   -.246E-10 -.777E-03 -.317E-17   -.445E-20 -.509E-18 -.439E-24   0.116E-08 0.628E-09 0.884E-12
   -.305E-02 0.482E-03 -.269E-10   0.216E-09 -.777E-03 -.962E-18   0.110E-18 -.357E-18 -.414E-23   0.116E-08 0.628E-09 0.884E-12
   -.305E-02 0.482E-03 -.253E-10   -.110E-08 -.777E-03 0.759E-18   -.102E-18 -.317E-18 0.414E-23   0.116E-08 0.628E-09 0.884E-12
   -.305E-02 0.482E-03 -.292E-10   -.246E-10 -.777E-03 0.117E-18   -.184E-19 -.289E-18 -.362E-24   0.116E-08 0.628E-09 0.885E-12
   -.305E-02 0.482E-03 -.348E-10   0.216E-09 -.777E-03 -.170E-17   0.119E-18 -.792E-19 0.905E-24   0.116E-08 0.628E-09 0.884E-12
   -.305E-02 0.482E-03 -.310E-10   -.110E-08 -.777E-03 -.456E-17   -.119E-19 -.401E-18 0.171E-23   0.116E-08 0.628E-09 0.884E-12
   -.305E-02 0.482E-03 -.442E-11   0.111E-08 -.777E-03 -.249E-17   0.177E-18 -.401E-18 -.362E-23   0.116E-08 0.628E-09 0.879E-12
   -.305E-02 0.482E-03 -.109E-10   0.135E-08 -.777E-03 0.973E-18   0.843E-19 -.541E-18 -.266E-23   0.116E-08 0.628E-09 0.879E-12
   -.305E-02 0.482E-03 -.754E-11   0.345E-10 -.777E-03 0.177E-17   -.584E-19 -.244E-18 -.429E-23   0.116E-08 0.628E-09 0.878E-12
   -.305E-02 0.482E-03 -.553E-11   0.111E-08 -.777E-03 0.157E-17   0.803E-19 -.519E-18 0.209E-23   0.116E-08 0.628E-09 0.878E-12
   -.305E-02 0.482E-03 -.344E-11   0.135E-08 -.777E-03 -.135E-17   0.868E-20 -.143E-18 -.173E-23   0.116E-08 0.628E-09 0.878E-12
   -.305E-02 0.482E-03 -.372E-11   0.345E-10 -.777E-03 -.326E-17   0.995E-19 0.222E-18 -.111E-23   0.116E-08 0.628E-09 0.879E-12
   -.305E-02 0.482E-03 -.341E-10   -.220E-09 -.777E-03 -.172E-17   -.125E-19 -.250E-19 0.253E-23   0.116E-08 0.628E-09 0.877E-12
   -.305E-02 0.482E-03 -.344E-10   0.205E-10 -.777E-03 0.218E-17   0.139E-18 -.544E-18 0.775E-24   0.116E-08 0.628E-09 0.876E-12
   -.305E-02 0.482E-03 -.335E-10   -.130E-08 -.777E-03 0.369E-17   0.942E-19 -.587E-18 -.724E-24   0.116E-08 0.628E-09 0.876E-12
   -.305E-02 0.482E-03 -.328E-10   -.220E-09 -.777E-03 0.255E-17   -.690E-19 -.389E-18 -.279E-23   0.116E-08 0.628E-09 0.876E-12
   -.305E-02 0.482E-03 -.285E-10   0.204E-10 -.777E-03 0.134E-18   0.754E-19 -.551E-18 0.724E-24   0.116E-08 0.628E-09 0.876E-12
   -.305E-02 0.482E-03 -.290E-10   -.130E-08 -.777E-03 -.157E-17   -.758E-19 -.229E-18 -.620E-24   0.116E-08 0.628E-09 0.877E-12
   -.305E-02 0.482E-03 -.624E-10   -.122E-10 -.777E-03 -.592E-18   0.267E-19 0.352E-19 -.119E-23   0.116E-08 0.628E-09 0.879E-12
   -.305E-02 0.482E-03 -.667E-10   0.229E-09 -.777E-03 0.278E-17   0.212E-21 -.381E-19 0.103E-24   0.116E-08 0.628E-09 0.877E-12
   -.305E-02 0.482E-03 -.663E-10   -.109E-08 -.777E-03 0.426E-17   -.847E-21 -.428E-18 0.517E-25   0.116E-08 0.628E-09 0.876E-12
   -.305E-02 0.482E-03 -.630E-10   -.122E-10 -.777E-03 0.386E-17   -.159E-19 -.431E-18 -.265E-24   0.116E-08 0.628E-09 0.877E-12
   -.305E-02 0.482E-03 -.659E-10   0.229E-09 -.777E-03 0.344E-18   -.866E-19 -.349E-18 -.362E-23   0.116E-08 0.628E-09 0.876E-12
   -.305E-02 0.482E-03 -.626E-10   -.109E-08 -.777E-03 -.182E-17   -.498E-19 -.487E-18 0.248E-23   0.116E-08 0.628E-09 0.877E-12
   -.305E-02 0.482E-03 -.323E-10   0.112E-08 -.777E-03 -.210E-17   -.544E-19 -.446E-18 0.155E-24   0.116E-08 0.628E-09 0.879E-12
   -.305E-02 0.482E-03 -.312E-10   0.136E-08 -.777E-03 0.194E-17   0.385E-19 -.196E-18 -.269E-23   0.116E-08 0.628E-09 0.880E-12
   -.305E-02 0.482E-03 -.326E-10   0.380E-10 -.777E-03 0.339E-17   0.512E-19 -.212E-18 -.517E-25   0.116E-08 0.628E-09 0.878E-12
   -.305E-02 0.482E-03 -.299E-10   0.112E-08 -.777E-03 0.213E-17   -.120E-18 -.547E-18 0.724E-24   0.116E-08 0.628E-09 0.878E-12
   -.305E-02 0.482E-03 -.302E-10   0.136E-08 -.777E-03 -.829E-20   0.127E-18 -.459E-18 -.159E-23   0.116E-08 0.628E-09 0.878E-12
   -.305E-02 0.482E-03 -.292E-10   0.380E-10 -.777E-03 -.337E-17   0.417E-19 -.356E-18 -.548E-23   0.116E-08 0.628E-09 0.878E-12
   -.305E-02 0.482E-03 -.369E-10   -.212E-09 -.777E-03 -.344E-17   0.115E-18 -.298E-18 -.569E-23   0.116E-08 0.628E-09 0.881E-12
   -.305E-02 0.482E-03 -.340E-10   0.292E-10 -.777E-03 0.432E-18   -.116E-18 -.302E-18 0.305E-23   0.116E-08 0.628E-09 0.883E-12
   -.305E-02 0.482E-03 -.264E-10   -.129E-08 -.777E-03 0.216E-17   0.116E-18 -.113E-18 -.310E-23   0.116E-08 0.628E-09 0.883E-12
   -.305E-02 0.482E-03 -.253E-10   -.212E-09 -.777E-03 0.103E-17   -.392E-19 -.212E-18 0.944E-24   0.116E-08 0.628E-09 0.884E-12
   -.305E-02 0.482E-03 -.253E-10   0.292E-10 -.777E-03 -.105E-17   -.102E-18 -.628E-18 0.517E-25   0.116E-08 0.628E-09 0.880E-12
   -.305E-02 0.482E-03 -.305E-10   -.129E-08 -.777E-03 -.374E-17   0.158E-18 -.354E-18 -.672E-24   0.116E-08 0.628E-09 0.883E-12
 -----------------------------------------------------------------------------------------------
   -.106E+00 -.113E-02 -.143E-06   -.231E-12 0.209E-12 0.308E-32   0.197E-18 -.383E-17 -.243E-22   0.359E-07 0.161E-07 0.503E-10
 
 
 POSITION                                       TOTAL-FORCE (eV/Angst)
 -----------------------------------------------------------------------------------
      1.25610     -0.72521     17.55733        -0.000000     -0.000000      0.000000
      2.51219      1.45042     17.55733        -0.000000     -0.000000      0.000000
      3.76828      3.62604     17.55733        -0.000000     -0.000000      0.000000
      5.02437      5.80167     17.55733        -0.000000     -0.000000      0.000000
      6.28046      7.97729     17.55733        -0.000000     -0.000000      0.000000
      7.53656     10.15291     17.55733        -0.000000     -0.000000     -0.000000
      2.51219     -2.90083     17.55733        -0.000000     -0.000000     -0.000000
      3.76828     -0.72521     17.55733        -0.000000     -0.000000     -0.000000
      5.02437      1.45042     17.55733        -0.000000     -0.000000      0.000000
      6.28046      3.62604     17.55733        -0.000000     -0.000000      0.000000
      7.53656      5.80167     17.55733        -0.000000     -0.000000     -0.000000
      8.79265      7.97729     17.55733        -0.000000     -0.000000      0.000000
      3.76828     -5.07646     17.55733        -0.000000     -0.000000      0.000000
      5.02437     -2.90083     17.55733        -0.000000     -0.000000     -0.000000
      6.28046     -0.72521     17.55733        -0.000000     -0.000000     -0.000000
      7.53656      1.45042     17.55733        -0.000000     -0.000000      0.000000
      8.79265      3.62604     17.55733        -0.000000     -0.000000      0.000000
     10.04874      5.80167     17.55733        -0.000000     -0.000000      0.000000
      5.02437     -7.25208     17.55733        -0.000000     -0.000000     -0.000000
      6.28046     -5.07646     17.55733        -0.000000     -0.000000      0.000000
      7.53656     -2.90083     17.55733        -0.000000     -0.000000     -0.000000
      8.79265     -0.72521     17.55733        -0.000000     -0.000000     -0.000000
     10.04874      1.45042     17.55733        -0.000000     -0.000000      0.000000
     11.30483      3.62604     17.55733        -0.000000     -0.000000      0.000000
      6.28046     -9.42771     17.55733        -0.000000     -0.000000      0.000000
      7.53656     -7.25208     17.55733        -0.000000     -0.000000      0.000000
      8.79265     -5.07646     17.55733        -0.000000     -0.000000      0.000000
     10.04874     -2.90083     17.55733        -0.000000     -0.000000     -0.000000
     11.30483     -0.72521     17.55733        -0.000000     -0.000000     -0.000000
     12.56092      1.45042     17.55733        -0.000000     -0.000000      0.000000
      7.53656    -11.60333     17.55733        -0.000000     -0.000000      0.000000
      8.79265     -9.42771     17.55733        -0.000000     -0.000000      0.000000
     10.04874     -7.25208     17.55733        -0.000000     -0.000000      0.000000
     11.30483     -5.07646     17.55733        -0.000000     -0.000000      0.000000
     12.56092     -2.90083     17.55733        -0.000000     -0.000000     -0.000000
     13.81701     -0.72521     17.55733        -0.000000     -0.000000     -0.000000
      1.25610      0.72521     17.55733        -0.000000      0.000000     -0.000000
      2.51219      2.90083     17.55733        -0.000000      0.000000     -0.000000
      3.76828      5.07646     17.55733         0.000000      0.000000     -0.000000
      5.02437      7.25208     17.55733        -0.000000      0.000000      0.000000
      6.28046      9.42771     17.55733         0.000000      0.000000      0.000000
      7.53656     11.60333     17.55733         0.000000      0.000000     -0.000000
      2.51219     -1.45042     17.55733         0.000000      0.000000      0.000000
      3.76828      0.72521     17.55733         0.000000      0.000000     -0.000000
      5.02437      2.90083     17.55733         0.000000      0.000000     -0.000000
      6.28046      5.07646     17.55733        -0.000000      0.000000     -0.000000
      7.53656      7.25208     17.55733         0.000000      0.000000      0.000000
      8.79265      9.42771     17.55733         0.000000      0.000000      0.000000
      3.76828     -3.62604     17.55733         0.000000      0.000000      0.000000
      5.02437     -1.45042     17.55733         0.000000      0.000000     -0.000000
      6.28046      0.72521     17.55733        -0.000000      0.000000     -0.000000
      7.53656      2.90083     17.55733        -0.000000      0.000000     -0.000000
      8.79265      5.07646     17.55733         0.000000      0.000000     -0.000000
     10.04874      7.25208     17.55733         0.000000      0.000000     -0.000000
      5.02437     -5.80167     17.55733         0.000000      0.000000     -0.000000
      6.28046     -3.62604     17.55733        -0.000000      0.000000      0.000000
      7.53656     -1.45042     17.55733         0.000000      0.000000     -0.000000
      8.79265      0.72521     17.55733         0.000000      0.000000     -0.000000
     10.04874      2.90083     17.55733        -0.000000      0.000000     -0.000000
     11.30483      5.07646     17.55733         0.000000      0.000000     -0.000000
      6.28046     -7.97729     17.55733         0.000000      0.000000     -0.000000
      7.53656     -5.80167     17.55733         0.000000      0.000000     -0.000000
      8.79265     -3.62604     17.55733        -0.000000      0.000000      0.000000
     10.04874     -1.45042     17.55733         0.000000      0.000000     -0.000000
     11.30483      0.72521     17.55733        -0.000000      0.000000     -0.000000
     12.56092      2.90083     17.55733        -0.000000      0.000000     -0.000000
      7.53656    -10.15291     17.55733        -0.000000      0.000000     -0.000000
      8.79265     -7.97729     17.55733         0.000000      0.000000     -0.000000
     10.04874     -5.80167     17.55733        -0.000000      0.000000     -0.000000
     11.30483     -3.62604     17.55733         0.000000      0.000000      0.000000
     12.56092     -1.45042     17.55733         0.000000      0.000000     -0.000000
     13.81701      0.72521     17.55733        -0.000000      0.000000     -0.000000
 -----------------------------------------------------------------------------------
    total drift:                               -0.106062     -0.001126     -0.000000


--------------------------------------------------------------------------------------------------------



  FREE ENERGIE OF THE ION-ELECTRON SYSTEM (eV)
  ---------------------------------------------------
  free  energy   TOTEN  =      -699.60185894 eV

  energy  without entropy=     -699.60185894  energy(sigma->0) =     -699.60185894
 


--------------------------------------------------------------------------------------------------------


    POTLOK:  cpu time   13.1247: real time   12.9559


--------------------------------------------------------------------------------------------------------




--------------------------------------------------------------------------------------------------------


  
 reached required accuracy - stopping structural energy minimisation
 writing wavefunctions
     LOOP+:  cpu time 1596.1639: real time 1119.8413
    4ORBIT:  cpu time    0.0000: real time    0.0000
 


 total charge     
 
# of ion       s       p       d       tot
------------------------------------------
    1        0.744   1.394   0.000   2.138
    2        0.744   1.394   0.000   2.138
    3        0.744   1.394   0.000   2.138
    4        0.744   1.394   0.000   2.138
    5        0.744   1.394   0.000   2.138
    6        0.744   1.394   0.000   2.138
    7        0.744   1.394   0.000   2.138
    8        0.744   1.394   0.000   2.138
    9        0.744   1.394   0.000   2.138
   10        0.744   1.394   0.000   2.138
   11        0.744   1.394   0.000   2.138
   12        0.744   1.394   0.000   2.138
   13        0.744   1.394   0.000   2.138
   14        0.744   1.394   0.000   2.138
   15        0.744   1.394   0.000   2.138
   16        0.744   1.394   0.000   2.138
   17        0.744   1.394   0.000   2.138
   18        0.744   1.394   0.000   2.138
   19        0.744   1.394   0.000   2.138
   20        0.744   1.394   0.000   2.138
   21        0.744   1.394   0.000   2.138
   22        0.744   1.394   0.000   2.138
   23        0.744   1.394   0.000   2.138
   24        0.744   1.394   0.000   2.138
   25        0.744   1.394   0.000   2.138
   26        0.744   1.394   0.000   2.138
   27        0.744   1.394   0.000   2.138
   28        0.744   1.394   0.000   2.138
   29        0.744   1.394   0.000   2.138
   30        0.744   1.394   0.000   2.138
   31        0.744   1.394   0.000   2.138
   32        0.744   1.394   0.000   2.138
   33        0.744   1.394   0.000   2.138
   34        0.744   1.394   0.000   2.138
   35        0.744   1.394   0.000   2.138
   36        0.744   1.394   0.000   2.138
   37        1.238   2.822   0.000   4.060
   38        1.238   2.822   0.000   4.060
   39        1.238   2.822   0.000   4.060
   40        1.238   2.822   0.000   4.060
   41        1.238   2.822   0.000   4.060
   42        1.238   2.822   0.000   4.060
   43        1.238   2.822   0.000   4.060
   44        1.238   2.822   0.000   4.060
   45        1.238   2.822   0.000   4.060
   46        1.238   2.822   0.000   4.060
   47        1.238   2.822   0.000   4.060
   48        1.238   2.822   0.000   4.060
   49        1.238   2.822   0.000   4.060
   50        1.238   2.822   0.000   4.060
   51        1.238   2.822   0.000   4.060
   52        1.238   2.822   0.000   4.060
   53        1.238   2.822   0.000   4.060
   54        1.238   2.822   0.000   4.060
   55        1.238   2.822   0.000   4.060
   56        1.238   2.822   0.000   4.060
   57        1.238   2.822   0.000   4.060
   58        1.238   2.822   0.000   4.060
   59        1.238   2.822   0.000   4.060
   60        1.238   2.822   0.000   4.060
   61        1.238   2.822   0.000   4.060
   62        1.238   2.822   0.000   4.060
   63        1.238   2.822   0.000   4.060
   64        1.238   2.822   0.000   4.060
   65        1.238   2.822   0.000   4.060
   66        1.238   2.822   0.000   4.060
   67        1.238   2.822   0.000   4.060
   68        1.238   2.822   0.000   4.060
   69        1.238   2.822   0.000   4.060
   70        1.238   2.822   0.000   4.060
   71        1.238   2.822   0.000   4.060
   72        1.238   2.822   0.000   4.060
--------------------------------------------------
tot         71.350 151.752   0.000 223.102
 


 magnetization (x)
 
# of ion       s       p       d       tot
------------------------------------------
    1        0.000  -0.000   0.000  -0.000
    2        0.000  -0.000   0.000  -0.000
    3        0.000  -0.000   0.000  -0.000
    4        0.000  -0.000   0.000  -0.000
    5        0.000  -0.000   0.000  -0.000
    6        0.000  -0.000   0.000  -0.000
    7        0.000  -0.000   0.000  -0.000
    8        0.000  -0.000   0.000  -0.000
    9        0.000  -0.000   0.000  -0.000
   10        0.000  -0.000   0.000  -0.000
   11        0.000  -0.000   0.000  -0.000
   12        0.000  -0.000   0.000  -0.000
   13        0.000  -0.000   0.000  -0.000
   14        0.000  -0.000   0.000  -0.000
   15        0.000  -0.000   0.000  -0.000
   16        0.000  -0.000   0.000  -0.000
   17        0.000  -0.000   0.000  -0.000
   18        0.000  -0.000   0.000  -0.000
   19        0.000  -0.000   0.000  -0.000
   20        0.000  -0.000   0.000  -0.000
   21        0.000  -0.000   0.000  -0.000
   22        0.000  -0.000   0.000  -0.000
   23        0.000  -0.000   0.000  -0.000
   24        0.000  -0.000   0.000  -0.000
   25        0.000  -0.000   0.000  -0.000
   26        0.000  -0.000   0.000  -0.000
   27        0.000  -0.000   0.000  -0.000
   28        0.000  -0.000   0.000  -0.000
   29        0.000  -0.000   0.000  -0.000
   30        0.000  -0.000   0.000  -0.000
   31        0.000  -0.000   0.000  -0.000
   32        0.000  -0.000   0.000  -0.000
   33        0.000  -0.000   0.000  -0.000
   34        0.000  -0.000   0.000  -0.000
   35        0.000  -0.000   0.000  -0.000
   36        0.000  -0.000   0.000  -0.000
   37        0.000   0.000   0.000   0.000
   38        0.000   0.000   0.000   0.000
   39        0.000   0.000   0.000   0.000
   40        0.000   0.000   0.000   0.000
   41        0.000   0.000   0.000   0.000
   42        0.000   0.000   0.000   0.000
   43        0.000   0.000   0.000   0.000
   44        0.000   0.000   0.000   0.000
   45        0.000   0.000   0.000   0.000
   46        0.000   0.000   0.000   0.000
   47        0.000   0.000   0.000   0.000
   48        0.000   0.000   0.000   0.000
   49        0.000   0.000   0.000   0.000
   50        0.000   0.000   0.000   0.000
   51        0.000   0.000   0.000   0.000
   52        0.000   0.000   0.000   0.000
   53        0.000   0.000   0.000   0.000
   54        0.000   0.000   0.000   0.000
   55        0.000   0.000   0.000   0.000
   56        0.000   0.000   0.000   0.000
   57        0.000   0.000   0.000   0.000
   58        0.000   0.000   0.000   0.000
   59        0.000   0.000   0.000   0.000
   60        0.000   0.000   0.000   0.000
   61        0.000   0.000   0.000   0.000
   62        0.000   0.000   0.000   0.000
   63        0.000   0.000   0.000   0.000
   64        0.000   0.000   0.000   0.000
   65        0.000   0.000   0.000   0.000
   66        0.000   0.000   0.000   0.000
   67        0.000   0.000   0.000   0.000
   68        0.000   0.000   0.000   0.000
   69        0.000   0.000   0.000   0.000
   70        0.000   0.000   0.000   0.000
   71        0.000   0.000   0.000   0.000
   72        0.000   0.000   0.000   0.000
--------------------------------------------------
tot          0.000   0.000   0.000   0.000
 

 total amount of memory used by VASP MPI-rank0   110877. kBytes
=======================================================================

   base      :      30000. kBytes
   nonlr-proj:       8749. kBytes
   fftplans  :      10805. kBytes
   grid      :      38967. kBytes
   one-center:         12. kBytes
   wavefun   :      22344. kBytes
 
  
  
 General timing and accounting informations for this job:
 ========================================================
  
                  Total CPU time used (sec):     2030.506
                            User time (sec):     1844.049
                          System time (sec):      186.457
                         Elapsed time (sec):     1377.051
  
                   Maximum memory used (kb):     1159308.
                   Average memory used (kb):           0.
  
                          Minor page faults:       600901
                          Major page faults:            0
                 Voluntary context switches:        13526
