 vasp.5.4.4.18Apr17-6-g9f103f2a35 (build Oct 02 2017 16:27:17) complex          
  
 executed on             LinuxIFC date 2020.04.09  02:05:01
 running on   24 total cores
 distrk:  each k-point on    6 cores,    4 groups
 distr:  one band on NCORES_PER_BAND=   1 cores,    6 groups


--------------------------------------------------------------------------------------------------------


 INCAR:
 POTCAR:    PAW_PBE B 28Sep2005                   
 POTCAR:    PAW_PBE N_GW 10Apr2007                

 ----------------------------------------------------------------------------- 
|                                                                             |
|           W    W    AA    RRRRR   N    N  II  N    N   GGGG   !!!           |
|           W    W   A  A   R    R  NN   N  II  NN   N  G    G  !!!           |
|           W    W  A    A  R    R  N N  N  II  N N  N  G       !!!           |
|           W WW W  AAAAAA  RRRRR   N  N N  II  N  N N  G  GGG   !            |
|           WW  WW  A    A  R   R   N   NN  II  N   NN  G    G                |
|           W    W  A    A  R    R  N    N  II  N    N   GGGG   !!!           |
|                                                                             |
|      For optimal performance we recommend to set                            |
|        NCORE= 4 - approx SQRT( number of cores)                             |
|      NCORE specifies how many cores store one orbital (NPAR=cpu/NCORE).     |
|      This setting can  greatly improve the performance of VASP for DFT.     |
|      The default,   NCORE=1            might be grossly inefficient         |
|      on modern multi-core architectures or massively parallel machines.     |
|      Do your own testing !!!!                                               |
|      Unfortunately you need to use the default for GW and RPA calculations. |
|      (for HF NCORE is supported but not extensively tested yet)             |
|                                                                             |
 ----------------------------------------------------------------------------- 


 ----------------------------------------------------------------------------- 
|                                                                             |
|           W    W    AA    RRRRR   N    N  II  N    N   GGGG   !!!           |
|           W    W   A  A   R    R  NN   N  II  NN   N  G    G  !!!           |
|           W    W  A    A  R    R  N N  N  II  N N  N  G       !!!           |
|           W WW W  AAAAAA  RRRRR   N  N N  II  N  N N  G  GGG   !            |
|           WW  WW  A    A  R   R   N   NN  II  N   NN  G    G                |
|           W    W  A    A  R    R  N    N  II  N    N   GGGG   !!!           |
|                                                                             |
|      You have enabled k-point parallelism (KPAR>1).                         |
|      This developmental code was originally  written by Paul Kent at ORNL,  |
|      and carefully double checked in Vienna.                                |
|      GW as well as linear response parallelism added by Martijn Marsman     |
|      and Georg Kresse.                                                      |
|      Carefully verify results versus KPAR=1.                                |
|      Report problems to Paul Kent and Vienna.                               |
|                                                                             |
 ----------------------------------------------------------------------------- 

 POTCAR:    PAW_PBE B 28Sep2005                   
   VRHFIN =B: s2p1                                                              
   LEXCH  = PE                                                                  
   EATOM  =    71.1703 eV,    5.2309 Ry                                         
                                                                                
   TITEL  = PAW_PBE B 28Sep2005                                                 
   LULTRA =        F    use ultrasoft PP ?                                      
   IUNSCR =        0    unscreen: 0-lin 1-nonlin 2-no                           
   RPACOR =    0.000    partial core radius                                     
   POMASS =   10.811; ZVAL   =    3.000    mass and valenz                      
   RCORE  =    1.700    outmost cutoff radius                                   
   RWIGS  =    1.710; RWIGS  =    0.905    wigner-seitz radius (au A)           
   ENMAX  =  318.614; ENMIN  =  238.960 eV                                      
   ICORE  =        2    local potential                                         
   LCOR   =        T    correct aug charges                                     
   LPAW   =        T    paw PP                                                  
   EAUG   =  535.514                                                            
   DEXC   =    0.000                                                            
   RMAX   =    1.732    core radius for proj-oper                               
   RAUG   =    1.300    factor for augmentation sphere                          
   RDEP   =    1.757    radius for radial grids                                 
   RDEPT  =    1.436    core radius for aug-charge                              
                                                                                
   Atomic configuration                                                         
    4 entries                                                                   
     n  l   j            E        occ.                                          
     1  0  0.50      -180.5896   2.0000                                         
     2  0  0.50        -9.4431   2.0000                                         
     2  1  0.50        -3.6068   1.0000                                         
     3  2  1.50        -4.0817   0.0000                                         
   Description                                                                  
     l       E           TYP  RCUT    TYP  RCUT                                 
     0     -9.4430752     23  1.500                                             
     0     95.2407820     23  1.500                                             
     1     -3.6067956     23  1.700                                             
     1    108.8466080     23  1.700                                             
     2     -4.0817478      7  1.700                                             
  local pseudopotential read in
  kinetic energy density of atom read in
  atomic valenz-charges read in
  non local Contribution for L=           0  read in
    real space projection operators read in
  non local Contribution for L=           0  read in
    real space projection operators read in
  non local Contribution for L=           1  read in
    real space projection operators read in
  non local Contribution for L=           1  read in
    real space projection operators read in
    PAW grid and wavefunctions read in
 
   number of l-projection  operators is LMAX  =           4
   number of lm-projection operators is LMMAX =           8
 
 POTCAR:    PAW_PBE N_GW 10Apr2007                
   VRHFIN =N: s2p3                                                              
   LEXCH  = PE                                                                  
   EATOM  =   264.5486 eV,   19.4438 Ry                                         
                                                                                
   TITEL  = PAW_PBE N_GW 10Apr2007                                              
   LULTRA =        F    use ultrasoft PP ?                                      
   IUNSCR =        0    unscreen: 0-lin 1-nonlin 2-no                           
   RPACOR =    0.000    partial core radius                                     
   POMASS =   14.001; ZVAL   =    5.000    mass and valenz                      
   RCORE  =    1.500    outmost cutoff radius                                   
   RWIGS  =    1.400; RWIGS  =    0.741    wigner-seitz radius (au A)           
   ENMAX  =  420.902; ENMIN  =  315.677 eV                                      
   ICORE  =        2    local potential                                         
   LCOR   =        T    correct aug charges                                     
   LPAW   =        T    paw PP                                                  
   EAUG   =  904.640                                                            
   DEXC   =    0.000                                                            
   RMAX   =    1.529    core radius for proj-oper                               
   RAUG   =    1.300    factor for augmentation sphere                          
   RDEP   =    1.514    radius for radial grids                                 
   RDEPT  =    1.100    core radius for aug-charge                              
                                                                                
   Atomic configuration                                                         
    4 entries                                                                   
     n  l   j            E        occ.                                          
     1  0  0.50      -384.7179   2.0000                                         
     2  0  0.50       -18.5828   2.0000                                         
     2  1  0.50        -7.0898   3.0000                                         
     3  2  1.50        -8.1635   0.0000                                         
   Description                                                                  
     l       E           TYP  RCUT    TYP  RCUT                                 
     0    -18.5828120     23  1.300                                             
     0     81.6349560     23  1.300                                             
     1     -7.0897854     23  1.500                                             
     1     81.6349560     23  1.500                                             
     2     -8.1634956      7  1.500                                             
  local pseudopotential read in
  kinetic energy density of atom read in
  atomic valenz-charges read in
  non local Contribution for L=           0  read in
    real space projection operators read in
  non local Contribution for L=           0  read in
    real space projection operators read in
  non local Contribution for L=           1  read in
    real space projection operators read in
  non local Contribution for L=           1  read in
    real space projection operators read in
    PAW grid and wavefunctions read in
 
   number of l-projection  operators is LMAX  =           4
   number of lm-projection operators is LMMAX =           8
 
  PAW_PBE B 28Sep2005                   :
 energy of atom  1       EATOM=  -71.1703
 kinetic energy error for atom=    0.0005 (will be added to EATOM!!)
  PAW_PBE N_GW 10Apr2007                :
 energy of atom  2       EATOM= -264.5486
 kinetic energy error for atom=    0.0081 (will be added to EATOM!!)
 
 
 POSCAR: B N                                     
  positions in direct lattice
  velocities in cartesian coordinates
 exchange correlation table for  LEXCH =        8
   RHO(1)=    0.500       N(1)  =     2000
   RHO(2)=  100.500       N(2)  =     4000
 


--------------------------------------------------------------------------------------------------------


 ion  position               nearest neighbor table
   1  0.333  0.667  0.111-   2 1.45   2 1.45   2 1.45
   2  0.667  0.333  0.111-   1 1.45   1 1.45   1 1.45
 
  LATTYP: Found a hexagonal cell.
 ALAT       =     2.5104528693
 C/A-ratio  =     5.9693414622
  
  Lattice vectors:
  
 A1 = (   1.2552264347,  -2.1741126873,   0.0000000000)
 A2 = (   1.2552264347,   2.1741126873,   0.0000000000)
 A3 = (   0.0000000000,   0.0000000000,  14.9857504017)


Analysis of symmetry for initial positions (statically):
=====================================================================
 Subroutine PRICEL returns:
 Original cell was already a primitive cell.
 

 Routine SETGRP: Setting up the symmetry group for a 
 hexagonal supercell.


 Subroutine GETGRP returns: Found 12 space group operations
 (whereof  6 operations were pure point group operations)
 out of a pool of 24 trial point group operations.


The static configuration has the point symmetry C_3v.
 The point group associated with its full space group is D_3h.


Analysis of symmetry for dynamics (positions and initial velocities):
=====================================================================
 Subroutine PRICEL returns:
 Original cell was already a primitive cell.
 

 Routine SETGRP: Setting up the symmetry group for a 
 hexagonal supercell.


 Subroutine GETGRP returns: Found 12 space group operations
 (whereof  6 operations were pure point group operations)
 out of a pool of 24 trial point group operations.


The dynamic configuration has the point symmetry C_3v.
 The point group associated with its full space group is D_3h.


Analysis of constrained symmetry for selective dynamics:
=====================================================================
 Subroutine PRICEL returns:
 Original cell was already a primitive cell.
 

 Routine SETGRP: Setting up the symmetry group for a 
 hexagonal supercell.


 Subroutine GETGRP returns: Found 12 space group operations
 (whereof  6 operations were pure point group operations)
 out of a pool of 24 trial point group operations.


The constrained configuration has the point symmetry C_3v.
 The point group associated with its full space group is D_3h.


Analysis of structural, dynamic, and magnetic symmetry:
=====================================================================
 Subroutine PRICEL returns:
 Original cell was already a primitive cell.
 

 Routine SETGRP: Setting up the symmetry group for a 
 hexagonal supercell.


 Subroutine GETGRP returns: Found 12 space group operations
 (whereof  6 operations were pure point group operations)
 out of a pool of 24 trial point group operations.


The magnetic configuration has the point symmetry C_3v.
 The point group associated with its full space group is D_3h.


 Subroutine INISYM returns: Found 12 space group operations
 (whereof  6 operations are pure point group operations),
 and found     1 'primitive' translations

 
 
 KPOINTS: 12x12x1                                 

Automatic generation of k-mesh.
Space group operators:
 irot       det(A)        alpha          n_x          n_y          n_z        tau_x        tau_y        tau_z
    1     1.000000     0.000000     1.000000     0.000000     0.000000     0.000000     0.000000     0.000000
    2     1.000000   120.000000     0.000000     0.000000    -1.000000     0.000000     0.000000     0.000000
    3     1.000000   120.000000     0.000000     0.000000     1.000000     0.000000     0.000000     0.000000
    4    -1.000000   180.000000     0.499999    -0.866026     0.000000     0.000000     0.000000     0.000000
    5    -1.000000   180.000000    -0.499999    -0.866026     0.000000     0.000000     0.000000     0.000000
    6    -1.000000   180.000000     1.000000     0.000000     0.000000     0.000000     0.000000     0.000000
    7    -1.000000    60.000000     0.000000     0.000000    -1.000000     0.000000     0.000000     0.222825
    8    -1.000000   179.999999     0.000000     0.000000     1.000000     0.000000     0.000000     0.222825
    9    -1.000000    60.000000     0.000000     0.000000     1.000000     0.000000     0.000001     0.222825
   10     1.000000   180.000000     0.000000     1.000000     0.000000     0.000000     0.000000     0.222825
   11     1.000000   180.000000     0.866025     0.500001     0.000000     0.000000     0.000000     0.222825
   12     1.000000   180.000000     0.866025    -0.500001     0.000000     0.000000     0.000001     0.222825
 
 Subroutine IBZKPT returns following result:
 ===========================================
 
 Found     19 irreducible k-points:
 
 Following reciprocal coordinates:
            Coordinates               Weight
  0.000000  0.000000  0.000000      1.000000
  0.083333 -0.000000  0.000000      6.000000
  0.166667  0.000000  0.000000      6.000000
  0.250000 -0.000000  0.000000      6.000000
  0.333333 -0.000000  0.000000      6.000000
  0.416667 -0.000000  0.000000      6.000000
  0.500000 -0.000000  0.000000      3.000000
  0.083333  0.083333  0.000000      6.000000
  0.166667  0.083333  0.000000     12.000000
  0.250000  0.083333  0.000000     12.000000
  0.333333  0.083333  0.000000     12.000000
  0.416667  0.083333  0.000000     12.000000
  0.166667  0.166667  0.000000      6.000000
  0.250000  0.166667  0.000000     12.000000
  0.333333  0.166667  0.000000     12.000000
  0.416667  0.166667  0.000000      6.000000
  0.250000  0.250000  0.000000      6.000000
  0.333333  0.250000  0.000000     12.000000
  0.333333  0.333333  0.000000      2.000000
 
 Following cartesian coordinates:
            Coordinates               Weight
  0.000000  0.000000  0.000000      1.000000
  0.033195 -0.019165  0.000000      6.000000
  0.066389 -0.038330  0.000000      6.000000
  0.099584 -0.057495  0.000000      6.000000
  0.132778 -0.076660  0.000000      6.000000
  0.165973 -0.095825  0.000000      6.000000
  0.199167 -0.114989  0.000000      3.000000
  0.066389  0.000000  0.000000      6.000000
  0.099584 -0.019165  0.000000     12.000000
  0.132778 -0.038330  0.000000     12.000000
  0.165973 -0.057495  0.000000     12.000000
  0.199167 -0.076660  0.000000     12.000000
  0.132778  0.000000  0.000000      6.000000
  0.165973 -0.019165  0.000000     12.000000
  0.199167 -0.038330  0.000000     12.000000
  0.232362 -0.057495  0.000000      6.000000
  0.199167  0.000000  0.000000      6.000000
  0.232362 -0.019165  0.000000     12.000000
  0.265556  0.000000  0.000000      2.000000
 


--------------------------------------------------------------------------------------------------------




 Dimension of arrays:
   k-points           NKPTS =     19   k-points in BZ     NKDIM =     19   number of bands    NBANDS=     12
   number of dos      NEDOS =   1200   number of ions     NIONS =      2
   non local maximal  LDIM  =      4   non local SUM 2l+1 LMDIM =      8
   total plane-waves  NPLWV =  72576
   max r-space proj   IRMAX =      1   max aug-charges    IRDMAX=  14035
   dimension x,y,z NGX =    24 NGY =   24 NGZ =  126
   dimension x,y,z NGXF=    48 NGYF=   48 NGZF=  252
   support grid    NGXF=    48 NGYF=   48 NGZF=  252
   ions per type =               1   1
   NGX,Y,Z   is equivalent  to a cutoff of  15.89, 15.89, 13.98 a.u.
   NGXF,Y,Z  is equivalent  to a cutoff of  31.79, 31.79, 27.96 a.u.

 SYSTEM =  hBN                                     
 POSCAR =  B N                                     

 Startparameter for this run:
   NWRITE =      2    write-flag & timer
   PREC   = accura    normal or accurate (medium, high low for compatibility)
   ISTART =      0    job   : 0-new  1-cont  2-samecut
   ICHARG =      2    charge: 1-file 2-atom 10-const
   ISPIN  =      2    spin polarized calculation?
   LNONCOLLINEAR =      F non collinear calculations
   LSORBIT =      F    spin-orbit coupling
   INIWAV =      1    electr: 0-lowe 1-rand  2-diag
   LASPH  =      F    aspherical Exc in radial PAW
   METAGGA=      F    non-selfconsistent MetaGGA calc.

 Electronic Relaxation 1
   ENCUT  =  650.0 eV  47.77 Ry    6.91 a.u.   5.22  5.22 31.15*2*pi/ulx,y,z
   ENINI  =  650.0     initial cutoff
   ENAUG  =  904.6 eV  augmentation charge cutoff
   NELM   =    100;   NELMIN=  2; NELMDL= -5     # of ELM steps 
   EDIFF  = 0.1E-07   stopping-criterion for ELM
   LREAL  =      F    real-space projection
   NLSPLINE    = F    spline interpolate recip. space projectors
   LCOMPAT=      F    compatible to vasp.4.4
   GGA_COMPAT  = T    GGA compatible to vasp.4.4-vasp.4.6
   LMAXPAW     = -100 max onsite density
   LMAXMIX     =    2 max onsite mixed and CHGCAR
   VOSKOWN=      0    Vosko Wilk Nusair interpolation
   ROPT   =    0.00000   0.00000
 Ionic relaxation
   EDIFFG = -.1E-01   stopping-criterion for IOM
   NSW    =    100    number of steps for IOM
   NBLOCK =      1;   KBLOCK =    100    inner block; outer block 
   IBRION =      2    ionic relax: 0-MD 1-quasi-New 2-CG
   NFREE  =      1    steps in history (QN), initial steepest desc. (CG)
   ISIF   =      2    stress and relaxation
   IWAVPR =     11    prediction:  0-non 1-charg 2-wave 3-comb
   ISYM   =      2    0-nonsym 1-usesym 2-fastsym
   LCORR  =      T    Harris-Foulkes like correction to forces

   POTIM  = 0.5000    time-step for ionic-motion
   TEIN   =    0.0    initial temperature
   TEBEG  =    0.0;   TEEND  =   0.0 temperature during run
   SMASS  =  -3.00    Nose mass-parameter (am)
   estimated Nose-frequenzy (Omega)   =  0.10E-29 period in steps =****** mass=  -0.144E-27a.u.
   SCALEE = 1.0000    scale energy and forces
   NPACO  =    256;   APACO  = 16.0  distance and # of slots for P.C.
   PSTRESS=    0.0 pullay stress

  Mass of Ions in am
   POMASS =  10.81 14.00
  Ionic Valenz
   ZVAL   =   3.00  5.00
  Atomic Wigner-Seitz radii
   RWIGS  =  -1.00 -1.00
  virtual crystal weights 
   VCA    =   1.00  1.00
   NELECT =       8.0000    total number of electrons
   NUPDOWN=      -1.0000    fix difference up-down

 DOS related values:
   EMIN   =  10.00;   EMAX   =-10.00  energy-range for DOS
   EFERMI =   0.00
   ISMEAR =     0;   SIGMA  =   0.05  broadening in eV -4-tet -1-fermi 0-gaus

 Electronic relaxation 2 (details)
   IALGO  =     68    algorithm
   LDIAG  =      T    sub-space diagonalisation (order eigenvalues)
   LSUBROT=      F    optimize rotation matrix (better conditioning)
   TURBO    =      0    0=normal 1=particle mesh
   IRESTART =      0    0=no restart 2=restart with 2 vectors
   NREBOOT  =      0    no. of reboots
   NMIN     =      0    reboot dimension
   EREF     =   0.00    reference energy to select bands
   IMIX   =      4    mixing-type and parameters
     AMIX     =   0.40;   BMIX     =  1.00
     AMIX_MAG =   1.60;   BMIX_MAG =  1.00
     AMIN     =   0.10
     WC   =   100.;   INIMIX=   1;  MIXPRE=   1;  MAXMIX= -45

 Intra band minimization:
   WEIMIN = 0.0010     energy-eigenvalue tresh-hold
   EBREAK =  0.21E-09  absolut break condition
   DEPER  =   0.30     relativ break condition  

   TIME   =   0.40     timestep for ELM

  volume/ion in A,a.u.               =      40.90       275.98
  Fermi-wavevector in a.u.,A,eV,Ry     =   0.754282  1.425387  7.740924  0.568942
  Thomas-Fermi vector in A             =   1.851914
 
 Write flags
   LWAVE        =      T    write WAVECAR
   LDOWNSAMPLE  =      F    k-point downsampling of WAVECAR
   LCHARG       =      T    write CHGCAR
   LVTOT        =      F    write LOCPOT, total local potential
   LVHAR        =      F    write LOCPOT, Hartree potential only
   LELF         =      F    write electronic localiz. function (ELF)
   LORBIT       =     11    0 simple, 1 ext, 2 COOP (PROOUT), +10 PAW based schemes


 Dipole corrections
   LMONO  =      F    monopole corrections only (constant potential shift)
   LDIPOL =      T    correct potential (dipole corrections)
   IDIPOL =      3    1-x, 2-y, 3-z, 4-all directions 
   EPSILON=  1.0000000 bulk dielectric constant

 Exchange correlation treatment:
   GGA     =    --    GGA type
   LEXCH   =     8    internal setting for exchange type
   VOSKOWN=      0    Vosko Wilk Nusair interpolation
   LHFCALC =     F    Hartree Fock is set to
   LHFONE  =     F    Hartree Fock one center treatment
   AEXX    =    0.0000 exact exchange contribution

 Linear response parameters
   LEPSILON=     F    determine dielectric tensor
   LRPA    =     F    only Hartree local field effects (RPA)
   LNABLA  =     F    use nabla operator in PAW spheres
   LVEL    =     F    velocity operator in full k-point grid
   LINTERFAST=   F  fast interpolation
   KINTER  =     0    interpolate to denser k-point grid
   CSHIFT  =0.1000    complex shift for real part using Kramers Kronig
   OMEGAMAX=  -1.0    maximum frequency
   DEG_THRESHOLD= 0.2000000E-02 threshold for treating states as degnerate
   RTIME   =   -0.100 relaxation time in fs
  (WPLASMAI=    0.000 imaginary part of plasma frequency in eV, 0.658/RTIME)
   DFIELD  = 0.0000000 0.0000000 0.0000000 field for delta impulse in time
 
 Orbital magnetization related:
   ORBITALMAG=     F  switch on orbital magnetization
   LCHIMAG   =     F  perturbation theory with respect to B field
   DQ        =  0.001000  dq finite difference perturbation B field
   LLRAUG    =     F  two centre corrections for induced B field



--------------------------------------------------------------------------------------------------------


 conjugate gradient relaxation of ions
   using selective dynamics as specified on POSCAR
 charge density and potential will be updated during run
 spin polarized calculation
 RMM-DIIS sequential band-by-band and
  variant of blocked Davidson during initial phase
 perform sub-space diagonalisation
    before iterative eigenvector-optimisation
 modified Broyden-mixing scheme, WC =      100.0
 initial mixing is a Kerker type mixing with AMIX =  0.4000 and BMIX =      1.0000
 Hartree-type preconditioning will be used
 using additional bands            8
 reciprocal scheme for non local part
 calculate Harris-corrections to forces 
   (improved forces if not selfconsistent)
 use gradient corrections 
 use of overlap-Matrix (Vanderbilt PP)
 Gauss-broadening in eV      SIGMA  =   0.05


--------------------------------------------------------------------------------------------------------


  energy-cutoff  :      650.00
  volume of cell :       81.79
      direct lattice vectors                 reciprocal lattice vectors
     1.255226435 -2.174112687  0.000000000     0.398334505 -0.229978880  0.000000000
     1.255226435  2.174112687  0.000000000     0.398334505  0.229978880  0.000000000
     0.000000000  0.000000000 14.985750402     0.000000000  0.000000000  0.066730058

  length of vectors
     2.510450035  2.510450035 14.985750402     0.459957240  0.459957240  0.066730058


 
 k-points in units of 2pi/SCALE and weight: 12x12x1                                 
   0.00000000  0.00000000  0.00000000       0.007
   0.03319454 -0.01916491  0.00000000       0.042
   0.06638908 -0.03832981  0.00000000       0.042
   0.09958363 -0.05749472  0.00000000       0.042
   0.13277817 -0.07665963  0.00000000       0.042
   0.16597271 -0.09582453  0.00000000       0.042
   0.19916725 -0.11498944  0.00000000       0.021
   0.06638908  0.00000000  0.00000000       0.042
   0.09958363 -0.01916491  0.00000000       0.083
   0.13277817 -0.03832981  0.00000000       0.083
   0.16597271 -0.05749472  0.00000000       0.083
   0.19916725 -0.07665963  0.00000000       0.083
   0.13277817  0.00000000  0.00000000       0.042
   0.16597271 -0.01916491  0.00000000       0.083
   0.19916725 -0.03832981  0.00000000       0.083
   0.23236179 -0.05749472  0.00000000       0.042
   0.19916725  0.00000000  0.00000000       0.042
   0.23236179 -0.01916491  0.00000000       0.083
   0.26555634  0.00000000  0.00000000       0.014
 
 k-points in reciprocal lattice and weights: 12x12x1                                 
   0.00000000  0.00000000  0.00000000       0.007
   0.08333333 -0.00000000  0.00000000       0.042
   0.16666667  0.00000000  0.00000000       0.042
   0.25000000 -0.00000000  0.00000000       0.042
   0.33333333 -0.00000000  0.00000000       0.042
   0.41666667 -0.00000000  0.00000000       0.042
   0.50000000 -0.00000000  0.00000000       0.021
   0.08333333  0.08333333  0.00000000       0.042
   0.16666667  0.08333333  0.00000000       0.083
   0.25000000  0.08333333  0.00000000       0.083
   0.33333333  0.08333333  0.00000000       0.083
   0.41666667  0.08333333  0.00000000       0.083
   0.16666667  0.16666667  0.00000000       0.042
   0.25000000  0.16666667  0.00000000       0.083
   0.33333333  0.16666667  0.00000000       0.083
   0.41666667  0.16666667  0.00000000       0.042
   0.25000000  0.25000000  0.00000000       0.042
   0.33333333  0.25000000  0.00000000       0.083
   0.33333333  0.33333333  0.00000000       0.014
 
 position of ions in fractional coordinates (direct lattice) 
   0.33333306  0.66666686  0.11141238
   0.66666686  0.33333306  0.11141238
 
 position of ions in cartesian coordinates  (Angst):
   1.25522634  0.72470526  1.66959805
   1.25522634 -0.72470526  1.66959805
 


--------------------------------------------------------------------------------------------------------


 k-point  1 :   0.0000 0.0000 0.0000  plane waves:    3063
 k-point  2 :   0.0833-0.0000 0.0000  plane waves:    3057
 k-point  3 :   0.1667 0.0000 0.0000  plane waves:    3081
 k-point  4 :   0.2500-0.0000 0.0000  plane waves:    3081
 k-point  5 :   0.3333-0.0000 0.0000  plane waves:    3087
 k-point  6 :   0.4167-0.0000 0.0000  plane waves:    3091
 k-point  7 :   0.5000-0.0000 0.0000  plane waves:    3092
 k-point  8 :   0.0833 0.0833 0.0000  plane waves:    3079
 k-point  9 :   0.1667 0.0833 0.0000  plane waves:    3079
 k-point 10 :   0.2500 0.0833 0.0000  plane waves:    3080
 k-point 11 :   0.3333 0.0833 0.0000  plane waves:    3080
 k-point 12 :   0.4167 0.0833 0.0000  plane waves:    3086
 k-point 13 :   0.1667 0.1667 0.0000  plane waves:    3069
 k-point 14 :   0.2500 0.1667 0.0000  plane waves:    3069
 k-point 15 :   0.3333 0.1667 0.0000  plane waves:    3081
 k-point 16 :   0.4167 0.1667 0.0000  plane waves:    3076
 k-point 17 :   0.2500 0.2500 0.0000  plane waves:    3065
 k-point 18 :   0.3333 0.2500 0.0000  plane waves:    3068
 k-point 19 :   0.3333 0.3333 0.0000  plane waves:    3051

 maximum and minimum number of plane-waves per node :      3092     3051

 maximum number of plane-waves:      3092
 maximum index in each direction: 
   IXMAX=    5   IYMAX=    5   IZMAX=   31
   IXMIN=   -5   IYMIN=   -5   IZMIN=  -31


 serial   3D FFT for wavefunctions
 parallel 3D FFT for charge:
    minimum data exchange during FFTs selected (reduces bandwidth)


 total amount of memory used by VASP MPI-rank0    58603. kBytes
=======================================================================

   base      :      30000. kBytes
   nonl-proj :       7628. kBytes
   fftplans  :       3562. kBytes
   grid      :      13615. kBytes
   one-center:         12. kBytes
   wavefun   :       3786. kBytes
 
     INWAV:  cpu time    0.0000: real time    0.0000
 Broyden mixing: mesh for mixing (old mesh)
   NGX = 11   NGY = 11   NGZ = 63
  (NGX  = 48   NGY  = 48   NGZ  =252)
  gives a total of   7623 points

 initial charge density was supplied:
 charge density of overlapping atoms calculated
 number of electron       8.0000000 magnetization       2.0000000
 keeping initial charge density in first step


--------------------------------------------------------------------------------------------------------


 Maximum index for augmentation-charges         2246 (set IRDMAX)


--------------------------------------------------------------------------------------------------------


 First call to EWALD:  gamma=   0.408
 Maximum number of real-space cells 5x 5x 1
 Maximum number of reciprocal cells 2x 2x 8

    FEWALD:  cpu time    0.0011: real time    0.0011


--------------------------------------- Iteration      1(   1)  ---------------------------------------


    POTLOK:  cpu time    0.1060: real time    0.1195
    SETDIJ:  cpu time    0.0007: real time    0.0008
     EDDAV:  cpu time    0.1592: real time    0.1606
       DOS:  cpu time    0.0008: real time    0.0008
    --------------------------------------------
      LOOP:  cpu time    0.2668: real time    0.2818

 eigenvalue-minimisations  :   912
 total energy-change (2. order) : 0.5338963E+02  (-0.3932471E+03)
 number of electron       8.0000000 magnetization       2.0000000
 augmentation part        8.0000000 magnetization       2.0000000

 DIPCOR: dipole corrections for dipol
 direction  3 min pos   155,
 dipolmoment           0.000000      0.000000     -0.000000 electrons x Angstroem
 Tr[quadrupol]        -9.936068

 energy correction for charged system         0.000000 eV
 dipol+quadrupol energy correction           -0.000000 eV
 added-field ion interaction          0.000000 eV  (added to PSCEN)


 Free energy of the ion-electron system (eV)
  ---------------------------------------------------
  alpha Z        PSCENC =         4.26537650
  Ewald energy   TEWEN  =       781.34178655
  -Hartree energ DENC   =     -1037.97057037
  -exchange      EXHF   =         0.00000000
  -V(xc)+E(xc)   XCENC  =        29.07045294
  PAW double counting   =       246.56844936     -248.48689232
  entropy T*S    EENTRO =        -0.00139748
  eigenvalues    EBANDS =       -57.10789688
  atomic energy  EATOM  =       335.71032239
  Solvation  Ediel_sol  =         0.00000000
  ---------------------------------------------------
  free energy    TOTEN  =        53.38963069 eV

  energy without entropy =       53.39102817  energy(sigma->0) =       53.39032943


--------------------------------------------------------------------------------------------------------




--------------------------------------- Iteration      1(   2)  ---------------------------------------


     EDDAV:  cpu time    0.1919: real time    0.1925
       DOS:  cpu time    0.0004: real time    0.0004
    --------------------------------------------
      LOOP:  cpu time    0.1924: real time    0.1929

 eigenvalue-minimisations  :  1140
 total energy-change (2. order) :-0.6885122E+02  (-0.6480450E+02)
 number of electron       8.0000000 magnetization       2.0000000
 augmentation part        8.0000000 magnetization       2.0000000

 DIPCOR: dipole corrections for dipol
 direction  3 min pos   155,
 dipolmoment           0.000000      0.000000     -0.000000 electrons x Angstroem
 Tr[quadrupol]        -9.936068

 energy correction for charged system         0.000000 eV
 dipol+quadrupol energy correction           -0.000000 eV
 added-field ion interaction          0.000000 eV  (added to PSCEN)


 Free energy of the ion-electron system (eV)
  ---------------------------------------------------
  alpha Z        PSCENC =         4.26537650
  Ewald energy   TEWEN  =       781.34178655
  -Hartree energ DENC   =     -1037.97057037
  -exchange      EXHF   =         0.00000000
  -V(xc)+E(xc)   XCENC  =        29.07045294
  PAW double counting   =       246.56844936     -248.48689232
  entropy T*S    EENTRO =        -0.00000000
  eigenvalues    EBANDS =      -125.96051145
  atomic energy  EATOM  =       335.71032239
  Solvation  Ediel_sol  =         0.00000000
  ---------------------------------------------------
  free energy    TOTEN  =       -15.46158639 eV

  energy without entropy =      -15.46158639  energy(sigma->0) =      -15.46158639


--------------------------------------------------------------------------------------------------------




--------------------------------------- Iteration      1(   3)  ---------------------------------------


     EDDAV:  cpu time    0.1961: real time    0.1966
       DOS:  cpu time    0.0004: real time    0.0004
    --------------------------------------------
      LOOP:  cpu time    0.1966: real time    0.1970

 eigenvalue-minimisations  :  1224
 total energy-change (2. order) :-0.3210781E+01  (-0.3210781E+01)
 number of electron       8.0000000 magnetization       2.0000000
 augmentation part        8.0000000 magnetization       2.0000000

 DIPCOR: dipole corrections for dipol
 direction  3 min pos   155,
 dipolmoment           0.000000      0.000000     -0.000000 electrons x Angstroem
 Tr[quadrupol]        -9.936068

 energy correction for charged system         0.000000 eV
 dipol+quadrupol energy correction           -0.000000 eV
 added-field ion interaction          0.000000 eV  (added to PSCEN)


 Free energy of the ion-electron system (eV)
  ---------------------------------------------------
  alpha Z        PSCENC =         4.26537650
  Ewald energy   TEWEN  =       781.34178655
  -Hartree energ DENC   =     -1037.97057037
  -exchange      EXHF   =         0.00000000
  -V(xc)+E(xc)   XCENC  =        29.07045294
  PAW double counting   =       246.56844936     -248.48689232
  entropy T*S    EENTRO =        -0.00000000
  eigenvalues    EBANDS =      -129.17129263
  atomic energy  EATOM  =       335.71032239
  Solvation  Ediel_sol  =         0.00000000
  ---------------------------------------------------
  free energy    TOTEN  =       -18.67236758 eV

  energy without entropy =      -18.67236758  energy(sigma->0) =      -18.67236758


--------------------------------------------------------------------------------------------------------




--------------------------------------- Iteration      1(   4)  ---------------------------------------


     EDDAV:  cpu time    0.2257: real time    0.2263
       DOS:  cpu time    0.0004: real time    0.0004
    --------------------------------------------
      LOOP:  cpu time    0.2262: real time    0.2267

 eigenvalue-minimisations  :  1488
 total energy-change (2. order) :-0.1705233E-01  (-0.1705233E-01)
 number of electron       8.0000000 magnetization       2.0000000
 augmentation part        8.0000000 magnetization       2.0000000

 DIPCOR: dipole corrections for dipol
 direction  3 min pos   155,
 dipolmoment           0.000000      0.000000     -0.000000 electrons x Angstroem
 Tr[quadrupol]        -9.936068

 energy correction for charged system         0.000000 eV
 dipol+quadrupol energy correction           -0.000000 eV
 added-field ion interaction          0.000000 eV  (added to PSCEN)


 Free energy of the ion-electron system (eV)
  ---------------------------------------------------
  alpha Z        PSCENC =         4.26537650
  Ewald energy   TEWEN  =       781.34178655
  -Hartree energ DENC   =     -1037.97057037
  -exchange      EXHF   =         0.00000000
  -V(xc)+E(xc)   XCENC  =        29.07045294
  PAW double counting   =       246.56844936     -248.48689232
  entropy T*S    EENTRO =        -0.00000000
  eigenvalues    EBANDS =      -129.18834496
  atomic energy  EATOM  =       335.71032239
  Solvation  Ediel_sol  =         0.00000000
  ---------------------------------------------------
  free energy    TOTEN  =       -18.68941991 eV

  energy without entropy =      -18.68941991  energy(sigma->0) =      -18.68941991


--------------------------------------------------------------------------------------------------------




--------------------------------------- Iteration      1(   5)  ---------------------------------------


     EDDAV:  cpu time    0.1863: real time    0.1868
       DOS:  cpu time    0.0004: real time    0.0004
    CHARGE:  cpu time    0.0300: real time    0.0301
    MIXING:  cpu time    0.0028: real time    0.0028
    --------------------------------------------
      LOOP:  cpu time    0.2197: real time    0.2202

 eigenvalue-minimisations  :  1188
 total energy-change (2. order) :-0.1208819E-04  (-0.1208820E-04)
 number of electron       8.0000000 magnetization       1.5215664
 augmentation part        0.2373558 magnetization       1.5219286

 DIPCOR: dipole corrections for dipol
 direction  3 min pos   155,
 dipolmoment           0.000000      0.000000     -0.000000 electrons x Angstroem
 Tr[quadrupol]        -9.936068

 energy correction for charged system         0.000000 eV
 dipol+quadrupol energy correction           -0.000000 eV
 added-field ion interaction          0.000000 eV  (added to PSCEN)


 Broyden mixing:
  rms(total) = 0.10182E+01    rms(broyden)= 0.10181E+01
  rms(prec ) = 0.11131E+01
  weight for this iteration     100.00

 Free energy of the ion-electron system (eV)
  ---------------------------------------------------
  alpha Z        PSCENC =         4.26537650
  Ewald energy   TEWEN  =       781.34178655
  -Hartree energ DENC   =     -1037.97057037
  -exchange      EXHF   =         0.00000000
  -V(xc)+E(xc)   XCENC  =        29.07045294
  PAW double counting   =       246.56844936     -248.48689232
  entropy T*S    EENTRO =        -0.00000000
  eigenvalues    EBANDS =      -129.18835705
  atomic energy  EATOM  =       335.71032239
  Solvation  Ediel_sol  =         0.00000000
  ---------------------------------------------------
  free energy    TOTEN  =       -18.68943199 eV

  energy without entropy =      -18.68943199  energy(sigma->0) =      -18.68943199


--------------------------------------------------------------------------------------------------------




--------------------------------------- Iteration      1(   6)  ---------------------------------------


    POTLOK:  cpu time    0.1103: real time    0.1105
    SETDIJ:  cpu time    0.0046: real time    0.0046
    EDDIAG:  cpu time    0.0443: real time    0.0445
  RMM-DIIS:  cpu time    0.1509: real time    0.1513
    ORTHCH:  cpu time    0.0027: real time    0.0027
       DOS:  cpu time    0.0005: real time    0.0005
    CHARGE:  cpu time    0.0308: real time    0.0309
    MIXING:  cpu time    0.0027: real time    0.0027
    --------------------------------------------
      LOOP:  cpu time    0.3467: real time    0.3477

 eigenvalue-minimisations  :   912
 total energy-change (2. order) : 0.6145679E+01  (-0.5652606E+00)
 number of electron       8.0000000 magnetization       1.0598504
 augmentation part        0.1896536 magnetization       1.0310102

 DIPCOR: dipole corrections for dipol
 direction  3 min pos   162,
 dipolmoment           0.000000      0.000000     -0.001707 electrons x Angstroem
 Tr[quadrupol]       -10.009226

 energy correction for charged system         0.000000 eV
 dipol+quadrupol energy correction           -0.000003 eV
 added-field ion interaction         -0.012900 eV  (added to PSCEN)


 Broyden mixing:
  rms(total) = 0.44650E+00    rms(broyden)= 0.44637E+00
  rms(prec ) = 0.49568E+00
  weight for this iteration     100.00

 eigenvalues of (default mixing * dielectric matrix)
  average eigenvalue GAMMA=   1.0952
  1.0952

 Free energy of the ion-electron system (eV)
  ---------------------------------------------------
  alpha Z        PSCENC =         4.25247266
  Ewald energy   TEWEN  =       781.34178655
  -Hartree energ DENC   =     -1055.56188257
  -exchange      EXHF   =         0.00000000
  -V(xc)+E(xc)   XCENC  =        33.48558644
  PAW double counting   =       331.68989073     -333.56476227
  entropy T*S    EENTRO =        -0.00000000
  eigenvalues    EBANDS =      -109.89716704
  atomic energy  EATOM  =       335.71032239
  Solvation  Ediel_sol  =         0.00000000
  ---------------------------------------------------
  free energy    TOTEN  =       -12.54375312 eV

  energy without entropy =      -12.54375312  energy(sigma->0) =      -12.54375312


--------------------------------------------------------------------------------------------------------




--------------------------------------- Iteration      1(   7)  ---------------------------------------


    POTLOK:  cpu time    0.1059: real time    0.1062
    SETDIJ:  cpu time    0.0033: real time    0.0033
    EDDIAG:  cpu time    0.0400: real time    0.0401
  RMM-DIIS:  cpu time    0.1565: real time    0.1569
    ORTHCH:  cpu time    0.0024: real time    0.0024
       DOS:  cpu time    0.0004: real time    0.0004
    CHARGE:  cpu time    0.0299: real time    0.0299
    MIXING:  cpu time    0.0028: real time    0.0028
    --------------------------------------------
      LOOP:  cpu time    0.3412: real time    0.3420

 eigenvalue-minimisations  :   914
 total energy-change (2. order) :-0.1858001E+01  (-0.1601333E+00)
 number of electron       8.0000000 magnetization       0.7980296
 augmentation part        0.1545087 magnetization       0.7662423

 DIPCOR: dipole corrections for dipol
 direction  3 min pos   164,
 dipolmoment           0.000000      0.000000     -0.003773 electrons x Angstroem
 Tr[quadrupol]       -10.090204

 energy correction for charged system         0.000000 eV
 dipol+quadrupol energy correction           -0.000017 eV
 added-field ion interaction         -0.036751 eV  (added to PSCEN)


 Broyden mixing:
  rms(total) = 0.28054E+00    rms(broyden)= 0.28046E+00
  rms(prec ) = 0.30019E+00
  weight for this iteration     100.00

 eigenvalues of (default mixing * dielectric matrix)
  average eigenvalue GAMMA=   0.9921
  0.9921  0.9921

 Free energy of the ion-electron system (eV)
  ---------------------------------------------------
  alpha Z        PSCENC =         4.22860835
  Ewald energy   TEWEN  =       781.34178655
  -Hartree energ DENC   =     -1067.65850579
  -exchange      EXHF   =         0.00000000
  -V(xc)+E(xc)   XCENC  =        32.40300331
  PAW double counting   =       392.44990874     -394.36289693
  entropy T*S    EENTRO =        -0.00000000
  eigenvalues    EBANDS =       -98.51398050
  atomic energy  EATOM  =       335.71032239
  Solvation  Ediel_sol  =         0.00000000
  ---------------------------------------------------
  free energy    TOTEN  =       -14.40175387 eV

  energy without entropy =      -14.40175387  energy(sigma->0) =      -14.40175387


--------------------------------------------------------------------------------------------------------




--------------------------------------- Iteration      1(   8)  ---------------------------------------


    POTLOK:  cpu time    0.1070: real time    0.1072
    SETDIJ:  cpu time    0.0037: real time    0.0037
    EDDIAG:  cpu time    0.0400: real time    0.0401
  RMM-DIIS:  cpu time    0.1650: real time    0.1654
    ORTHCH:  cpu time    0.0024: real time    0.0024
       DOS:  cpu time    0.0004: real time    0.0004
    CHARGE:  cpu time    0.0298: real time    0.0299
    MIXING:  cpu time    0.0028: real time    0.0028
    --------------------------------------------
      LOOP:  cpu time    0.3510: real time    0.3518

 eigenvalue-minimisations  :   912
 total energy-change (2. order) :-0.6642713E+00  (-0.3260915E-01)
 number of electron       8.0000000 magnetization       0.3468641
 augmentation part        0.1549218 magnetization       0.3247042

 DIPCOR: dipole corrections for dipol
 direction  3 min pos   165,
 dipolmoment           0.000000      0.000000     -0.003912 electrons x Angstroem
 Tr[quadrupol]       -10.139871

 energy correction for charged system         0.000000 eV
 dipol+quadrupol energy correction           -0.000018 eV
 added-field ion interaction         -0.042376 eV  (added to PSCEN)


 Broyden mixing:
  rms(total) = 0.17839E+00    rms(broyden)= 0.17836E+00
  rms(prec ) = 0.19002E+00
  weight for this iteration     100.00

 eigenvalues of (default mixing * dielectric matrix)
  average eigenvalue GAMMA=   1.3843
  2.1074  1.2864  0.7592

 Free energy of the ion-electron system (eV)
  ---------------------------------------------------
  alpha Z        PSCENC =         4.22298219
  Ewald energy   TEWEN  =       781.34178655
  -Hartree energ DENC   =     -1070.26047668
  -exchange      EXHF   =         0.00000000
  -V(xc)+E(xc)   XCENC  =        31.90865040
  PAW double counting   =       406.93178903     -408.91062444
  entropy T*S    EENTRO =        -0.00000000
  eigenvalues    EBANDS =       -96.01045458
  atomic energy  EATOM  =       335.71032239
  Solvation  Ediel_sol  =         0.00000000
  ---------------------------------------------------
  free energy    TOTEN  =       -15.06602514 eV

  energy without entropy =      -15.06602514  energy(sigma->0) =      -15.06602514


--------------------------------------------------------------------------------------------------------




--------------------------------------- Iteration      1(   9)  ---------------------------------------


    POTLOK:  cpu time    0.1050: real time    0.1053
    SETDIJ:  cpu time    0.0036: real time    0.0036
    EDDIAG:  cpu time    0.0400: real time    0.0401
  RMM-DIIS:  cpu time    0.1632: real time    0.1638
    ORTHCH:  cpu time    0.0024: real time    0.0024
       DOS:  cpu time    0.0004: real time    0.0004
    CHARGE:  cpu time    0.0297: real time    0.0297
    MIXING:  cpu time    0.0029: real time    0.0029
    --------------------------------------------
      LOOP:  cpu time    0.3472: real time    0.3482

 eigenvalue-minimisations  :   912
 total energy-change (2. order) :-0.1666587E+01  (-0.1350291E+00)
 number of electron       8.0000000 magnetization       0.2391819
 augmentation part        0.1521391 magnetization       0.2277684

 DIPCOR: dipole corrections for dipol
 direction  3 min pos   156,
 dipolmoment           0.000000      0.000000     -0.000309 electrons x Angstroem
 Tr[quadrupol]       -10.237134

 energy correction for charged system         0.000000 eV
 dipol+quadrupol energy correction           -0.000000 eV
 added-field ion interaction         -0.000311 eV  (added to PSCEN)


 Broyden mixing:
  rms(total) = 0.82472E-01    rms(broyden)= 0.82322E-01
  rms(prec ) = 0.88291E-01
  weight for this iteration     100.00

 eigenvalues of (default mixing * dielectric matrix)
  average eigenvalue GAMMA=   1.3402
  2.5546  1.3329  0.8196  0.6537

 Free energy of the ion-electron system (eV)
  ---------------------------------------------------
  alpha Z        PSCENC =         4.26506508
  Ewald energy   TEWEN  =       781.34178655
  -Hartree energ DENC   =     -1075.77923104
  -exchange      EXHF   =         0.00000000
  -V(xc)+E(xc)   XCENC  =        30.87495490
  PAW double counting   =       430.64779145     -432.68630067
  entropy T*S    EENTRO =        -0.00000000
  eigenvalues    EBANDS =       -91.10700080
  atomic energy  EATOM  =       335.71032239
  Solvation  Ediel_sol  =         0.00000000
  ---------------------------------------------------
  free energy    TOTEN  =       -16.73261215 eV

  energy without entropy =      -16.73261215  energy(sigma->0) =      -16.73261215


--------------------------------------------------------------------------------------------------------




--------------------------------------- Iteration      1(  10)  ---------------------------------------


    POTLOK:  cpu time    0.1072: real time    0.1075
    SETDIJ:  cpu time    0.0037: real time    0.0037
    EDDIAG:  cpu time    0.0398: real time    0.0399
  RMM-DIIS:  cpu time    0.1688: real time    0.1692
    ORTHCH:  cpu time    0.0024: real time    0.0024
       DOS:  cpu time    0.0004: real time    0.0004
    CHARGE:  cpu time    0.0297: real time    0.0298
    MIXING:  cpu time    0.0030: real time    0.0030
    --------------------------------------------
      LOOP:  cpu time    0.3549: real time    0.3558

 eigenvalue-minimisations  :   914
 total energy-change (2. order) :-0.3334707E+00  (-0.2338310E-01)
 number of electron       8.0000000 magnetization       0.1030414
 augmentation part        0.1497373 magnetization       0.0956411

 DIPCOR: dipole corrections for dipol
 direction  3 min pos   159,
 dipolmoment           0.000000      0.000000     -0.000798 electrons x Angstroem
 Tr[quadrupol]       -10.270979

 energy correction for charged system         0.000000 eV
 dipol+quadrupol energy correction           -0.000001 eV
 added-field ion interaction         -0.003419 eV  (added to PSCEN)


 Broyden mixing:
  rms(total) = 0.57024E-01    rms(broyden)= 0.56943E-01
  rms(prec ) = 0.62622E-01
  weight for this iteration     100.00

 eigenvalues of (default mixing * dielectric matrix)
  average eigenvalue GAMMA=   1.3970
  2.6293  1.7792  0.9707  0.9317  0.6741

 Free energy of the ion-electron system (eV)
  ---------------------------------------------------
  alpha Z        PSCENC =         4.26195708
  Ewald energy   TEWEN  =       781.34178655
  -Hartree energ DENC   =     -1076.97741606
  -exchange      EXHF   =         0.00000000
  -V(xc)+E(xc)   XCENC  =        30.69055795
  PAW double counting   =       431.14641755     -433.17821581
  entropy T*S    EENTRO =        -0.00000000
  eigenvalues    EBANDS =       -90.06149247
  atomic energy  EATOM  =       335.71032239
  Solvation  Ediel_sol  =         0.00000000
  ---------------------------------------------------
  free energy    TOTEN  =       -17.06608281 eV

  energy without entropy =      -17.06608281  energy(sigma->0) =      -17.06608281


--------------------------------------------------------------------------------------------------------




--------------------------------------- Iteration      1(  11)  ---------------------------------------


    POTLOK:  cpu time    0.1066: real time    0.1069
    SETDIJ:  cpu time    0.0037: real time    0.0037
    EDDIAG:  cpu time    0.0400: real time    0.0401
  RMM-DIIS:  cpu time    0.1646: real time    0.1650
    ORTHCH:  cpu time    0.0024: real time    0.0025
       DOS:  cpu time    0.0004: real time    0.0004
    CHARGE:  cpu time    0.0313: real time    0.0314
    MIXING:  cpu time    0.0033: real time    0.0033
    --------------------------------------------
      LOOP:  cpu time    0.3524: real time    0.3532

 eigenvalue-minimisations  :   912
 total energy-change (2. order) :-0.4266666E+00  (-0.2725592E-01)
 number of electron       8.0000000 magnetization       0.0409645
 augmentation part        0.1478164 magnetization       0.0378596

 DIPCOR: dipole corrections for dipol
 direction  3 min pos   157,
 dipolmoment           0.000000      0.000000      0.000173 electrons x Angstroem
 Tr[quadrupol]       -10.330948

 energy correction for charged system         0.000000 eV
 dipol+quadrupol energy correction           -0.000000 eV
 added-field ion interaction          0.000363 eV  (added to PSCEN)


 Broyden mixing:
  rms(total) = 0.30971E-01    rms(broyden)= 0.30847E-01
  rms(prec ) = 0.34882E-01
  weight for this iteration     100.00

 eigenvalues of (default mixing * dielectric matrix)
  average eigenvalue GAMMA=   1.5045
  3.4635  2.1613  1.1434  0.8228  0.8228  0.6132

 Free energy of the ion-electron system (eV)
  ---------------------------------------------------
  alpha Z        PSCENC =         4.26573937
  Ewald energy   TEWEN  =       781.34178655
  -Hartree energ DENC   =     -1077.37070305
  -exchange      EXHF   =         0.00000000
  -V(xc)+E(xc)   XCENC  =        30.36551799
  PAW double counting   =       423.47473839     -425.48012007
  entropy T*S    EENTRO =        -0.00000000
  eigenvalues    EBANDS =       -89.80003096
  atomic energy  EATOM  =       335.71032239
  Solvation  Ediel_sol  =         0.00000000
  ---------------------------------------------------
  free energy    TOTEN  =       -17.49274938 eV

  energy without entropy =      -17.49274938  energy(sigma->0) =      -17.49274938


--------------------------------------------------------------------------------------------------------




--------------------------------------- Iteration      1(  12)  ---------------------------------------


    POTLOK:  cpu time    0.1104: real time    0.1107
    SETDIJ:  cpu time    0.0011: real time    0.0011
    EDDIAG:  cpu time    0.0399: real time    0.0400
  RMM-DIIS:  cpu time    0.1667: real time    0.1672
    ORTHCH:  cpu time    0.0024: real time    0.0024
       DOS:  cpu time    0.0004: real time    0.0004
    CHARGE:  cpu time    0.0300: real time    0.0301
    MIXING:  cpu time    0.0031: real time    0.0031
    --------------------------------------------
      LOOP:  cpu time    0.3541: real time    0.3551

 eigenvalue-minimisations  :   912
 total energy-change (2. order) :-0.1040946E+00  (-0.5740075E-02)
 number of electron       8.0000000 magnetization       0.0142111
 augmentation part        0.1488518 magnetization       0.0130314

 DIPCOR: dipole corrections for dipol
 direction  3 min pos   156,
 dipolmoment           0.000000      0.000000      0.000226 electrons x Angstroem
 Tr[quadrupol]       -10.363970

 energy correction for charged system         0.000000 eV
 dipol+quadrupol energy correction           -0.000000 eV
 added-field ion interaction          0.000228 eV  (added to PSCEN)


 Broyden mixing:
  rms(total) = 0.14475E-01    rms(broyden)= 0.14437E-01
  rms(prec ) = 0.18249E-01
  weight for this iteration     100.00

 eigenvalues of (default mixing * dielectric matrix)
  average eigenvalue GAMMA=   1.5147
  3.8023  1.7909  1.6610  1.0965  0.9414  0.7131  0.5976

 Free energy of the ion-electron system (eV)
  ---------------------------------------------------
  alpha Z        PSCENC =         4.26560419
  Ewald energy   TEWEN  =       781.34178655
  -Hartree energ DENC   =     -1077.40688766
  -exchange      EXHF   =         0.00000000
  -V(xc)+E(xc)   XCENC  =        30.26602073
  PAW double counting   =       421.52951621     -423.53562486
  entropy T*S    EENTRO =        -0.00000000
  eigenvalues    EBANDS =       -89.76758150
  atomic energy  EATOM  =       335.71032239
  Solvation  Ediel_sol  =         0.00000000
  ---------------------------------------------------
  free energy    TOTEN  =       -17.59684395 eV

  energy without entropy =      -17.59684395  energy(sigma->0) =      -17.59684395


--------------------------------------------------------------------------------------------------------




--------------------------------------- Iteration      1(  13)  ---------------------------------------


    POTLOK:  cpu time    0.1076: real time    0.1079
    SETDIJ:  cpu time    0.0035: real time    0.0035
    EDDIAG:  cpu time    0.0398: real time    0.0399
  RMM-DIIS:  cpu time    0.1603: real time    0.1607
    ORTHCH:  cpu time    0.0024: real time    0.0024
       DOS:  cpu time    0.0004: real time    0.0004
    CHARGE:  cpu time    0.0297: real time    0.0297
    MIXING:  cpu time    0.0032: real time    0.0032
    --------------------------------------------
      LOOP:  cpu time    0.3469: real time    0.3477

 eigenvalue-minimisations  :   918
 total energy-change (2. order) :-0.1420865E-01  (-0.9030563E-03)
 number of electron       8.0000000 magnetization       0.0058206
 augmentation part        0.1498611 magnetization       0.0052706

 DIPCOR: dipole corrections for dipol
 direction  3 min pos   137,
 dipolmoment           0.000000      0.000000     -0.008031 electrons x Angstroem
 Tr[quadrupol]       -10.405336

 energy correction for charged system         0.000000 eV
 dipol+quadrupol energy correction           -0.000077 eV
 added-field ion interaction          0.158455 eV  (added to PSCEN)


 Broyden mixing:
  rms(total) = 0.11284E-01    rms(broyden)= 0.11274E-01
  rms(prec ) = 0.13974E-01
  weight for this iteration     100.00

 eigenvalues of (default mixing * dielectric matrix)
  average eigenvalue GAMMA=   1.5071
  3.9519  2.0427  2.0427  1.1766  0.7373  0.7373  0.7606  0.6082

 Free energy of the ion-electron system (eV)
  ---------------------------------------------------
  alpha Z        PSCENC =         4.42375494
  Ewald energy   TEWEN  =       781.34178655
  -Hartree energ DENC   =     -1077.33070030
  -exchange      EXHF   =         0.00000000
  -V(xc)+E(xc)   XCENC  =        30.23902577
  PAW double counting   =       421.48365216     -423.49390797
  entropy T*S    EENTRO =        -0.00000000
  eigenvalues    EBANDS =       -89.98498614
  atomic energy  EATOM  =       335.71032239
  Solvation  Ediel_sol  =         0.00000000
  ---------------------------------------------------
  free energy    TOTEN  =       -17.61105260 eV

  energy without entropy =      -17.61105260  energy(sigma->0) =      -17.61105260


--------------------------------------------------------------------------------------------------------




--------------------------------------- Iteration      1(  14)  ---------------------------------------


    POTLOK:  cpu time    0.1067: real time    0.1069
    SETDIJ:  cpu time    0.0027: real time    0.0028
    EDDIAG:  cpu time    0.0399: real time    0.0400
  RMM-DIIS:  cpu time    0.1666: real time    0.1670
    ORTHCH:  cpu time    0.0024: real time    0.0024
       DOS:  cpu time    0.0004: real time    0.0004
    CHARGE:  cpu time    0.0296: real time    0.0297
    MIXING:  cpu time    0.0033: real time    0.0033
    --------------------------------------------
      LOOP:  cpu time    0.3517: real time    0.3525

 eigenvalue-minimisations  :   915
 total energy-change (2. order) :-0.5418916E-02  (-0.1202222E-03)
 number of electron       8.0000000 magnetization       0.0001595
 augmentation part        0.1499999 magnetization      -0.0000594

 DIPCOR: dipole corrections for dipol
 direction  3 min pos   129,
 dipolmoment           0.000000      0.000000     -0.014097 electrons x Angstroem
 Tr[quadrupol]       -10.441632

 energy correction for charged system         0.000000 eV
 dipol+quadrupol energy correction           -0.000236 eV
 added-field ion interaction          0.401244 eV  (added to PSCEN)


 Broyden mixing:
  rms(total) = 0.68292E-02    rms(broyden)= 0.68254E-02
  rms(prec ) = 0.88680E-02
  weight for this iteration     100.00

 eigenvalues of (default mixing * dielectric matrix)
  average eigenvalue GAMMA=   1.5700
  3.9347  2.6683  2.1110  1.1685  1.1685  0.8851  0.8851  0.6967  0.6116

 Free energy of the ion-electron system (eV)
  ---------------------------------------------------
  alpha Z        PSCENC =         4.66638396
  Ewald energy   TEWEN  =       781.34178655
  -Hartree energ DENC   =     -1077.28426069
  -exchange      EXHF   =         0.00000000
  -V(xc)+E(xc)   XCENC  =        30.22531815
  PAW double counting   =       420.92375918     -422.93199520
  entropy T*S    EENTRO =        -0.00000000
  eigenvalues    EBANDS =       -90.26778586
  atomic energy  EATOM  =       335.71032239
  Solvation  Ediel_sol  =         0.00000000
  ---------------------------------------------------
  free energy    TOTEN  =       -17.61647152 eV

  energy without entropy =      -17.61647152  energy(sigma->0) =      -17.61647152


--------------------------------------------------------------------------------------------------------




--------------------------------------- Iteration      1(  15)  ---------------------------------------


    POTLOK:  cpu time    0.1078: real time    0.1081
    SETDIJ:  cpu time    0.0038: real time    0.0038
    EDDIAG:  cpu time    0.0398: real time    0.0399
  RMM-DIIS:  cpu time    0.1659: real time    0.1664
    ORTHCH:  cpu time    0.0023: real time    0.0024
       DOS:  cpu time    0.0004: real time    0.0004
    CHARGE:  cpu time    0.0296: real time    0.0297
    MIXING:  cpu time    0.0034: real time    0.0034
    --------------------------------------------
      LOOP:  cpu time    0.3531: real time    0.3541

 eigenvalue-minimisations  :   912
 total energy-change (2. order) :-0.4138811E-02  (-0.1084371E-03)
 number of electron       8.0000000 magnetization      -0.0007779
 augmentation part        0.1492911 magnetization      -0.0007520

 DIPCOR: dipole corrections for dipol
 direction  3 min pos   128,
 dipolmoment           0.000000      0.000000     -0.013825 electrons x Angstroem
 Tr[quadrupol]       -10.473259

 energy correction for charged system         0.000000 eV
 dipol+quadrupol energy correction           -0.000227 eV
 added-field ion interaction          0.408619 eV  (added to PSCEN)


 Broyden mixing:
  rms(total) = 0.44901E-02    rms(broyden)= 0.44874E-02
  rms(prec ) = 0.57637E-02
  weight for this iteration     100.00

 eigenvalues of (default mixing * dielectric matrix)
  average eigenvalue GAMMA=   1.5493
  3.9664  2.9111  2.2745  1.3069  1.3069  0.8445  0.8445  0.7631  0.6107  0.6646

 Free energy of the ion-electron system (eV)
  ---------------------------------------------------
  alpha Z        PSCENC =         4.67376846
  Ewald energy   TEWEN  =       781.34178655
  -Hartree energ DENC   =     -1077.45421223
  -exchange      EXHF   =         0.00000000
  -V(xc)+E(xc)   XCENC  =        30.22320322
  PAW double counting   =       420.98415019     -422.98867774
  entropy T*S    EENTRO =        -0.00000000
  eigenvalues    EBANDS =       -90.11095116
  atomic energy  EATOM  =       335.71032239
  Solvation  Ediel_sol  =         0.00000000
  ---------------------------------------------------
  free energy    TOTEN  =       -17.62061033 eV

  energy without entropy =      -17.62061033  energy(sigma->0) =      -17.62061033


--------------------------------------------------------------------------------------------------------




--------------------------------------- Iteration      1(  16)  ---------------------------------------


    POTLOK:  cpu time    0.1053: real time    0.1055
    SETDIJ:  cpu time    0.0036: real time    0.0036
    EDDIAG:  cpu time    0.0399: real time    0.0400
  RMM-DIIS:  cpu time    0.1690: real time    0.1694
    ORTHCH:  cpu time    0.0024: real time    0.0024
       DOS:  cpu time    0.0004: real time    0.0004
    CHARGE:  cpu time    0.0298: real time    0.0298
    MIXING:  cpu time    0.0035: real time    0.0035
    --------------------------------------------
      LOOP:  cpu time    0.3537: real time    0.3546

 eigenvalue-minimisations  :   933
 total energy-change (2. order) :-0.3289466E-03  (-0.9849087E-05)
 number of electron       8.0000000 magnetization      -0.0013571
 augmentation part        0.1492864 magnetization      -0.0013101

 DIPCOR: dipole corrections for dipol
 direction  3 min pos   128,
 dipolmoment           0.000000      0.000000     -0.012426 electrons x Angstroem
 Tr[quadrupol]       -10.484805

 energy correction for charged system         0.000000 eV
 dipol+quadrupol energy correction           -0.000184 eV
 added-field ion interaction          0.367264 eV  (added to PSCEN)


 Broyden mixing:
  rms(total) = 0.34796E-02    rms(broyden)= 0.34792E-02
  rms(prec ) = 0.45494E-02
  weight for this iteration     100.00

 eigenvalues of (default mixing * dielectric matrix)
  average eigenvalue GAMMA=   1.5458
  4.0246  2.6900  2.6900  1.7070  0.9851  0.9851  0.9808  0.9416  0.7311  0.6103
  0.6582

 Free energy of the ion-electron system (eV)
  ---------------------------------------------------
  alpha Z        PSCENC =         4.63245694
  Ewald energy   TEWEN  =       781.34178655
  -Hartree energ DENC   =     -1077.52888798
  -exchange      EXHF   =         0.00000000
  -V(xc)+E(xc)   XCENC  =        30.22210643
  PAW double counting   =       421.16834918     -423.17382347
  entropy T*S    EENTRO =        -0.00000000
  eigenvalues    EBANDS =       -89.99324930
  atomic energy  EATOM  =       335.71032239
  Solvation  Ediel_sol  =         0.00000000
  ---------------------------------------------------
  free energy    TOTEN  =       -17.62093927 eV

  energy without entropy =      -17.62093927  energy(sigma->0) =      -17.62093927


--------------------------------------------------------------------------------------------------------




--------------------------------------- Iteration      1(  17)  ---------------------------------------


    POTLOK:  cpu time    0.1060: real time    0.1063
    SETDIJ:  cpu time    0.0038: real time    0.0038
    EDDIAG:  cpu time    0.0399: real time    0.0400
  RMM-DIIS:  cpu time    0.1669: real time    0.1673
    ORTHCH:  cpu time    0.0023: real time    0.0023
       DOS:  cpu time    0.0004: real time    0.0004
    CHARGE:  cpu time    0.0297: real time    0.0297
    MIXING:  cpu time    0.0036: real time    0.0036
    --------------------------------------------
      LOOP:  cpu time    0.3526: real time    0.3534

 eigenvalue-minimisations  :   912
 total energy-change (2. order) : 0.1378090E-03  (-0.4255789E-04)
 number of electron       8.0000000 magnetization      -0.0013186
 augmentation part        0.1496777 magnetization      -0.0012698

 DIPCOR: dipole corrections for dipol
 direction  3 min pos   153,
 dipolmoment           0.000000      0.000000     -0.000745 electrons x Angstroem
 Tr[quadrupol]       -10.495329

 energy correction for charged system         0.000000 eV
 dipol+quadrupol energy correction           -0.000001 eV
 added-field ion interaction          0.001688 eV  (added to PSCEN)


 Broyden mixing:
  rms(total) = 0.24142E-02    rms(broyden)= 0.24140E-02
  rms(prec ) = 0.30883E-02
  weight for this iteration     100.00

 eigenvalues of (default mixing * dielectric matrix)
  average eigenvalue GAMMA=   1.5880
  4.0407  3.0049  3.0049  1.9524  1.1440  0.9709  0.9709  0.9960  0.9960  0.7250
  0.6430  0.6071

 Free energy of the ion-electron system (eV)
  ---------------------------------------------------
  alpha Z        PSCENC =         4.26706411
  Ewald energy   TEWEN  =       781.34178655
  -Hartree energ DENC   =     -1077.66013107
  -exchange      EXHF   =         0.00000000
  -V(xc)+E(xc)   XCENC  =        30.21853964
  PAW double counting   =       421.27058463     -423.27849690
  entropy T*S    EENTRO =        -0.00000000
  eigenvalues    EBANDS =       -89.49047081
  atomic energy  EATOM  =       335.71032239
  Solvation  Ediel_sol  =         0.00000000
  ---------------------------------------------------
  free energy    TOTEN  =       -17.62080146 eV

  energy without entropy =      -17.62080146  energy(sigma->0) =      -17.62080146


--------------------------------------------------------------------------------------------------------




--------------------------------------- Iteration      1(  18)  ---------------------------------------


    POTLOK:  cpu time    0.1071: real time    0.1074
    SETDIJ:  cpu time    0.0038: real time    0.0038
    EDDIAG:  cpu time    0.0398: real time    0.0399
  RMM-DIIS:  cpu time    0.1647: real time    0.1651
    ORTHCH:  cpu time    0.0024: real time    0.0024
       DOS:  cpu time    0.0004: real time    0.0004
    CHARGE:  cpu time    0.0298: real time    0.0298
    MIXING:  cpu time    0.0037: real time    0.0037
    --------------------------------------------
      LOOP:  cpu time    0.3516: real time    0.3524

 eigenvalue-minimisations  :   913
 total energy-change (2. order) :-0.7365674E-03  (-0.9148779E-05)
 number of electron       8.0000000 magnetization      -0.0011806
 augmentation part        0.1497484 magnetization      -0.0012236

 DIPCOR: dipole corrections for dipol
 direction  3 min pos   163,
 dipolmoment           0.000000      0.000000      0.001843 electrons x Angstroem
 Tr[quadrupol]       -10.520334

 energy correction for charged system         0.000000 eV
 dipol+quadrupol energy correction           -0.000004 eV
 added-field ion interaction          0.015939 eV  (added to PSCEN)


 Broyden mixing:
  rms(total) = 0.31045E-02    rms(broyden)= 0.31044E-02
  rms(prec ) = 0.35144E-02
  weight for this iteration     100.00

 eigenvalues of (default mixing * dielectric matrix)
  average eigenvalue GAMMA=   1.6064
  4.1022  3.7138  2.4469  2.4469  1.5708  1.0307  1.0307  0.9378  0.9378  0.7347
  0.7001  0.6022  0.6286

 Free energy of the ion-electron system (eV)
  ---------------------------------------------------
  alpha Z        PSCENC =         4.28131111
  Ewald energy   TEWEN  =       781.34178655
  -Hartree energ DENC   =     -1077.82852062
  -exchange      EXHF   =         0.00000000
  -V(xc)+E(xc)   XCENC  =        30.21873939
  PAW double counting   =       421.28309301     -423.29107925
  entropy T*S    EENTRO =        -0.00000000
  eigenvalues    EBANDS =       -89.33719062
  atomic energy  EATOM  =       335.71032239
  Solvation  Ediel_sol  =         0.00000000
  ---------------------------------------------------
  free energy    TOTEN  =       -17.62153803 eV

  energy without entropy =      -17.62153803  energy(sigma->0) =      -17.62153803


--------------------------------------------------------------------------------------------------------




--------------------------------------- Iteration      1(  19)  ---------------------------------------


    POTLOK:  cpu time    0.1061: real time    0.1063
    SETDIJ:  cpu time    0.0035: real time    0.0035
    EDDIAG:  cpu time    0.0399: real time    0.0400
  RMM-DIIS:  cpu time    0.1610: real time    0.1614
    ORTHCH:  cpu time    0.0024: real time    0.0024
       DOS:  cpu time    0.0004: real time    0.0004
    CHARGE:  cpu time    0.0297: real time    0.0297
    MIXING:  cpu time    0.0038: real time    0.0038
    --------------------------------------------
      LOOP:  cpu time    0.3468: real time    0.3476

 eigenvalue-minimisations  :   916
 total energy-change (2. order) :-0.1150830E-03  (-0.2220396E-05)
 number of electron       8.0000000 magnetization      -0.0007295
 augmentation part        0.1496389 magnetization      -0.0007425

 DIPCOR: dipole corrections for dipol
 direction  3 min pos   167,
 dipolmoment           0.000000      0.000000      0.002101 electrons x Angstroem
 Tr[quadrupol]       -10.527431

 energy correction for charged system         0.000000 eV
 dipol+quadrupol energy correction           -0.000005 eV
 added-field ion interaction          0.027350 eV  (added to PSCEN)


 Broyden mixing:
  rms(total) = 0.13393E-02    rms(broyden)= 0.13393E-02
  rms(prec ) = 0.15640E-02
  weight for this iteration     100.00

 eigenvalues of (default mixing * dielectric matrix)
  average eigenvalue GAMMA=   1.5690
  4.2382  3.8213  2.4098  2.4098  1.6181  1.0778  1.0778  0.9995  0.8541  0.8541
  0.7234  0.6134  0.6346  0.6346

 Free energy of the ion-electron system (eV)
  ---------------------------------------------------
  alpha Z        PSCENC =         4.29272098
  Ewald energy   TEWEN  =       781.34178655
  -Hartree energ DENC   =     -1077.88791005
  -exchange      EXHF   =         0.00000000
  -V(xc)+E(xc)   XCENC  =        30.21978595
  PAW double counting   =       421.21578596     -423.22286437
  entropy T*S    EENTRO =        -0.00000000
  eigenvalues    EBANDS =       -89.29128053
  atomic energy  EATOM  =       335.71032239
  Solvation  Ediel_sol  =         0.00000000
  ---------------------------------------------------
  free energy    TOTEN  =       -17.62165311 eV

  energy without entropy =      -17.62165311  energy(sigma->0) =      -17.62165311


--------------------------------------------------------------------------------------------------------




--------------------------------------- Iteration      1(  20)  ---------------------------------------


    POTLOK:  cpu time    0.1069: real time    0.1071
    SETDIJ:  cpu time    0.0039: real time    0.0039
    EDDIAG:  cpu time    0.0398: real time    0.0399
  RMM-DIIS:  cpu time    0.1693: real time    0.1697
    ORTHCH:  cpu time    0.0037: real time    0.0037
       DOS:  cpu time    0.0004: real time    0.0004
    CHARGE:  cpu time    0.0323: real time    0.0324
    MIXING:  cpu time    0.0047: real time    0.0048
    --------------------------------------------
      LOOP:  cpu time    0.3611: real time    0.3619

 eigenvalue-minimisations  :   919
 total energy-change (2. order) :-0.6770693E-04  (-0.1871301E-05)
 number of electron       8.0000000 magnetization      -0.0003184
 augmentation part        0.1495269 magnetization      -0.0003058

 DIPCOR: dipole corrections for dipol
 direction  3 min pos   169,
 dipolmoment           0.000000      0.000000      0.001312 electrons x Angstroem
 Tr[quadrupol]       -10.535270

 energy correction for charged system         0.000000 eV
 dipol+quadrupol energy correction           -0.000002 eV
 added-field ion interaction          0.019944 eV  (added to PSCEN)


 Broyden mixing:
  rms(total) = 0.36558E-03    rms(broyden)= 0.36518E-03
  rms(prec ) = 0.48652E-03
  weight for this iteration     100.00

 eigenvalues of (default mixing * dielectric matrix)
  average eigenvalue GAMMA=   1.7339
  5.6236  4.0112  2.6445  2.6445  2.1200  1.5611  1.1062  1.1062  0.9145  0.9145
  0.7930  0.7167  0.6345  0.6092  0.6092

 Free energy of the ion-electron system (eV)
  ---------------------------------------------------
  alpha Z        PSCENC =         4.28531873
  Ewald energy   TEWEN  =       781.34178655
  -Hartree energ DENC   =     -1077.95843994
  -exchange      EXHF   =         0.00000000
  -V(xc)+E(xc)   XCENC  =        30.22073774
  PAW double counting   =       421.16328321     -423.16976646
  entropy T*S    EENTRO =        -0.00000000
  eigenvalues    EBANDS =       -89.21496304
  atomic energy  EATOM  =       335.71032239
  Solvation  Ediel_sol  =         0.00000000
  ---------------------------------------------------
  free energy    TOTEN  =       -17.62172082 eV

  energy without entropy =      -17.62172082  energy(sigma->0) =      -17.62172082


--------------------------------------------------------------------------------------------------------




--------------------------------------- Iteration      1(  21)  ---------------------------------------


    POTLOK:  cpu time    0.1091: real time    0.1095
    SETDIJ:  cpu time    0.0011: real time    0.0011
    EDDIAG:  cpu time    0.0403: real time    0.0404
  RMM-DIIS:  cpu time    0.1617: real time    0.1621
    ORTHCH:  cpu time    0.0024: real time    0.0024
       DOS:  cpu time    0.0004: real time    0.0004
    CHARGE:  cpu time    0.0299: real time    0.0300
    MIXING:  cpu time    0.0040: real time    0.0040
    --------------------------------------------
      LOOP:  cpu time    0.3489: real time    0.3499

 eigenvalue-minimisations  :   912
 total energy-change (2. order) :-0.2899944E-04  (-0.2614025E-06)
 number of electron       8.0000000 magnetization      -0.0001668
 augmentation part        0.1495204 magnetization      -0.0001549

 DIPCOR: dipole corrections for dipol
 direction  3 min pos   168,
 dipolmoment           0.000000      0.000000      0.000463 electrons x Angstroem
 Tr[quadrupol]       -10.540609

 energy correction for charged system         0.000000 eV
 dipol+quadrupol energy correction           -0.000000 eV
 added-field ion interaction          0.006529 eV  (added to PSCEN)


 Broyden mixing:
  rms(total) = 0.17556E-03    rms(broyden)= 0.17552E-03
  rms(prec ) = 0.21667E-03
  weight for this iteration     100.00

 eigenvalues of (default mixing * dielectric matrix)
  average eigenvalue GAMMA=   1.8130
  7.0650  4.0495  2.8252  2.8252  2.2047  1.5825  1.0905  1.0905  1.1411  0.8951
  0.8951  0.7476  0.7164  0.6493  0.6072  0.6237

 Free energy of the ion-electron system (eV)
  ---------------------------------------------------
  alpha Z        PSCENC =         4.27190490
  Ewald energy   TEWEN  =       781.34178655
  -Hartree energ DENC   =     -1078.00628697
  -exchange      EXHF   =         0.00000000
  -V(xc)+E(xc)   XCENC  =        30.22104940
  PAW double counting   =       421.16207187     -423.16864229
  entropy T*S    EENTRO =        -0.00000000
  eigenvalues    EBANDS =       -89.15395567
  atomic energy  EATOM  =       335.71032239
  Solvation  Ediel_sol  =         0.00000000
  ---------------------------------------------------
  free energy    TOTEN  =       -17.62174982 eV

  energy without entropy =      -17.62174982  energy(sigma->0) =      -17.62174982


--------------------------------------------------------------------------------------------------------




--------------------------------------- Iteration      1(  22)  ---------------------------------------


    POTLOK:  cpu time    0.1060: real time    0.1063
    SETDIJ:  cpu time    0.0038: real time    0.0038
    EDDIAG:  cpu time    0.0397: real time    0.0398
  RMM-DIIS:  cpu time    0.1620: real time    0.1624
    ORTHCH:  cpu time    0.0024: real time    0.0024
       DOS:  cpu time    0.0004: real time    0.0004
    CHARGE:  cpu time    0.0296: real time    0.0297
    MIXING:  cpu time    0.0042: real time    0.0042
    --------------------------------------------
      LOOP:  cpu time    0.3481: real time    0.3489

 eigenvalue-minimisations  :   912
 total energy-change (2. order) :-0.1003316E-04  (-0.7793038E-07)
 number of electron       8.0000000 magnetization      -0.0000597
 augmentation part        0.1495055 magnetization      -0.0000547

 DIPCOR: dipole corrections for dipol
 direction  3 min pos   157,
[...]
  band No.  band energies     occupation 
      1     -18.2008      1.00000
      2     -12.1143      1.00000
      3     -10.4968      1.00000
      4      -4.3413      1.00000
      5       0.8851      0.00000
      6       8.2382      0.00000
      7       8.5261      0.00000
      8       9.7372      0.00000
      9      10.3414      0.00000
     10      10.3607      0.00000
     11      11.2165      0.00000
     12      12.9716      0.00000

 k-point    19 :       0.3333    0.3333    0.0000
  band No.  band energies     occupation 
      1     -18.0090      1.00000
      2     -11.8914      1.00000
      3     -11.1856      1.00000
      4      -4.0225      1.00000
      5       0.6625      0.00000
      6       8.3351      0.00000
      7       9.2806      0.00000
      8      10.5689      0.00000
      9      11.0954      0.00000
     10      11.9319      0.00000
     11      12.3610      0.00000
     12      13.9282      0.00000

 spin component 2

 k-point     1 :       0.0000    0.0000    0.0000
  band No.  band energies     occupation 
      1     -21.6490      1.00000
      2      -9.2302      1.00000
      3      -5.3711      1.00000
      4      -5.3710      1.00000
      5       0.6638      0.00000
      6       1.6676      0.00000
      7       2.2229      0.00000
      8       4.0137      0.00000
      9       4.6660      0.00000
     10       7.4004      0.00000
     11       7.5153      0.00000
     12       7.5154      0.00000

 k-point     2 :       0.0833   -0.0000    0.0000
  band No.  band energies     occupation 
      1     -21.5161      1.00000
      2      -9.0518      1.00000
      3      -5.9290      1.00000
      4      -5.6274      1.00000
      5       0.8929      0.00000
      6       1.8761      0.00000
      7       2.4460      0.00000
      8       4.2071      0.00000
      9       4.8936      0.00000
     10       7.4032      0.00000
     11       7.4066      0.00000
     12       8.1034      0.00000

 k-point     3 :       0.1667    0.0000    0.0000
  band No.  band energies     occupation 
      1     -21.1250      1.00000
      2      -8.5246      1.00000
      3      -7.3351      1.00000
      4      -6.2518      1.00000
      5       1.5535      0.00000
      6       2.4884      0.00000
      7       3.1070      0.00000
      8       4.7366      0.00000
      9       5.5212      0.00000
     10       7.0688      0.00000
     11       7.2001      0.00000
     12       9.6998      0.00000

 k-point     4 :       0.2500   -0.0000    0.0000
  band No.  band energies     occupation 
      1     -20.5027      1.00000
      2      -9.1144      1.00000
      3      -7.6790      1.00000
      4      -6.9758      1.00000
      5       2.6119      0.00000
      6       3.3739      0.00000
      7       4.1909      0.00000
      8       5.0314      0.00000
      9       6.2726      0.00000
     10       6.6325      0.00000
     11       7.2945      0.00000
     12      11.9465      0.00000

 k-point     5 :       0.3333   -0.0000    0.0000
  band No.  band energies     occupation 
      1     -19.7180      1.00000
      2     -10.8855      1.00000
      3      -7.5978      1.00000
      4      -6.5921      1.00000
      5       3.0102      0.00000
      6       4.0122      0.00000
      7       5.4294      0.00000
      8       5.6328      0.00000
      9       6.5498      0.00000
     10       7.7220      0.00000
     11       8.4517      0.00000
     12      11.9118      0.00000

 k-point     6 :       0.4167   -0.0000    0.0000
  band No.  band energies     occupation 
      1     -18.9473      1.00000
      2     -12.3017      1.00000
      3      -8.0060      1.00000
      4      -5.4784      1.00000
      5       1.5131      0.00000
      6       5.3412      0.00000
      7       6.7619      0.00000
      8       7.1956      0.00000
      9       7.8268      0.00000
     10       9.4770      0.00000
     11      10.2190      0.00000
     12      11.1951      0.00000

 k-point     7 :       0.5000   -0.0000    0.0000
  band No.  band energies     occupation 
      1     -18.5847      1.00000
      2     -12.8874      1.00000
      3      -8.1471      1.00000
      4      -4.9206      1.00000
      5       0.7764      0.00000
      6       5.6610      0.00000
      7       8.4264      0.00000
      8       8.8575      0.00000
      9       9.1302      0.00000
     10       9.7354      0.00000
     11      10.1064      0.00000
     12      10.2364      0.00000

 k-point     8 :       0.0833    0.0833    0.0000
  band No.  band energies     occupation 
      1     -21.2540      1.00000
      2      -8.6988      1.00000
      3      -6.8435      1.00000
      4      -6.1355      1.00000
      5       1.3384      0.00000
      6       2.2873      0.00000
      7       2.8887      0.00000
      8       4.5727      0.00000
      9       5.3342      0.00000
     10       7.2282      0.00000
     11       7.4729      0.00000
     12       8.6178      0.00000

 k-point     9 :       0.1667    0.0833    0.0000
  band No.  band energies     occupation 
      1     -20.7460      1.00000
      2      -8.3255      1.00000
      3      -8.0110      1.00000
      4      -6.9219      1.00000
      5       2.2040      0.00000
      6       3.0612      0.00000
      7       3.7654      0.00000
      8       5.0708      0.00000
      9       6.1508      0.00000
     10       6.6655      0.00000
     11       7.5326      0.00000
     12       9.5477      0.00000

 k-point    10 :       0.2500    0.0833    0.0000
  band No.  band energies     occupation 
      1     -20.0360      1.00000
      2     -10.0361      1.00000
      3      -7.6652      1.00000
      4      -7.0371      1.00000
      5       3.4597      0.00000
      6       3.5238      0.00000
      7       5.0228      0.00000
      8       5.0596      0.00000
      9       6.8961      0.00000
     10       7.1663      0.00000
     11       7.9576      0.00000
     12      11.0024      0.00000

 k-point    11 :       0.3333    0.0833    0.0000
  band No.  band energies     occupation 
      1     -19.2345      1.00000
      2     -11.6180      1.00000
      3      -8.2138      1.00000
      4      -5.9044      1.00000
      5       2.2174      0.00000
      6       5.0088      0.00000
      7       6.3788      0.00000
      8       6.6024      0.00000
      9       7.2508      0.00000
     10       8.6791      0.00000
     11       9.4487      0.00000
     12      12.0073      0.00000

 k-point    12 :       0.4167    0.0833    0.0000
  band No.  band energies     occupation 
      1     -18.6159      1.00000
      2     -12.6565      1.00000
      3      -8.5014      1.00000
      4      -4.9768      1.00000
      5       0.9920      0.00000
      6       6.1119      0.00000
      7       7.7782      0.00000
      8       8.3629      0.00000
      9       9.0789      0.00000
     10      10.0077      0.00000
     11      10.3087      0.00000
     12      11.3374      0.00000

 k-point    13 :       0.1667    0.1667    0.0000
  band No.  band energies     occupation 
      1     -20.1461      1.00000
      2      -9.5332      1.00000
      3      -7.9372      1.00000
      4      -7.1902      1.00000
      5       3.2784      0.00000
      6       3.6290      0.00000
      7       4.8607      0.00000
      8       4.9996      0.00000
      9       7.0029      0.00000
     10       7.2257      0.00000
     11       8.3315      0.00000
     12       9.8803      0.00000

 k-point    14 :       0.2500    0.1667    0.0000
  band No.  band energies     occupation 
      1     -19.3975      1.00000
      2     -10.8807      1.00000
      3      -8.8017      1.00000
      4      -6.1429      1.00000
      5       2.7563      0.00000
      6       4.7424      0.00000
      7       5.9762      0.00000
      8       6.3752      0.00000
      9       8.2570      0.00000
     10       8.2582      0.00000
     11       9.0880      0.00000
     12      11.0919      0.00000

 k-point    15 :       0.3333    0.1667    0.0000
  band No.  band energies     occupation 
      1     -18.6757      1.00000
      2     -12.0641      1.00000
      3      -9.3213      1.00000
      4      -5.0824      1.00000
      5       1.4529      0.00000
      6       6.4803      0.00000
      7       7.7037      0.00000
      8       8.0986      0.00000
      9       8.6775      0.00000
     10       9.7532      0.00000
     11      10.6641      0.00000
     12      11.4978      0.00000

 k-point    16 :       0.4167    0.1667    0.0000
  band No.  band energies     occupation 
      1     -18.3435      1.00000
      2     -12.5677      1.00000
      3      -9.4923      1.00000
      4      -4.5587      1.00000
      5       0.8190      0.00000
      6       7.5106      0.00000
      7       8.9937      0.00000
      8       9.0755      0.00000
      9       9.6811      0.00000
     10      10.2859      0.00000
     11      10.7292      0.00000
     12      10.9094      0.00000

 k-point    17 :       0.2500    0.2500    0.0000
  band No.  band energies     occupation 
      1     -18.7045      1.00000
      2     -11.6034      1.00000
      3      -9.8877      1.00000
      4      -5.1323      1.00000
      5       1.7038      0.00000
      6       6.4029      0.00000
      7       7.4622      0.00000
      8       8.1080      0.00000
      9       9.4639      0.00000
     10       9.7480      0.00000
     11      10.2372      0.00000
     12      11.6402      0.00000

 k-point    18 :       0.3333    0.2500    0.0000
  band No.  band energies     occupation 
      1     -18.2008      1.00000
      2     -12.1143      1.00000
      3     -10.4968      1.00000
      4      -4.3413      1.00000
      5       0.8851      0.00000
      6       8.2387      0.00000
      7       8.5264      0.00000
      8       9.7408      0.00000
      9      10.3582      0.00000
     10      10.3672      0.00000
     11      11.2246      0.00000
     12      12.7814      0.00000

 k-point    19 :       0.3333    0.3333    0.0000
  band No.  band energies     occupation 
      1     -18.0090      1.00000
      2     -11.8914      1.00000
      3     -11.1856      1.00000
      4      -4.0225      1.00000
      5       0.6625      0.00000
      6       8.3351      0.00000
      7       9.2806      0.00000
      8      10.5696      0.00000
      9      11.0985      0.00000
     10      11.9346      0.00000
     11      12.4372      0.00000
     12      13.6419      0.00000


--------------------------------------------------------------------------------------------------------


 soft charge-density along one line, spin component           1
         0         1         2         3         4         5         6         7         8         9
 total charge-density along one line
 
 soft charge-density along one line, spin component           2
         0         1         2         3         4         5         6         7         8         9
 total charge-density along one line
 
 pseudopotential strength for first ion, spin component:           1
  6.810  -8.943   0.000  -0.000  -0.000   0.000  -0.000  -0.000
 -8.943  25.241  -0.000   0.000   0.000  -0.000   0.000   0.000
  0.000  -0.000  -2.320   0.000  -0.000   1.533  -0.000   0.000
 -0.000   0.000   0.000  -2.321  -0.000  -0.000   1.414   0.000
 -0.000   0.000  -0.000  -0.000  -2.320   0.000   0.000   1.533
  0.000  -0.000   1.533  -0.000   0.000  46.977   0.000  -0.000
 -0.000   0.000  -0.000   1.414   0.000   0.000  47.084  -0.000
 -0.000   0.000   0.000   0.000   1.533  -0.000  -0.000  46.977
 pseudopotential strength for first ion, spin component:           2
  6.810  -8.943   0.000  -0.000  -0.000   0.000  -0.000  -0.000
 -8.943  25.241  -0.000   0.000   0.000  -0.000   0.000   0.000
  0.000  -0.000  -2.320   0.000  -0.000   1.533  -0.000   0.000
 -0.000   0.000   0.000  -2.321  -0.000  -0.000   1.414   0.000
 -0.000   0.000  -0.000  -0.000  -2.320   0.000   0.000   1.533
  0.000  -0.000   1.533  -0.000   0.000  46.977   0.000  -0.000
 -0.000   0.000  -0.000   1.414   0.000   0.000  47.084  -0.000
 -0.000   0.000   0.000   0.000   1.533  -0.000  -0.000  46.977
 total augmentation occupancy for first ion, spin component:           1
  1.497   0.046  -0.000  -0.000   0.000  -0.000  -0.000   0.000
  0.046   0.002   0.000  -0.000   0.000  -0.000   0.000   0.000
  0.000  -0.000   1.335  -0.000   0.000   0.061   0.000   0.000
  0.000  -0.000  -0.000   0.582   0.000  -0.000   0.020   0.000
  0.000   0.000   0.000   0.000   1.335   0.000   0.000   0.061
  0.000   0.000   0.061  -0.000   0.000   0.003   0.000   0.000
 -0.000   0.000   0.000   0.020   0.000   0.000   0.001   0.000
  0.000   0.000   0.000   0.000   0.061   0.000   0.000   0.003
 total augmentation occupancy for first ion, spin component:           2
  0.000   0.000   0.000   0.000   0.000  -0.000   0.000   0.000
  0.000   0.000  -0.000   0.000   0.000   0.000  -0.000   0.000
  0.000   0.000   0.000   0.000   0.000   0.000   0.000   0.000
  0.000   0.000   0.000   0.000   0.000   0.000   0.000   0.000
  0.000   0.000   0.000   0.000   0.000   0.000   0.000   0.000
  0.000  -0.000   0.000   0.000   0.000   0.000   0.000   0.000
  0.000  -0.000   0.000   0.000   0.000   0.000   0.000   0.000
  0.000   0.000   0.000   0.000   0.000   0.000   0.000   0.000


------------------------ aborting loop because EDIFF is reached ----------------------------------------


 


 total charge     
 
# of ion       s       p       d       tot
------------------------------------------
    1        0.702   1.307   0.000   2.009
    2        1.183   2.703   0.000   3.886
--------------------------------------------------
tot          1.884   4.010   0.000   5.895
 


 magnetization (x)
 
# of ion       s       p       d       tot
------------------------------------------
    1       -0.000   0.000   0.000   0.000
    2       -0.000  -0.000   0.000  -0.000
--------------------------------------------------
tot         -0.000  -0.000   0.000  -0.000
 
    CHARGE:  cpu time    0.0291: real time    0.0292
    FORLOC:  cpu time    0.0027: real time    0.0027
    FORNL :  cpu time    0.0103: real time    0.0103
    STRESS:  cpu time    0.1671: real time    0.1675
    FORHAR:  cpu time    0.0114: real time    0.0115
    MIXING:  cpu time    0.0049: real time    0.0049
    OFIELD:  cpu time    0.0001: real time    0.0001

  FORCE on cell =-STRESS in cart. coord.  units (eV):
  Direction    XX          YY          ZZ          XY          YZ          ZX
  --------------------------------------------------------------------------------------
  Alpha Z     4.26538     4.26538     4.26538
  Ewald    1053.11499  1053.11437 -1324.88759    -0.00000    -0.00000     0.00000
  Hartree  1048.94473  1048.94472 -1019.85795     0.00000    -0.00000    -0.00000
  E(xc)     -30.85967   -30.85967   -31.93232     0.00000     0.00000    -0.00000
  Local   -2187.37745 -2187.37703  2244.10731     0.00000    -0.00000     0.00000
  n-local   -19.40937   -18.48542   -18.78878     0.09305    -0.00000     0.00000
  augment    -0.23488    -0.23487    -0.17593     0.00000     0.00000     0.00000
  Kinetic   132.60418   129.61032   147.25706     1.20329     0.00000    -0.00000
  Fock        0.00000     0.00000     0.00000     0.00000     0.00000     0.00000
  -------------------------------------------------------------------------------------
  Total       0.01285     0.01285    -0.01283    -0.00000     0.00000     0.00000
  in kB       0.25175     0.25175    -0.25131    -0.00000     0.00000     0.00000
  external pressure =        0.08 kB  Pullay stress =        0.00 kB


 VOLUME and BASIS-vectors are now :
 -----------------------------------------------------------------------------
  energy-cutoff  :      650.00
  volume of cell :       81.79
      direct lattice vectors                 reciprocal lattice vectors
     1.255226435 -2.174112687  0.000000000     0.398334505 -0.229978880  0.000000000
     1.255226435  2.174112687  0.000000000     0.398334505  0.229978880  0.000000000
     0.000000000  0.000000000 14.985750402     0.000000000  0.000000000  0.066730058

  length of vectors
     2.510450035  2.510450035 14.985750402     0.459957240  0.459957240  0.066730058


 FORCES acting on ions
    electron-ion (+dipol)            ewald-force                    non-local-force                 convergence-correction
 -----------------------------------------------------------------------------------------------
   -.245E-05 -.134E-03 0.822E-04   0.460E-14 -.279E-04 0.847E-21   -.555E-16 0.222E-15 0.106E-21   -.292E-11 0.519E-09 0.139E-09
   0.628E-04 0.747E-03 0.157E-03   -.880E-14 0.279E-04 -.847E-21   -.139E-16 0.139E-16 -.678E-20   0.150E-10 0.206E-09 -.646E-10
 -----------------------------------------------------------------------------------------------
   0.603E-04 0.612E-03 0.240E-03   -.420E-14 -.888E-15 0.000E+00   -.694E-16 0.236E-15 -.667E-20   0.120E-10 0.724E-09 0.740E-10
 
 
 POSITION                                       TOTAL-FORCE (eV/Angst)
 -----------------------------------------------------------------------------------
      1.25523      0.72471      1.66960         0.000000     -0.000000      0.000000
      1.25523     -0.72471      1.66960        -0.000000      0.000000     -0.000000
 -----------------------------------------------------------------------------------
    total drift:                                0.000060      0.000612      0.000240


--------------------------------------------------------------------------------------------------------



  FREE ENERGIE OF THE ION-ELECTRON SYSTEM (eV)
  ---------------------------------------------------
  free  energy   TOTEN  =       -17.62176484 eV

  energy  without entropy=      -17.62176484  energy(sigma->0) =      -17.62176484
 


--------------------------------------------------------------------------------------------------------


    POTLOK:  cpu time    0.1084: real time    0.1087


--------------------------------------------------------------------------------------------------------




--------------------------------------------------------------------------------------------------------


  
 reached required accuracy - stopping structural energy minimisation
 writing wavefunctions
     LOOP+:  cpu time   10.5602: real time   12.8445
    4ORBIT:  cpu time    0.0000: real time    0.0000
 


 total charge     
 
# of ion       s       p       d       tot
------------------------------------------
    1        0.702   1.307   0.000   2.009
    2        1.183   2.703   0.000   3.886
--------------------------------------------------
tot          1.884   4.010   0.000   5.895
 


 magnetization (x)
 
# of ion       s       p       d       tot
------------------------------------------
    1       -0.000   0.000   0.000   0.000
    2       -0.000  -0.000   0.000  -0.000
--------------------------------------------------
tot         -0.000  -0.000   0.000  -0.000
 

 total amount of memory used by VASP MPI-rank0    58603. kBytes
=======================================================================

   base      :      30000. kBytes
   nonl-proj :       7628. kBytes
   fftplans  :       3562. kBytes
   grid      :      13615. kBytes
   one-center:         12. kBytes
   wavefun   :       3786. kBytes
 
  
  
 General timing and accounting informations for this job:
 ========================================================
  
                  Total CPU time used (sec):       13.748
                            User time (sec):       10.966
                          System time (sec):        2.782
                         Elapsed time (sec):       16.670
  
                   Maximum memory used (kb):       94400.
                   Average memory used (kb):           0.
  
                          Minor page faults:        80477
                          Major page faults:            0
                 Voluntary context switches:         1162
