 vasp.5.4.4.18Apr17-6-g9f103f2a35 (build May 01 2020 14:57:12) complex          
  
 executed on             LinuxIFC date 2021.12.06  15:49:52
 running on   96 total cores
 distrk:  each k-point on   96 cores,    1 groups
 distr:  one band on NCORES_PER_BAND=  24 cores,    4 groups


--------------------------------------------------------------------------------------------------------


 INCAR:
 POTCAR:    PAW_PBE B 06Sep2000                   
 POTCAR:    PAW_PBE N 08Apr2002                   
 POTCAR:    PAW_PBE C 08Apr2002                   
 POTCAR:    PAW_PBE F 08Apr2002                   
 POTCAR:    PAW_PBE O 08Apr2002                   

 ----------------------------------------------------------------------------- 
|                                                                             |
|           W    W    AA    RRRRR   N    N  II  N    N   GGGG   !!!           |
|           W    W   A  A   R    R  NN   N  II  NN   N  G    G  !!!           |
|           W    W  A    A  R    R  N N  N  II  N N  N  G       !!!           |
|           W WW W  AAAAAA  RRRRR   N  N N  II  N  N N  G  GGG   !            |
|           WW  WW  A    A  R   R   N   NN  II  N   NN  G    G                |
|           W    W  A    A  R    R  N    N  II  N    N   GGGG   !!!           |
|                                                                             |
|      For optimal performance we recommend to set                            |
|        NCORE= 4 - approx SQRT( number of cores)                             |
|      NCORE specifies how many cores store one orbital (NPAR=cpu/NCORE).     |
|      This setting can  greatly improve the performance of VASP for DFT.     |
|      The default,   NCORE=1            might be grossly inefficient         |
|      on modern multi-core architectures or massively parallel machines.     |
|      Do your own testing !!!!                                               |
|      Unfortunately you need to use the default for GW and RPA calculations. |
|      (for HF NCORE is supported but not extensively tested yet)             |
|                                                                             |
 ----------------------------------------------------------------------------- 


 ----------------------------------------------------------------------------- 
|                                                                             |
|  ADVICE TO THIS USER RUNNING 'VASP/VAMP'   (HEAR YOUR MASTER'S VOICE ...):  |
|                                                                             |
|      You have switched on vdW-DFT.                                          |
|      This routine was written and supplied by Jiri Klimes.                  |
|      We recommed that you carefully read and cite the following             |
|      publication                                                            |
|      J. Klimes, D.R. Bowler, A. Michelides                                  |
|        J. Phys.: Cond Matt. 22 022201 (2010)                                |
|      J. Klimes, D.R. Bowler, A. Michelides                                  |
|        Phys. Rev. B. 83, 195131 (2011)                                      |
|      and references therein.                                                |
|                                                                             |
 ----------------------------------------------------------------------------- 

 POTCAR:    PAW_PBE B 06Sep2000                   
   VRHFIN =B: s2p1                                                              
   LEXCH  = PE                                                                  
   EATOM  =    71.1703 eV,    5.2309 Ry                                         
                                                                                
   TITEL  = PAW_PBE B 06Sep2000                                                 
   LULTRA =        F    use ultrasoft PP ?                                      
   IUNSCR =        1    unscreen: 0-lin 1-nonlin 2-no                           
   RPACOR =    1.200    partial core radius                                     
   POMASS =   10.811; ZVAL   =    3.000    mass and valenz                      
   RCORE  =    1.700    outmost cutoff radius                                   
   RWIGS  =    1.710; RWIGS  =    0.905    wigner-seitz radius (au A)           
   ENMAX  =  318.614; ENMIN  =  238.960 eV                                      
   ICORE  =        2    local potential                                         
   LCOR   =        T    correct aug charges                                     
   LPAW   =        T    paw PP                                                  
   EAUG   =  535.514                                                            
   DEXC   =    0.000                                                            
   RMAX   =    1.732    core radius for proj-oper                               
   RAUG   =    1.300    factor for augmentation sphere                          
   RDEP   =    1.757    radius for radial grids                                 
   RDEPT  =    1.436    core radius for aug-charge                              
                                                                                
   Atomic configuration                                                         
    4 entries                                                                   
     n  l   j            E        occ.                                          
     1  0  0.50      -180.5896   2.0000                                         
     2  0  0.50        -9.4431   2.0000                                         
     2  1  0.50        -3.6068   1.0000                                         
     3  2  1.50        -4.0817   0.0000                                         
   Description                                                                  
     l       E           TYP  RCUT    TYP  RCUT                                 
     0     -9.4430752     23  1.500                                             
     0      0.8675899     23  1.500                                             
     1     -3.6067955     23  1.700                                             
     1      6.1086146     23  1.700                                             
     2     -4.0817478      7  1.700                                             
  local pseudopotential read in
  partial core-charges read in
  partial kinetic energy density read in
  atomic valenz-charges read in
  non local Contribution for L=           0  read in
    real space projection operators read in
  non local Contribution for L=           0  read in
    real space projection operators read in
  non local Contribution for L=           1  read in
    real space projection operators read in
  non local Contribution for L=           1  read in
    real space projection operators read in
    PAW grid and wavefunctions read in
 
   number of l-projection  operators is LMAX  =           4
   number of lm-projection operators is LMMAX =           8
 
 POTCAR:    PAW_PBE N 08Apr2002                   
   VRHFIN =N: s2p3                                                              
   LEXCH  = PE                                                                  
   EATOM  =   264.5486 eV,   19.4438 Ry                                         
                                                                                
   TITEL  = PAW_PBE N 08Apr2002                                                 
   LULTRA =        F    use ultrasoft PP ?                                      
   IUNSCR =        1    unscreen: 0-lin 1-nonlin 2-no                           
   RPACOR =    1.200    partial core radius                                     
   POMASS =   14.001; ZVAL   =    5.000    mass and valenz                      
   RCORE  =    1.500    outmost cutoff radius                                   
   RWIGS  =    1.400; RWIGS  =    0.741    wigner-seitz radius (au A)           
   ENMAX  =  400.000; ENMIN  =  300.000 eV                                      
   ICORE  =        2    local potential                                         
   LCOR   =        T    correct aug charges                                     
   LPAW   =        T    paw PP                                                  
   EAUG   =  627.112                                                            
   DEXC   =    0.000                                                            
   RMAX   =    1.529    core radius for proj-oper                               
   RAUG   =    1.300    factor for augmentation sphere                          
   RDEP   =    1.514    radius for radial grids                                 
   RDEPT  =    1.338    core radius for aug-charge                              
                                                                                
   Atomic configuration                                                         
    4 entries                                                                   
     n  l   j            E        occ.                                          
     1  0  0.50      -384.7179   2.0000                                         
     2  0  0.50       -18.5828   2.0000                                         
     2  1  0.50        -7.0898   3.0000                                         
     3  2  1.50        -6.8029   0.0000                                         
   Description                                                                  
     l       E           TYP  RCUT    TYP  RCUT                                 
     0    -18.5828119     23  1.200                                             
     0    -13.5018863     23  1.200                                             
     1     -7.0897853     23  1.500                                             
     1      9.5240782     23  1.500                                             
     2     -6.8029130      7  1.500                                             
  local pseudopotential read in
  partial core-charges read in
  partial kinetic energy density read in
  atomic valenz-charges read in
  non local Contribution for L=           0  read in
    real space projection operators read in
  non local Contribution for L=           0  read in
    real space projection operators read in
  non local Contribution for L=           1  read in
    real space projection operators read in
  non local Contribution for L=           1  read in
    real space projection operators read in
    PAW grid and wavefunctions read in
 
   number of l-projection  operators is LMAX  =           4
   number of lm-projection operators is LMMAX =           8
 
 POTCAR:    PAW_PBE C 08Apr2002                   
   VRHFIN =C: s2p2                                                              
   LEXCH  = PE                                                                  
   EATOM  =   147.1560 eV,   10.8157 Ry                                         
                                                                                
   TITEL  = PAW_PBE C 08Apr2002                                                 
   LULTRA =        F    use ultrasoft PP ?                                      
   IUNSCR =        1    unscreen: 0-lin 1-nonlin 2-no                           
   RPACOR =    1.200    partial core radius                                     
   POMASS =   12.011; ZVAL   =    4.000    mass and valenz                      
   RCORE  =    1.500    outmost cutoff radius                                   
   RWIGS  =    1.630; RWIGS  =    0.863    wigner-seitz radius (au A)           
   ENMAX  =  400.000; ENMIN  =  300.000 eV                                      
   ICORE  =        2    local potential                                         
   LCOR   =        T    correct aug charges                                     
   LPAW   =        T    paw PP                                                  
   EAUG   =  644.873                                                            
   DEXC   =    0.000                                                            
   RMAX   =    1.529    core radius for proj-oper                               
   RAUG   =    1.300    factor for augmentation sphere                          
   RDEP   =    1.501    radius for radial grids                                 
   RDEPT  =    1.300    core radius for aug-charge                              
                                                                                
   Atomic configuration                                                         
    4 entries                                                                   
     n  l   j            E        occ.                                          
     1  0  0.50      -273.3789   2.0000                                         
     2  0  0.50       -13.7508   2.0000                                         
     2  1  0.50        -5.2854   2.0000                                         
     3  2  1.50        -5.4423   0.0000                                         
   Description                                                                  
     l       E           TYP  RCUT    TYP  RCUT                                 
     0    -13.7508458     23  1.200                                             
     0     -8.2022199     23  1.200                                             
     1     -5.2854383     23  1.500                                             
     1     34.0145650     23  1.500                                             
     2     -5.4423304      7  1.500                                             
  local pseudopotential read in
  partial core-charges read in
  partial kinetic energy density read in
  atomic valenz-charges read in
  non local Contribution for L=           0  read in
    real space projection operators read in
  non local Contribution for L=           0  read in
    real space projection operators read in
  non local Contribution for L=           1  read in
    real space projection operators read in
  non local Contribution for L=           1  read in
    real space projection operators read in
    PAW grid and wavefunctions read in
 
   number of l-projection  operators is LMAX  =           4
   number of lm-projection operators is LMMAX =           8
 
 POTCAR:    PAW_PBE F 08Apr2002                   
   VRHFIN =F: s2p5                                                              
   LEXCH  = PE                                                                  
   EATOM  =   659.6475 eV,   48.4827 Ry                                         
                                                                                
   TITEL  = PAW_PBE F 08Apr2002                                                 
   LULTRA =        F    use ultrasoft PP ?                                      
   IUNSCR =        1    unscreen: 0-lin 1-nonlin 2-no                           
   RPACOR =    1.200    partial core radius                                     
   POMASS =   18.998; ZVAL   =    7.000    mass and valenz                      
   RCORE  =    1.520    outmost cutoff radius                                   
   RWIGS  =    1.500; RWIGS  =    0.794    wigner-seitz radius (au A)           
   ENMAX  =  400.000; ENMIN  =  300.000 eV                                      
   ICORE  =        2    local potential                                         
   LCOR   =        T    correct aug charges                                     
   LPAW   =        T    paw PP                                                  
   EAUG   =  613.614                                                            
   RMAX   =    1.555    core radius for proj-oper                               
   RAUG   =    1.300    factor for augmentation sphere                          
   RDEP   =    1.539    radius for radial grids                                 
   RDEPT  =    1.299    core radius for aug-charge                              
                                                                                
   Atomic configuration                                                         
    4 entries                                                                   
     n  l   j            E        occ.                                          
     1  0  0.50      -663.3661   2.0000                                         
     2  0  0.50       -29.8995   2.0000                                         
     2  1  0.50       -11.1114   5.0000                                         
     3  2  1.50       -10.8847   0.0000                                         
   Description                                                                  
     l       E           TYP  RCUT    TYP  RCUT                                 
     0    -29.8995018     23  1.200                                             
     0     -9.5240782     23  1.200                                             
     1    -11.1113914     23  1.520                                             
     1      1.3605826     23  1.520                                             
     2    -10.8846608      7  1.500                                             
  local pseudopotential read in
  partial core-charges read in
  partial kinetic energy density read in
  atomic valenz-charges read in
  non local Contribution for L=           0  read in
    real space projection operators read in
  non local Contribution for L=           0  read in
    real space projection operators read in
  non local Contribution for L=           1  read in
    real space projection operators read in
  non local Contribution for L=           1  read in
    real space projection operators read in
    PAW grid and wavefunctions read in
 
   number of l-projection  operators is LMAX  =           4
   number of lm-projection operators is LMMAX =           8
 
 POTCAR:    PAW_PBE O 08Apr2002                   
   VRHFIN =O: s2p4                                                              
   LEXCH  = PE                                                                  
   EATOM  =   432.3788 eV,   31.7789 Ry                                         
                                                                                
   TITEL  = PAW_PBE O 08Apr2002                                                 
   LULTRA =        F    use ultrasoft PP ?                                      
   IUNSCR =        1    unscreen: 0-lin 1-nonlin 2-no                           
   RPACOR =    1.200    partial core radius                                     
   POMASS =   16.000; ZVAL   =    6.000    mass and valenz                      
   RCORE  =    1.520    outmost cutoff radius                                   
   RWIGS  =    1.550; RWIGS  =    0.820    wigner-seitz radius (au A)           
   ENMAX  =  400.000; ENMIN  =  300.000 eV                                      
   ICORE  =        2    local potential                                         
   LCOR   =        T    correct aug charges                                     
   LPAW   =        T    paw PP                                                  
   EAUG   =  605.392                                                            
   DEXC   =    0.000                                                            
   RMAX   =    1.553    core radius for proj-oper                               
   RAUG   =    1.300    factor for augmentation sphere                          
   RDEP   =    1.550    radius for radial grids                                 
   RDEPT  =    1.329    core radius for aug-charge                              
                                                                                
   Atomic configuration                                                         
    4 entries                                                                   
     n  l   j            E        occ.                                          
     1  0  0.50      -514.6923   2.0000                                         
     2  0  0.50       -23.9615   2.0000                                         
     2  1  0.50        -9.0305   4.0000                                         
     3  2  1.50        -9.5241   0.0000                                         
   Description                                                                  
     l       E           TYP  RCUT    TYP  RCUT                                 
     0    -23.9615318     23  1.200                                             
     0     -9.5240782     23  1.200                                             
     1     -9.0304911     23  1.520                                             
     1      8.1634956     23  1.520                                             
     2     -9.5240782      7  1.500                                             
  local pseudopotential read in
  partial core-charges read in
  partial kinetic energy density read in
  kinetic energy density of atom read in
  atomic valenz-charges read in
  non local Contribution for L=           0  read in
    real space projection operators read in
  non local Contribution for L=           0  read in
    real space projection operators read in
  non local Contribution for L=           1  read in
    real space projection operators read in
  non local Contribution for L=           1  read in
    real space projection operators read in
    PAW grid and wavefunctions read in
 
   number of l-projection  operators is LMAX  =           4
   number of lm-projection operators is LMMAX =           8
 
 Optimization of the real space projectors (new method)

 maximal supplied QI-value         = 22.11
 optimisation between [QCUT,QGAM] = [ 11.94, 23.88] = [ 39.92,159.67] Ry 
 Optimized for a Real-space Cutoff    1.18 Angstroem

   l    n(q)    QCUT    max X(q) W(low)/X(q) W(high)/X(q)  e(spline) 
   0      8    11.939    53.033    0.11E-03    0.34E-03    0.60E-07
   0      8    11.939    34.740    0.11E-03    0.34E-03    0.59E-07
   1      8    11.939    30.949    0.22E-03    0.20E-03    0.17E-06
   1      8    11.939    19.518    0.20E-03    0.18E-03    0.16E-06
 Optimization of the real space projectors (new method)

 maximal supplied QI-value         = 25.13
 optimisation between [QCUT,QGAM] = [ 11.81, 23.88] = [ 39.08,159.64] Ry 
 Optimized for a Real-space Cutoff    1.41 Angstroem

   l    n(q)    QCUT    max X(q) W(low)/X(q) W(high)/X(q)  e(spline) 
   0     10    11.813    79.467    0.48E-04    0.30E-04    0.67E-06
   0     10    11.813    66.151    0.47E-04    0.30E-04    0.67E-06
   1     10    11.813    20.169    0.11E-03    0.17E-03    0.11E-05
   1     10    11.813    14.454    0.11E-03    0.17E-03    0.11E-05
 Optimization of the real space projectors (new method)

 maximal supplied QI-value         = 25.13
 optimisation between [QCUT,QGAM] = [ 11.81, 23.88] = [ 39.08,159.64] Ry 
 Optimized for a Real-space Cutoff    1.18 Angstroem

   l    n(q)    QCUT    max X(q) W(low)/X(q) W(high)/X(q)  e(spline) 
   0      8    11.813   115.676    0.10E-03    0.16E-03    0.35E-06
   0      8    11.813    87.132    0.10E-03    0.16E-03    0.35E-06
   1      8    11.813     4.429    0.16E-03    0.13E-04    0.22E-06
   1      8    11.813     2.733    0.13E-03    0.10E-04    0.18E-06
 Optimization of the real space projectors (new method)

 maximal supplied QI-value         = 24.76
 optimisation between [QCUT,QGAM] = [ 11.88, 24.01] = [ 39.54,161.47] Ry 
 Optimized for a Real-space Cutoff    1.18 Angstroem

   l    n(q)    QCUT    max X(q) W(low)/X(q) W(high)/X(q)  e(spline) 
   0      8    11.883    14.049    0.56E-04    0.86E-04    0.22E-06
   0      8    11.883     8.945    0.81E-04    0.11E-03    0.30E-06
   1      8    11.883     7.086    0.16E-03    0.15E-04    0.31E-06
   1      8    11.883     6.747    0.15E-03    0.14E-04    0.28E-06
 Optimization of the real space projectors (new method)

 maximal supplied QI-value         = 24.76
 optimisation between [QCUT,QGAM] = [ 11.88, 24.01] = [ 39.54,161.47] Ry 
 Optimized for a Real-space Cutoff    1.18 Angstroem

   l    n(q)    QCUT    max X(q) W(low)/X(q) W(high)/X(q)  e(spline) 
   0      8    11.883    20.381    0.86E-04    0.11E-03    0.31E-06
   0      8    11.883    15.268    0.94E-04    0.12E-03    0.33E-06
   1      8    11.883     5.964    0.19E-03    0.18E-04    0.33E-06
   1      8    11.883     5.382    0.17E-03    0.20E-04    0.29E-06
  PAW_PBE B 06Sep2000                   :
 energy of atom  1       EATOM=  -71.1703
 kinetic energy error for atom=    0.0009 (will be added to EATOM!!)
  PAW_PBE N 08Apr2002                   :
 energy of atom  2       EATOM= -264.5486
 kinetic energy error for atom=    0.0116 (will be added to EATOM!!)
  PAW_PBE C 08Apr2002                   :
 energy of atom  3       EATOM= -147.1560
 kinetic energy error for atom=    0.0066 (will be added to EATOM!!)
  PAW_PBE F 08Apr2002                   :
 energy of atom  4       EATOM= -659.6475
 kinetic energy error for atom=    0.0296 (will be added to EATOM!!)
  PAW_PBE O 08Apr2002                   :
 energy of atom  5       EATOM= -432.3788
 kinetic energy error for atom=    0.0194 (will be added to EATOM!!)
 
 
 POSCAR: B N C F O                               
  positions in direct lattice
  velocities in cartesian coordinates

 METAGGA = SCAN     LMAXTAU =  6    LMIXTAU =  F

 exchange correlation table for  LEXCH =        8
   RHO(1)=    0.500       N(1)  =     2000
   RHO(2)=  100.500       N(2)  =     4000
 


--------------------------------------------------------------------------------------------------------


 ion  position               nearest neighbor table
   1  0.111  0.056  0.500-  43 1.45  37 1.45  42 1.45
   2  0.111  0.222  0.500-  44 1.45  38 1.45  37 1.45
   3  0.111  0.389  0.500-  45 1.45  38 1.45  39 1.45
   4  0.111  0.556  0.500-  46 1.45  39 1.45  40 1.45
   5  0.111  0.722  0.500-  47 1.45  40 1.45  41 1.45
   6  0.111  0.889  0.500-  41 1.45  42 1.45  48 1.45
   7  0.278  0.056  0.500-  49 1.45  43 1.45  48 1.45
   8  0.278  0.222  0.500-  50 1.45  44 1.45  43 1.45
   9  0.278  0.389  0.500-  51 1.45  45 1.45  44 1.45
  10  0.278  0.555  0.500-  52 1.45  45 1.45  46 1.45
  11  0.278  0.722  0.500-  53 1.45  46 1.45  47 1.45
  12  0.278  0.889  0.500-  54 1.45  47 1.45  48 1.45
  13  0.444  0.055  0.500-  54 1.45  49 1.45  55 1.45
  14  0.444  0.222  0.500-  50 1.45  56 1.45  49 1.45
  15  0.445  0.389  0.499-  51 1.45  57 1.45  50 1.45
  16  0.445  0.555  0.499-  52 1.45  58 1.45  51 1.45
  17  0.444  0.722  0.500-  52 1.45  59 1.45  53 1.45
  18  0.444  0.889  0.500-  53 1.45  60 1.45  54 1.45
  19  0.611  0.055  0.500-  60 1.45  55 1.45  61 1.45
  20  0.611  0.222  0.500-  56 1.45  55 1.45  62 1.45
  21  0.611  0.389  0.499-  57 1.45  63 1.45  56 1.45
  22  0.611  0.556  0.499-  58 1.45  57 1.45  64 1.45
  23  0.611  0.722  0.500-  58 1.45  59 1.45  65 1.45
  24  0.611  0.889  0.500-  59 1.45  66 1.45  60 1.45
  25  0.778  0.055  0.500-  66 1.45  61 1.45  67 1.45
  26  0.778  0.222  0.500-  62 1.45  68 1.45  61 1.45
  27  0.778  0.389  0.500-  63 1.45  69 1.45  62 1.45
  28  0.778  0.556  0.500-  64 1.45  70 1.45  63 1.45
  29  0.778  0.722  0.500-  64 1.45  65 1.45  71 1.45
  30  0.778  0.889  0.500-  65 1.45  66 1.45  72 1.45
  31  0.944  0.056  0.500-  67 1.45  72 1.45  37 1.45
  32  0.944  0.222  0.500-  38 1.45  67 1.45  68 1.45
  33  0.944  0.389  0.500-  39 1.45  69 1.45  68 1.45
  34  0.944  0.556  0.500-  40 1.45  70 1.45  69 1.45
  35  0.944  0.722  0.500-  70 1.45  71 1.45  41 1.45
  36  0.944  0.889  0.500-  71 1.45  72 1.45  42 1.45
  37  0.056  0.111  0.500-   1 1.45   2 1.45  31 1.45
  38  0.056  0.278  0.500-  32 1.45   2 1.45   3 1.45
  39  0.056  0.444  0.500-  33 1.45   4 1.45   3 1.45
  40  0.056  0.611  0.500-  34 1.45   5 1.45   4 1.45
  41  0.056  0.778  0.500-  35 1.45   6 1.45   5 1.45
  42  0.055  0.945  0.500-   1 1.45   6 1.45  36 1.45
  43  0.222  0.111  0.500-   7 1.45   1 1.45   8 1.45
  44  0.222  0.278  0.500-   2 1.45   8 1.45   9 1.45
  45  0.222  0.444  0.500-   3 1.45  10 1.45   9 1.45
  46  0.222  0.611  0.500-   4 1.45  11 1.45  10 1.45
  47  0.222  0.778  0.500-  12 1.45   5 1.45  11 1.45
  48  0.222  0.944  0.500-   7 1.45   6 1.45  12 1.45
  49  0.389  0.111  0.500-  13 1.45   7 1.45  14 1.45
  50  0.389  0.278  0.499-  14 1.45   8 1.45  15 1.45
  51  0.389  0.444  0.499-  15 1.45   9 1.45  16 1.45
  52  0.389  0.611  0.499-  10 1.45  17 1.45  16 1.45
  53  0.389  0.778  0.500-  18 1.45  11 1.45  17 1.45
  54  0.389  0.944  0.500-  13 1.45  12 1.45  18 1.45
  55  0.555  0.111  0.500-  13 1.45  19 1.45  20 1.45
  56  0.556  0.278  0.500-  20 1.45  14 1.45  21 1.45
  57  0.556  0.444  0.498-  21 1.45  22 1.45  15 1.45
  58  0.556  0.611  0.499-  22 1.45  23 1.45  16 1.45
  59  0.556  0.778  0.500-  24 1.45  23 1.45  17 1.45
  60  0.555  0.944  0.500-  19 1.45  18 1.45  24 1.45
  61  0.722  0.111  0.500-  25 1.45  19 1.45  26 1.45
  62  0.722  0.278  0.500-  26 1.45  20 1.45  27 1.45
  63  0.722  0.445  0.500-  27 1.45  28 1.45  21 1.45
  64  0.722  0.611  0.499-  28 1.45  29 1.45  22 1.45
  65  0.722  0.778  0.500-  30 1.45  29 1.45  23 1.45
  66  0.722  0.944  0.500-  25 1.45  30 1.45  24 1.45
  67  0.889  0.111  0.500-  31 1.45  32 1.45  25 1.45
  68  0.889  0.278  0.500-  32 1.45  26 1.45  33 1.45
  69  0.889  0.444  0.500-  33 1.45  27 1.45  34 1.45
  70  0.889  0.611  0.500-  34 1.45  35 1.45  28 1.45
  71  0.889  0.778  0.500-  35 1.45  36 1.45  29 1.45
  72  0.889  0.944  0.500-  36 1.45  31 1.45  30 1.45
  73  0.545  0.469  0.604-  76 1.34  78 1.34  77 1.35  74 1.53
  74  0.493  0.515  0.629-  80 1.37  79 1.37  73 1.53  75 1.56
  75  0.437  0.560  0.605-  81 1.24  82 1.24  74 1.56
  76  0.617  0.540  0.582-  73 1.34
  77  0.591  0.431  0.627-  73 1.35
  78  0.475  0.392  0.583-  73 1.34
  79  0.428  0.439  0.653-  74 1.37
  80  0.569  0.588  0.651-  74 1.37
  81  0.493  0.652  0.596-  75 1.24
  82  0.345  0.498  0.598-  75 1.24
 
  LATTYP: Found a hexagonal cell.
 ALAT       =    15.0731507304
 C/A-ratio  =     2.3296167479
  
  Lattice vectors:
  
 A1 = (   7.5365500567, -13.0537460594,   0.0000000000)
 A2 = (   7.5365500567,  13.0537460594,   0.0000000000)
 A3 = (   0.0000000000,   0.0000000000,  35.1146643856)


Analysis of symmetry for initial positions (statically):
=====================================================================
 Subroutine PRICEL returns:
 Original cell was already a primitive cell.
 

 Routine SETGRP: Setting up the symmetry group for a 
 hexagonal supercell.


 Subroutine GETGRP returns: Found  1 space group operations
 (whereof  1 operations were pure point group operations)
 out of a pool of 24 trial point group operations.


The static configuration has the point symmetry C_1 .


Analysis of symmetry for dynamics (positions and initial velocities):
=====================================================================
 Subroutine PRICEL returns:
 Original cell was already a primitive cell.
 

 Routine SETGRP: Setting up the symmetry group for a 
 hexagonal supercell.


 Subroutine GETGRP returns: Found  1 space group operations
 (whereof  1 operations were pure point group operations)
 out of a pool of 24 trial point group operations.


The dynamic configuration has the point symmetry C_1 .


Analysis of constrained symmetry for selective dynamics:
=====================================================================
 Subroutine PRICEL returns:
 Original cell was already a primitive cell.
 

 Routine SETGRP: Setting up the symmetry group for a 
 hexagonal supercell.


 Subroutine GETGRP returns: Found  1 space group operations
 (whereof  1 operations were pure point group operations)
 out of a pool of 24 trial point group operations.


The constrained configuration has the point symmetry C_1 .


Analysis of structural, dynamic, and magnetic symmetry:
=====================================================================
 Subroutine PRICEL returns:
 Original cell was already a primitive cell.
 

 Routine SETGRP: Setting up the symmetry group for a 
 hexagonal supercell.


 Subroutine GETGRP returns: Found  1 space group operations
 (whereof  1 operations were pure point group operations)
 out of a pool of 24 trial point group operations.


The magnetic configuration has the point symmetry C_1 .


 Subroutine INISYM returns: Found  1 space group operations
 (whereof  1 operations are pure point group operations),
 and found     1 'primitive' translations

 
 
 KPOINTS: K-Point Grid                            

Automatic generation of k-mesh.
Space group operators:
 irot       det(A)        alpha          n_x          n_y          n_z        tau_x        tau_y        tau_z
    1     1.000000     0.000000     1.000000     0.000000     0.000000     0.000000     0.000000     0.000000
 
 Subroutine IBZKPT returns following result:
 ===========================================
 
 Found      5 irreducible k-points:
 
 Following reciprocal coordinates:
            Coordinates               Weight
  0.000000  0.000000  0.000000      1.000000
  0.333333  0.000000  0.000000      2.000000
  0.000000  0.333333  0.000000      2.000000
  0.333333  0.333333  0.000000      2.000000
 -0.333333  0.333333  0.000000      2.000000
 
 Following cartesian coordinates:
            Coordinates               Weight
  0.000000  0.000000  0.000000      1.000000
  0.022114 -0.012768  0.000000      2.000000
  0.022114  0.012768  0.000000      2.000000
  0.044229  0.000000  0.000000      2.000000
  0.000000  0.025535  0.000000      2.000000
 


--------------------------------------------------------------------------------------------------------




 Dimension of arrays:
   k-points           NKPTS =      5   k-points in BZ     NKDIM =      5   number of bands    NBANDS=    260
   number of dos      NEDOS =   1200   number of ions     NIONS =     82
   non local maximal  LDIM  =      4   non local SUM 2l+1 LMDIM =      8
   total plane-waves  NPLWV = ******
   max r-space proj   IRMAX =   6598   max aug-charges    IRDMAX=   8974
   dimension x,y,z NGX =   120 NGY =  120 NGZ =  270
   dimension x,y,z NGXF=   240 NGYF=  240 NGZF=  540
   support grid    NGXF=   240 NGYF=  240 NGZF=  540
   ions per type =              36  36   3   5   2
   NGX,Y,Z   is equivalent  to a cutoff of  13.24, 13.24, 12.78 a.u.
   NGXF,Y,Z  is equivalent  to a cutoff of  26.47, 26.47, 25.57 a.u.

 SYSTEM =  SiC                                     
 POSCAR =  B N C F O                               

 Startparameter for this run:
   NWRITE =      2    write-flag & timer
   PREC   = accura    normal or accurate (medium, high low for compatibility)
   ISTART =      0    job   : 0-new  1-cont  2-samecut
   ICHARG =      2    charge: 1-file 2-atom 10-const
   ISPIN  =      2    spin polarized calculation?
   LNONCOLLINEAR =      F non collinear calculations
   LSORBIT =      F    spin-orbit coupling
   INIWAV =      1    electr: 0-lowe 1-rand  2-diag
   LASPH  =      T    aspherical Exc in radial PAW
   METAGGA=      F    non-selfconsistent MetaGGA calc.

 Electronic Relaxation 1
   ENCUT  =  550.0 eV  40.42 Ry    6.36 a.u.  28.82 28.82 67.15*2*pi/ulx,y,z
   ENINI  =  550.0     initial cutoff
   ENAUG  =  644.9 eV  augmentation charge cutoff
   NELM   =    100;   NELMIN=  2; NELMDL= -5     # of ELM steps 
   EDIFF  = 0.1E-04   stopping-criterion for ELM
   LREAL  =      T    real-space projection
   NLSPLINE    = F    spline interpolate recip. space projectors
   LCOMPAT=      F    compatible to vasp.4.4
   GGA_COMPAT  = T    GGA compatible to vasp.4.4-vasp.4.6
   LMAXPAW     = -100 max onsite density
   LMAXMIX     =    2 max onsite mixed and CHGCAR
   VOSKOWN=      0    Vosko Wilk Nusair interpolation
   ROPT   =   -0.00025  -0.00025  -0.00025  -0.00025
   ROPT   =   -0.00025
 Ionic relaxation
   EDIFFG = -.5E-01   stopping-criterion for IOM
   NSW    =    500    number of steps for IOM
   NBLOCK =      1;   KBLOCK =    500    inner block; outer block 
   IBRION =      2    ionic relax: 0-MD 1-quasi-New 2-CG
   NFREE  =      1    steps in history (QN), initial steepest desc. (CG)
   ISIF   =      2    stress and relaxation
   IWAVPR =     11    prediction:  0-non 1-charg 2-wave 3-comb
   ISYM   =      2    0-nonsym 1-usesym 2-fastsym
   LCORR  =      T    Harris-Foulkes like correction to forces

   POTIM  = 0.5000    time-step for ionic-motion
   TEIN   =    0.0    initial temperature
   TEBEG  =    0.0;   TEEND  =   0.0 temperature during run
   SMASS  =  -3.00    Nose mass-parameter (am)
   estimated Nose-frequenzy (Omega)   =  0.10E-29 period in steps =****** mass=  -0.519E-26a.u.
   SCALEE = 1.0000    scale energy and forces
   NPACO  =    256;   APACO  = 16.0  distance and # of slots for P.C.
   PSTRESS=    0.0 pullay stress

  Mass of Ions in am
   POMASS =  10.81 14.00 12.01 19.00 16.00
  Ionic Valenz
   ZVAL   =   3.00  5.00  4.00  7.00  6.00
  Atomic Wigner-Seitz radii
   RWIGS  =  -1.00 -1.00 -1.00 -1.00 -1.00
  virtual crystal weights 
   VCA    =   1.00  1.00  1.00  1.00  1.00
   NELECT =     348.0000    total number of electrons
   NUPDOWN=      -1.0000    fix difference up-down

 DOS related values:
   EMIN   =  10.00;   EMAX   =-10.00  energy-range for DOS
   EFERMI =   0.00
   ISMEAR =     0;   SIGMA  =   0.05  broadening in eV -4-tet -1-fermi 0-gaus

 Electronic relaxation 2 (details)
   IALGO  =     68    algorithm
   LDIAG  =      T    sub-space diagonalisation (order eigenvalues)
   LSUBROT=      F    optimize rotation matrix (better conditioning)
   TURBO    =      0    0=normal 1=particle mesh
   IRESTART =      0    0=no restart 2=restart with 2 vectors
   NREBOOT  =      0    no. of reboots
   NMIN     =      0    reboot dimension
   EREF     =   0.00    reference energy to select bands
   IMIX   =      4    mixing-type and parameters
     AMIX     =   0.40;   BMIX     =  1.00
     AMIX_MAG =   1.60;   BMIX_MAG =  1.00
     AMIN     =   0.10
     WC   =   100.;   INIMIX=   1;  MIXPRE=   1;  MAXMIX= -45

 Intra band minimization:
   WEIMIN = 0.0010     energy-eigenvalue tresh-hold
   EBREAK =  0.96E-08  absolut break condition
   DEPER  =   0.30     relativ break condition  

   TIME   =   0.40     timestep for ELM

  volume/ion in A,a.u.               =      84.26       568.60
  Fermi-wavevector in a.u.,A,eV,Ry     =   0.604587  1.142505  4.973284  0.365526
  Thomas-Fermi vector in A             =   1.657996
 
 Write flags
   LWAVE        =      T    write WAVECAR
   LDOWNSAMPLE  =      F    k-point downsampling of WAVECAR
   LCHARG       =      F    write CHGCAR
   LVTOT        =      F    write LOCPOT, total local potential
   LVHAR        =      T    write LOCPOT, Hartree potential only
   LELF         =      F    write electronic localiz. function (ELF)
   LORBIT       =     11    0 simple, 1 ext, 2 COOP (PROOUT), +10 PAW based schemes


 Dipole corrections
   LMONO  =      F    monopole corrections only (constant potential shift)
   LDIPOL =      F    correct potential (dipole corrections)
   IDIPOL =      0    1-x, 2-y, 3-z, 4-all directions 
   EPSILON=  1.0000000 bulk dielectric constant

 Exchange correlation treatment:
   GGA     =    --    GGA type
   LEXCH   =     8    internal setting for exchange type
   VOSKOWN=      0    Vosko Wilk Nusair interpolation
   LHFCALC =     F    Hartree Fock is set to
   LHFONE  =     F    Hartree Fock one center treatment
   AEXX    =    0.0000 exact exchange contribution

 vdW DFT:
   LUSE_VDW   =     T    switch on vdW DFT
   Zab_VDW    =-.8491    correlation parameter
   PARAM1     =0.1234
   PARAM2     =1.0000
   PARAM3     =0.0000
   -- rVV10 --
   BPARAM     =15.7000
   CPARAM     = 0.0093

 Linear response parameters
   LEPSILON=     F    determine dielectric tensor
   LRPA    =     F    only Hartree local field effects (RPA)
   LNABLA  =     F    use nabla operator in PAW spheres
   LVEL    =     F    velocity operator in full k-point grid
   LINTERFAST=   F  fast interpolation
   KINTER  =     0    interpolate to denser k-point grid
   CSHIFT  =0.1000    complex shift for real part using Kramers Kronig
   OMEGAMAX=  -1.0    maximum frequency
   DEG_THRESHOLD= 0.2000000E-02 threshold for treating states as degnerate
   RTIME   =   -0.100 relaxation time in fs
  (WPLASMAI=    0.000 imaginary part of plasma frequency in eV, 0.658/RTIME)
   DFIELD  = 0.0000000 0.0000000 0.0000000 field for delta impulse in time
 
 Orbital magnetization related:
   ORBITALMAG=     F  switch on orbital magnetization
   LCHIMAG   =     F  perturbation theory with respect to B field
   DQ        =  0.001000  dq finite difference perturbation B field
   LLRAUG    =     F  two centre corrections for induced B field

 Solvation model:
   LSOL    =     T         switch on solvation model
   EB_K    = 78.400000     relative permittivity of the bulk solvent
   SIGMA_K =  0.600000     width of the dielectric cavity
   NC_K    =  0.002500     cutoff charge density
   TAU     =  0.000000     cavity surface tension
   LAMBDA_D_K    =  3.040000     Debye length in Angstroms
   LRHOB     =     F     write boundcharge  density
   LRHOION     =     F     write ioniccharge density



--------------------------------------------------------------------------------------------------------


 conjugate gradient relaxation of ions
   using selective dynamics as specified on POSCAR
 charge density and potential will be updated during run
 spin polarized calculation
 RMM-DIIS sequential band-by-band and
  variant of blocked Davidson during initial phase
 perform sub-space diagonalisation
    before iterative eigenvector-optimisation
 modified Broyden-mixing scheme, WC =      100.0
 initial mixing is a Kerker type mixing with AMIX =  0.4000 and BMIX =      1.0000
 Hartree-type preconditioning will be used
 using additional bands           86
 real space projection scheme for non local part
 use partial core corrections
 calculate Harris-corrections to forces 
   (improved forces if not selfconsistent)
 use gradient corrections 
 use of overlap-Matrix (Vanderbilt PP)
 Gauss-broadening in eV      SIGMA  =   0.05


--------------------------------------------------------------------------------------------------------


  energy-cutoff  :      550.00
  volume of cell :     6909.18
      direct lattice vectors                 reciprocal lattice vectors
     7.536550057-13.053746059  0.000000000     0.066343353 -0.038303181  0.000000000
     7.536550057 13.053746059  0.000000000     0.066343353  0.038303181  0.000000000
     0.000000000  0.000000000 35.114664386     0.000000000  0.000000000  0.028478131

  length of vectors
    15.073150730 15.073150730 35.114664386     0.076606620  0.076606620  0.028478131


 
 k-points in units of 2pi/SCALE and weight: K-Point Grid                            
   0.00000000  0.00000000  0.00000000       0.111
   0.02211445 -0.01276773  0.00000000       0.222
   0.02211445  0.01276773  0.00000000       0.222
   0.04422890  0.00000000  0.00000000       0.222
   0.00000000  0.02553545  0.00000000       0.222
 
 k-points in reciprocal lattice and weights: K-Point Grid                            
   0.00000000  0.00000000  0.00000000       0.111
   0.33333333  0.00000000  0.00000000       0.222
   0.00000000  0.33333333  0.00000000       0.222
   0.33333333  0.33333333  0.00000000       0.222
  -0.33333333  0.33333333  0.00000000       0.222
 
 position of ions in fractional coordinates (direct lattice) 
   0.11107471  0.05564530  0.50018542
   0.11114110  0.22231837  0.50022912
   0.11114759  0.38893262  0.49998851
   0.11113542  0.55554831  0.50020679
   0.11112062  0.72222487  0.50012697
   0.11103516  0.88892633  0.50000511
   0.27774812  0.05555191  0.50006403
   0.27777173  0.22222630  0.50003280
   0.27787288  0.38892292  0.49989499
   0.27791003  0.55545659  0.49986280
   0.27777735  0.72211870  0.50029305
   0.27775818  0.88885541  0.50012840
   0.44434179  0.05546065  0.50018846
   0.44438294  0.22222251  0.49977297
   0.44450459  0.38889852  0.49894928
   0.44450383  0.55546828  0.49939845
   0.44444986  0.72197449  0.49991261
   0.44435045  0.88872447  0.50024777
   0.61099433  0.05545707  0.50015616
   0.61103075  0.22215605  0.50015163
   0.61110454  0.38891505  0.49915362
   0.61111727  0.55552766  0.49870365
   0.61100289  0.72205238  0.49975416
   0.61097579  0.88872081  0.50005101
   0.77766072  0.05548477  0.50001304
   0.77772047  0.22222920  0.50010247
   0.77777148  0.38893549  0.50012686
   0.77781392  0.55565096  0.49952612
   0.77775277  0.72223395  0.49977896
   0.77765486  0.88883821  0.50018935
   0.94437050  0.05557519  0.50011643
   0.94445325  0.22223603  0.49999415
   0.94443574  0.38891909  0.50011418
   0.94448321  0.55560642  0.50015540
   0.94443486  0.72222874  0.49996813
   0.94434607  0.88890006  0.50011254
   0.05551048  0.11119551  0.50021244
   0.05552856  0.27780796  0.50006150
   0.05550022  0.44443370  0.50006123
   0.05555888  0.61111194  0.50022582
   0.05554079  0.77779504  0.49997143
   0.05548874  0.94451516  0.50004318
   0.22218579  0.11109419  0.50019837
   0.22218661  0.27773770  0.50028661
   0.22211674  0.44431239  0.49979412
   0.22217997  0.61101665  0.50022623
   0.22222118  0.77775591  0.50021595
   0.22218809  0.94444120  0.49999471
   0.38885129  0.11106805  0.50006648
   0.38884809  0.27771884  0.49948657
   0.38891081  0.44430111  0.49922795
   0.38889080  0.61098800  0.49930617
   0.38886343  0.77767334  0.50027951
   0.38885251  0.94438005  0.50022148
   0.55545040  0.11102798  0.50026853
   0.55552809  0.27773048  0.49976717
   0.55563681  0.44439364  0.49822050
   0.55566039  0.61105507  0.49897797
   0.55558475  0.77775522  0.49981853
   0.55546081  0.94436907  0.50011173
   0.72213567  0.11108159  0.50001354
   0.72216756  0.27777897  0.50029998
   0.72226944  0.44450060  0.49967836
   0.72231086  0.61117465  0.49903989
   0.72220427  0.77778491  0.50008583
   0.72211951  0.94440007  0.50012043
   0.88880730  0.11110897  0.49995422
   0.88886343  0.27777605  0.50000230
   0.88889072  0.44448238  0.50026156
   0.88893968  0.61114375  0.49994181
   0.88889417  0.77779285  0.49999896
   0.88878618  0.94445053  0.50020243
   0.54471739  0.46871017  0.60449231
   0.49333593  0.51509181  0.62854651
   0.43715646  0.56027173  0.60489592
   0.61654795  0.53965200  0.58154862
   0.59105212  0.43065724  0.62662680
   0.47533111  0.39159443  0.58281406
   0.42768813  0.43875108  0.65267250
   0.56900832  0.58821406  0.65102857
   0.49256192  0.65158160  0.59568398
   0.34520787  0.49831469  0.59845715
 
 position of ions in cartesian coordinates  (Angst):
   1.25649367 -0.72356149 17.56384326
   2.51313398  1.45127997 17.56537764
   3.76887953  3.62613520 17.55692859
   5.02449527  5.80125301 17.56459372
   6.28055007  7.97719970 17.56179072
   7.53625989 10.15439380 17.55751150
   2.51193238 -2.90049290 17.55958055
   3.76826019 -0.72507592 17.55848411
   5.02533993  1.44961892 17.55364488
   6.28070930  3.62302231 17.55251443
   7.53576663  5.80031908 17.56762239
   8.79224167  7.97710806 17.56184098
   3.76678608 -5.07635570 17.56394978
   5.02390530 -2.90002588 17.54936000
   6.28098429 -0.72586755 17.52043652
   7.53633984  1.44850173 17.53620899
   8.79081550  3.62273593 17.55426356
  10.04678586  5.80074573 17.56603247
   5.02274432 -7.25184229 17.56281561
   6.27935406 -5.07627162 17.56265653
   7.53669774 -2.90040519 17.52761182
   8.79247787 -0.72565263 17.51181131
  10.04663775  1.44961192 17.54869978
  11.30253852  3.62561298 17.55912329
   6.27904263 -9.42710148 17.55778992
   7.53617076 -7.25124193 17.56093052
   8.79294543 -5.07576626 17.56178696
  10.04972477 -2.90005883 17.54069205
  11.30472501 -0.72472868 17.54957041
  12.55960839  1.45135918 17.56398117
   7.53614078-11.60210833 17.56142075
   8.79281216 -9.42764011 17.55712682
  10.04889545 -7.25157326 17.56134142
  11.30550063 -5.07629886 17.56278891
  12.56089362 -2.90062234 17.55621314
  13.81635126 -0.72377814 17.56128385
   1.25638803  0.72689813 17.56479191
   2.51220743  2.90157887 17.55949169
   3.76777701  5.07703897 17.55948235
   5.02439801  7.25204866 17.56526181
   6.28047717  9.42812365 17.55632907
   7.53657942 11.60512518 17.55884838
   2.51178127 -1.45016154 17.56429785
   3.76770454  0.72514985 17.56739643
   5.02257654  2.90048561 17.55010286
   6.27942804  5.07577517 17.56527627
   7.53637743  7.25180927 17.56491508
   8.79236005  9.42810876 17.55714652
   3.76766716 -3.62611191 17.55966653
   5.02361511 -1.45065301 17.53930344
   6.27954341  0.72305091 17.53022198
   7.53563665  2.89920040 17.53296844
   8.79166279  5.07542582 17.56714711
  10.04797391  7.25171536 17.56510936
   5.02294770 -5.80137743 17.56676146
   6.27989493 -3.62629936 17.54915628
   7.53677959 -1.45214013 17.49484562
   8.79300950  0.72310802 17.52144388
  10.04878345  2.90015689 17.55095992
  11.30354293  5.07670967 17.56125546
   6.27958364 -7.97654477 17.55780782
   7.53614706 -5.80093570 17.56786579
   8.79342082 -3.62592387 17.54603797
  10.04988028 -1.45074388 17.52361841
  11.30474356  0.72553547 17.56034621
  12.55980826  2.90159407 17.56156101
   7.53591904-10.15187654 17.55572472
   8.79243683 -7.97697949 17.55741280
  10.04903311 -5.80119371 17.56651662
  11.30545385 -3.62627752 17.55528876
  12.56107016 -1.45028841 17.55729581
  13.81628022  0.72662836 17.56444038
   7.63774755 -0.99217902 21.22654471
   7.60006614  0.28399567 22.07119978
   7.51716748  1.60711549 21.24071738
   8.71375877 -1.00378021 20.42088463
   7.70016372 -2.09375414 22.00378984
   6.53362770 -1.09307736 20.46532021
   6.52996244  0.14441290 22.91837566
   8.72146444  0.25070689 22.86064991
   8.62289496  2.07580251 20.91724306
   6.35725000  1.99861750 21.01462194
 


--------------------------------------------------------------------------------------------------------


 k-point  1 :   0.0000 0.0000 0.0000  plane waves:  202395
 k-point  2 :   0.3333 0.0000 0.0000  plane waves:  202358
 k-point  3 :   0.0000 0.3333 0.0000  plane waves:  202358
 k-point  4 :   0.3333 0.3333 0.0000  plane waves:  202335
 k-point  5 :  -0.3333 0.3333 0.0000  plane waves:  202358

 maximum and minimum number of plane-waves per node :      8479     8400

 maximum number of plane-waves:    202395
 maximum index in each direction: 
   IXMAX=   29   IYMAX=   28   IZMAX=   67
   IXMIN=  -29   IYMIN=  -29   IZMIN=  -67


 real space projection operators:
  total allocation   :      25036.75 KBytes
  max/ min on nodes  :       1055.38       1032.06


 parallel 3D FFT for wavefunctions:
    minimum data exchange during FFTs selected (reduces bandwidth)
 parallel 3D FFT for charge:
    minimum data exchange during FFTs selected (reduces bandwidth)


 total amount of memory used by VASP MPI-rank0   216384. kBytes
=======================================================================

   base      :      30000. kBytes
   nonlr-proj:      10477. kBytes
   fftplans  :      17498. kBytes
   grid      :      70152. kBytes
   one-center:         24. kBytes
   wavefun   :      88233. kBytes
 
     INWAV:  cpu time    0.0001: real time    0.0016
 Broyden mixing: mesh for mixing (old mesh)
   NGX = 57   NGY = 57   NGZ =135
  (NGX  =240   NGY  =240   NGZ  =540)
  gives a total of 438615 points

 initial charge density was supplied:
 charge density of overlapping atoms calculated
 number of electron     347.0000000 magnetization      82.0000000
 keeping initial charge density in first step


--------------------------------------------------------------------------------------------------------


 Maximum index for non-local projection operator          370
 Maximum index for augmentation-charges          389 (set IRDMAX)


--------------------------------------------------------------------------------------------------------


 First call to EWALD:  gamma=   0.093
 Maximum number of real-space cells 4x 4x 2
 Maximum number of reciprocal cells 2x 2x 5

    FEWALD:  cpu time    0.0031: real time    0.0152


--------------------------------------- Iteration      1(   1)  ---------------------------------------


    POTLOK:  cpu time   34.2576: real time   34.6301
    SETDIJ:  cpu time    0.4033: real time    0.5240
     EDDAV:  cpu time  156.4204: real time  157.1893
       DOS:  cpu time    0.0029: real time    0.0108
    --------------------------------------------
      LOOP:  cpu time  191.0842: real time  192.3543

 eigenvalue-minimisations  :  6136
 total energy-change (2. order) : 0.3538139E+04  (-0.1184743E+05)
 number of electron     347.0000000 magnetization      82.0000000
 augmentation part      347.0000000 magnetization      82.0000000

 Free energy of the ion-electron system (eV)
  ---------------------------------------------------
  alpha Z        PSCENC =        92.14382556
  Ewald energy   TEWEN  =    117366.36114181
  -Hartree energ DENC   =   -130061.22660657
  -exchange      EXHF   =         0.00000000
  -V(xc)+E(xc)   XCENC  =      1478.67065578
  PAW double counting   =     12389.81687870   -12541.43845553
  entropy T*S    EENTRO =        -0.05583290
  eigenvalues    EBANDS =     -2266.56009875
  atomic energy  EATOM  =     16689.68470767
  Solvation  Ediel_sol  =       390.74252536
  ---------------------------------------------------
  free energy    TOTEN  =      3538.13874113 eV

  energy without entropy =     3538.19457404  energy(sigma->0) =     3538.16665759


--------------------------------------------------------------------------------------------------------




--------------------------------------- Iteration      1(   2)  ---------------------------------------


     EDDAV:  cpu time  200.4252: real time  200.7899
       DOS:  cpu time    0.0027: real time    0.0027
    --------------------------------------------
      LOOP:  cpu time  200.4279: real time  200.7926

 eigenvalue-minimisations  :  8336
 total energy-change (2. order) :-0.3449781E+04  (-0.3143811E+04)
 number of electron     347.0000000 magnetization      82.0000000
 augmentation part      347.0000000 magnetization      82.0000000

 Free energy of the ion-electron system (eV)
  ---------------------------------------------------
  alpha Z        PSCENC =        92.14382556
  Ewald energy   TEWEN  =    117366.36114181
  -Hartree energ DENC   =   -130061.22660657
  -exchange      EXHF   =         0.00000000
  -V(xc)+E(xc)   XCENC  =      1478.67065578
  PAW double counting   =     12389.81687870   -12541.43845553
  entropy T*S    EENTRO =        -0.00597875
  eigenvalues    EBANDS =     -5716.39143854
  atomic energy  EATOM  =     16689.68470767
  Solvation  Ediel_sol  =       390.74252536
  ---------------------------------------------------
  free energy    TOTEN  =        88.35725549 eV

  energy without entropy =       88.36323425  energy(sigma->0) =       88.36024487


--------------------------------------------------------------------------------------------------------




--------------------------------------- Iteration      1(   3)  ---------------------------------------


     EDDAV:  cpu time  169.4621: real time  169.7588
       DOS:  cpu time    0.0020: real time    0.0020
    --------------------------------------------
      LOOP:  cpu time  169.4641: real time  169.7608

 eigenvalue-minimisations  :  6672
 total energy-change (2. order) :-0.9520932E+03  (-0.9414963E+03)
 number of electron     347.0000000 magnetization      82.0000000
 augmentation part      347.0000000 magnetization      82.0000000

 Free energy of the ion-electron system (eV)
  ---------------------------------------------------
  alpha Z        PSCENC =        92.14382556
  Ewald energy   TEWEN  =    117366.36114181
  -Hartree energ DENC   =   -130061.22660657
  -exchange      EXHF   =         0.00000000
  -V(xc)+E(xc)   XCENC  =      1478.67065578
  PAW double counting   =     12389.81687870   -12541.43845553
  entropy T*S    EENTRO =        -0.00000000
  eigenvalues    EBANDS =     -6668.49062245
  atomic energy  EATOM  =     16689.68470767
  Solvation  Ediel_sol  =       390.74252536
  ---------------------------------------------------
  free energy    TOTEN  =      -863.73594967 eV

  energy without entropy =     -863.73594967  energy(sigma->0) =     -863.73594967


--------------------------------------------------------------------------------------------------------




--------------------------------------- Iteration      1(   4)  ---------------------------------------


     EDDAV:  cpu time  162.6070: real time  162.8707
       DOS:  cpu time    0.0019: real time    0.0020
    --------------------------------------------
      LOOP:  cpu time  162.6089: real time  162.8727

 eigenvalue-minimisations  :  6512
 total energy-change (2. order) :-0.4799669E+02  (-0.4757449E+02)
 number of electron     347.0000000 magnetization      82.0000000
 augmentation part      347.0000000 magnetization      82.0000000

 Free energy of the ion-electron system (eV)
  ---------------------------------------------------
  alpha Z        PSCENC =        92.14382556
  Ewald energy   TEWEN  =    117366.36114181
  -Hartree energ DENC   =   -130061.22660657
  -exchange      EXHF   =         0.00000000
  -V(xc)+E(xc)   XCENC  =      1478.67065578
  PAW double counting   =     12389.81687870   -12541.43845553
  entropy T*S    EENTRO =        -0.00000000
  eigenvalues    EBANDS =     -6716.48731638
  atomic energy  EATOM  =     16689.68470767
  Solvation  Ediel_sol  =       390.74252536
  ---------------------------------------------------
  free energy    TOTEN  =      -911.73264359 eV

  energy without entropy =     -911.73264359  energy(sigma->0) =     -911.73264359


--------------------------------------------------------------------------------------------------------




--------------------------------------- Iteration      1(   5)  ---------------------------------------


     EDDAV:  cpu time  161.5170: real time  161.7776
       DOS:  cpu time    0.0020: real time    0.0020
    CHARGE:  cpu time   28.7704: real time   28.9198
    MIXING:  cpu time    0.0171: real time    0.0175
    --------------------------------------------
      LOOP:  cpu time  190.3065: real time  190.7169

 eigenvalue-minimisations  :  6432
 total energy-change (2. order) :-0.9850455E+00  (-0.9816926E+00)
 number of electron     347.9999968 magnetization      77.9296701
 augmentation part       18.6015464 magnetization      78.3864590

 Broyden mixing:
  rms(total) = 0.66305E+01    rms(broyden)= 0.66295E+01
  rms(prec ) = 0.67270E+01
  weight for this iteration     100.00

 Free energy of the ion-electron system (eV)
  ---------------------------------------------------
  alpha Z        PSCENC =        92.14382556
  Ewald energy   TEWEN  =    117366.36114181
  -Hartree energ DENC   =   -130061.22660657
  -exchange      EXHF   =         0.00000000
  -V(xc)+E(xc)   XCENC  =      1478.67065578
  PAW double counting   =     12389.81687870   -12541.43845553
  entropy T*S    EENTRO =        -0.00000000
  eigenvalues    EBANDS =     -6717.47236189
  atomic energy  EATOM  =     16689.68470767
  Solvation  Ediel_sol  =       390.74252536
  ---------------------------------------------------
  free energy    TOTEN  =      -912.71768911 eV

  energy without entropy =     -912.71768911  energy(sigma->0) =     -912.71768911


--------------------------------------------------------------------------------------------------------




--------------------------------------- Iteration      1(   6)  ---------------------------------------


    POTLOK:  cpu time   32.6237: real time   32.6952
    SETDIJ:  cpu time    0.4229: real time    0.4238
    EDDIAG:  cpu time   33.5012: real time   33.5741
  RMM-DIIS:  cpu time  190.3543: real time  190.7438
    ORTHCH:  cpu time    0.8259: real time    0.8277
       DOS:  cpu time    0.0018: real time    0.0018
    CHARGE:  cpu time   28.9042: real time   28.9636
    MIXING:  cpu time    0.0160: real time    0.0170
    --------------------------------------------
      LOOP:  cpu time  286.6499: real time  287.2471

 eigenvalue-minimisations  :  5200
 total energy-change (2. order) : 0.2567217E+03  (-0.3069631E+02)
 number of electron     347.9999972 magnetization      73.0560510
 augmentation part       17.5305456 magnetization      71.8099214

 Broyden mixing:
  rms(total) = 0.34220E+01    rms(broyden)= 0.34217E+01
  rms(prec ) = 0.34697E+01
  weight for this iteration     100.00

 eigenvalues of (default mixing * dielectric matrix)
  average eigenvalue GAMMA=   1.0698
  1.0698

 Free energy of the ion-electron system (eV)
  ---------------------------------------------------
  alpha Z        PSCENC =        92.14382556
  Ewald energy   TEWEN  =    117366.36114181
  -Hartree energ DENC   =   -130793.19930359
  -exchange      EXHF   =         0.00000000
  -V(xc)+E(xc)   XCENC  =      1636.28275664
  PAW double counting   =     20315.34735809   -20474.36564327
  entropy T*S    EENTRO =        -0.00000000
  eigenvalues    EBANDS =     -5813.99597094
  atomic energy  EATOM  =     16689.68470767
  Solvation  Ediel_sol  =       325.74510370
  ---------------------------------------------------
  free energy    TOTEN  =      -655.99602432 eV

  energy without entropy =     -655.99602432  energy(sigma->0) =     -655.99602432


--------------------------------------------------------------------------------------------------------




--------------------------------------- Iteration      1(   7)  ---------------------------------------


    POTLOK:  cpu time   32.2381: real time   32.3581
    SETDIJ:  cpu time    0.4232: real time    0.4242
    EDDIAG:  cpu time   35.5535: real time   35.6212
  RMM-DIIS:  cpu time  200.0944: real time  200.4950
    ORTHCH:  cpu time    0.8608: real time    0.8628
       DOS:  cpu time    0.0018: real time    0.0018
    CHARGE:  cpu time   28.8113: real time   28.8661
    MIXING:  cpu time    0.0162: real time    0.0162
    --------------------------------------------
      LOOP:  cpu time  297.9994: real time  298.6454

 eigenvalue-minimisations  :  5200
 total energy-change (2. order) :-0.3836787E+02  (-0.8567327E+01)
 number of electron     347.9999975 magnetization      69.0612337
 augmentation part       16.3879804 magnetization      67.5143952

 Broyden mixing:
  rms(total) = 0.23296E+01    rms(broyden)= 0.23294E+01
  rms(prec ) = 0.23457E+01
  weight for this iteration     100.00

 eigenvalues of (default mixing * dielectric matrix)
  average eigenvalue GAMMA=   1.0523
  1.3006  0.8039

 Free energy of the ion-electron system (eV)
  ---------------------------------------------------
  alpha Z        PSCENC =        92.14382556
  Ewald energy   TEWEN  =    117366.36114181
  -Hartree energ DENC   =   -131344.47203886
  -exchange      EXHF   =         0.00000000
  -V(xc)+E(xc)   XCENC  =      1635.65874335
  PAW double counting   =     29147.06123132   -29311.41756848
  entropy T*S    EENTRO =        -0.00000000
  eigenvalues    EBANDS =     -5260.76481788
  atomic energy  EATOM  =     16689.68470767
  Solvation  Ediel_sol  =       291.38087900
  ---------------------------------------------------
  free energy    TOTEN  =      -694.36389651 eV

  energy without entropy =     -694.36389651  energy(sigma->0) =     -694.36389651


--------------------------------------------------------------------------------------------------------




--------------------------------------- Iteration      1(   8)  ---------------------------------------


    POTLOK:  cpu time   31.9294: real time   32.0026
    SETDIJ:  cpu time    0.4225: real time    0.4236
    EDDIAG:  cpu time   33.4662: real time   33.5089
  RMM-DIIS:  cpu time  190.7088: real time  191.0847
    ORTHCH:  cpu time    0.8186: real time    0.8204
       DOS:  cpu time    0.0019: real time    0.0019
    CHARGE:  cpu time   28.9427: real time   29.0004
    MIXING:  cpu time    0.0167: real time    0.0167
    --------------------------------------------
      LOOP:  cpu time  286.3069: real time  286.8592

 eigenvalue-minimisations  :  5200
 total energy-change (2. order) :-0.5487353E+01  (-0.1223726E+01)
 number of electron     347.9999975 magnetization      61.2237901
 augmentation part       16.2687080 magnetization      59.8265111

 Broyden mixing:
  rms(total) = 0.17526E+01    rms(broyden)= 0.17526E+01
  rms(prec ) = 0.17626E+01
  weight for this iteration     100.00

 eigenvalues of (default mixing * dielectric matrix)
  average eigenvalue GAMMA=   1.2768
  1.8041  1.3114  0.7149

 Free energy of the ion-electron system (eV)
  ---------------------------------------------------
  alpha Z        PSCENC =        92.14382556
  Ewald energy   TEWEN  =    117366.36114181
  -Hartree energ DENC   =   -131537.46721102
  -exchange      EXHF   =         0.00000000
  -V(xc)+E(xc)   XCENC  =      1635.76953107
  PAW double counting   =     34193.39507256   -34359.73383284
  entropy T*S    EENTRO =        -0.00000000
  eigenvalues    EBANDS =     -5071.33636137
  atomic energy  EATOM  =     16689.68470767
  Solvation  Ediel_sol  =       291.33187743
  ---------------------------------------------------
  free energy    TOTEN  =      -699.85124913 eV

  energy without entropy =     -699.85124913  energy(sigma->0) =     -699.85124913


--------------------------------------------------------------------------------------------------------




--------------------------------------- Iteration      1(   9)  ---------------------------------------


    POTLOK:  cpu time   32.7894: real time   32.8656
    SETDIJ:  cpu time    0.4211: real time    0.4222
    EDDIAG:  cpu time   33.5349: real time   33.5927
  RMM-DIIS:  cpu time  190.3546: real time  190.7121
    ORTHCH:  cpu time    0.8222: real time    0.8240
       DOS:  cpu time    0.0020: real time    0.0020
    CHARGE:  cpu time   28.7089: real time   28.7627
    MIXING:  cpu time    0.0170: real time    0.0171
    --------------------------------------------
      LOOP:  cpu time  286.6501: real time  287.1984

 eigenvalue-minimisations  :  5200
 total energy-change (2. order) :-0.4685623E+02  (-0.2787416E+01)
 number of electron     347.9999976 magnetization      57.1691195
 augmentation part       16.3521467 magnetization      56.0465261

 Broyden mixing:
  rms(total) = 0.11737E+01    rms(broyden)= 0.11737E+01
  rms(prec ) = 0.11778E+01
  weight for this iteration     100.00

 eigenvalues of (default mixing * dielectric matrix)
  average eigenvalue GAMMA=   1.3646
  2.6223  1.4152  0.7962  0.6249

 Free energy of the ion-electron system (eV)
  ---------------------------------------------------
  alpha Z        PSCENC =        92.14382556
  Ewald energy   TEWEN  =    117366.36114181
  -Hartree energ DENC   =   -131804.58957807
  -exchange      EXHF   =         0.00000000
  -V(xc)+E(xc)   XCENC  =      1609.79651147
  PAW double counting   =     41034.51670933   -41201.56156347
  entropy T*S    EENTRO =        -0.00000000
  eigenvalues    EBANDS =     -4857.24119913
  atomic energy  EATOM  =     16689.68470767
  Solvation  Ediel_sol  =       324.18196139
  ---------------------------------------------------
  free energy    TOTEN  =      -746.70748343 eV

  energy without entropy =     -746.70748343  energy(sigma->0) =     -746.70748343


--------------------------------------------------------------------------------------------------------




--------------------------------------- Iteration      1(  10)  ---------------------------------------


    POTLOK:  cpu time   31.5516: real time   31.6239
    SETDIJ:  cpu time    0.4230: real time    0.4243
    EDDIAG:  cpu time   33.5496: real time   33.5992
  RMM-DIIS:  cpu time  191.0252: real time  191.3806
    ORTHCH:  cpu time    0.8288: real time    0.8306
       DOS:  cpu time    0.0020: real time    0.0020
    CHARGE:  cpu time   28.9941: real time   29.0489
    MIXING:  cpu time    0.0187: real time    0.0192
    --------------------------------------------
      LOOP:  cpu time  286.3931: real time  286.9287

 eigenvalue-minimisations  :  5206
 total energy-change (2. order) :-0.1828024E+02  (-0.8794140E+00)
 number of electron     347.9999976 magnetization      50.3091988
 augmentation part       16.2816682 magnetization      49.4020217

 Broyden mixing:
  rms(total) = 0.10054E+01    rms(broyden)= 0.10053E+01
  rms(prec ) = 0.10089E+01
  weight for this iteration     100.00

 eigenvalues of (default mixing * dielectric matrix)
  average eigenvalue GAMMA=   1.2807
  2.5294  1.5658  0.8472  0.8472  0.6138

 Free energy of the ion-electron system (eV)
  ---------------------------------------------------
  alpha Z        PSCENC =        92.14382556
  Ewald energy   TEWEN  =    117366.36114181
  -Hartree energ DENC   =   -131921.28653505
  -exchange      EXHF   =         0.00000000
  -V(xc)+E(xc)   XCENC  =      1599.46345599
  PAW double counting   =     42495.68432387   -42663.45292262
  entropy T*S    EENTRO =        -0.00000000
  eigenvalues    EBANDS =     -4790.97495949
  atomic energy  EATOM  =     16689.68470767
  Solvation  Ediel_sol  =       367.38923637
  ---------------------------------------------------
  free energy    TOTEN  =      -764.98772588 eV

  energy without entropy =     -764.98772588  energy(sigma->0) =     -764.98772588


--------------------------------------------------------------------------------------------------------




--------------------------------------- Iteration      1(  11)  ---------------------------------------


    POTLOK:  cpu time   31.6612: real time   31.7313
    SETDIJ:  cpu time    0.4214: real time    0.4223
    EDDIAG:  cpu time   33.5263: real time   33.5689
  RMM-DIIS:  cpu time  190.3447: real time  190.7048
    ORTHCH:  cpu time    0.8250: real time    0.8269
       DOS:  cpu time    0.0020: real time    0.0020
    CHARGE:  cpu time   28.7679: real time   28.8227
    MIXING:  cpu time    0.0177: real time    0.0178
    --------------------------------------------
      LOOP:  cpu time  285.5662: real time  286.0968

 eigenvalue-minimisations  :  5200
 total energy-change (2. order) :-0.1960716E+02  (-0.1436801E+01)
 number of electron     347.9999977 magnetization      36.4933064
 augmentation part       16.0891416 magnetization      35.8303327

 Broyden mixing:
  rms(total) = 0.80491E+00    rms(broyden)= 0.80481E+00
  rms(prec ) = 0.80732E+00
  weight for this iteration     100.00

 eigenvalues of (default mixing * dielectric matrix)
  average eigenvalue GAMMA=   1.6815
  3.9854  2.5984  1.2861  0.8083  0.8083  0.6023

 Free energy of the ion-electron system (eV)
  ---------------------------------------------------
  alpha Z        PSCENC =        92.14382556
  Ewald energy   TEWEN  =    117366.36114181
  -Hartree energ DENC   =   -132036.76307500
  -exchange      EXHF   =         0.00000000
  -V(xc)+E(xc)   XCENC  =      1586.56682192
  PAW double counting   =     41436.19391211   -41603.74332141
  entropy T*S    EENTRO =        -0.00000000
  eigenvalues    EBANDS =     -4796.46260927
  atomic energy  EATOM  =     16689.68470767
  Solvation  Ediel_sol  =       481.42371478
  ---------------------------------------------------
  free energy    TOTEN  =      -784.59488181 eV

  energy without entropy =     -784.59488181  energy(sigma->0) =     -784.59488181


--------------------------------------------------------------------------------------------------------




--------------------------------------- Iteration      1(  12)  ---------------------------------------


    POTLOK:  cpu time   31.8782: real time   31.9503
    SETDIJ:  cpu time    0.4219: real time    0.4233
    EDDIAG:  cpu time   33.5452: real time   33.6107
  RMM-DIIS:  cpu time  190.3542: real time  190.7202
    ORTHCH:  cpu time    0.8261: real time    0.8280
       DOS:  cpu time    0.0018: real time    0.0018
    CHARGE:  cpu time   28.8767: real time   28.9307
    MIXING:  cpu time    0.0188: real time    0.0188
    --------------------------------------------
      LOOP:  cpu time  285.9228: real time  286.4838

 eigenvalue-minimisations  :  5202
 total energy-change (2. order) :-0.1809064E+02  (-0.1929893E+01)
 number of electron     347.9999977 magnetization      29.9642937
 augmentation part       16.0619418 magnetization      29.6398408

 Broyden mixing:
  rms(total) = 0.52924E+00    rms(broyden)= 0.52911E+00
  rms(prec ) = 0.53143E+00
  weight for this iteration     100.00

 eigenvalues of (default mixing * dielectric matrix)
  average eigenvalue GAMMA=   1.8157
  5.6861  2.2679  1.4459  0.9885  0.9885  0.7274  0.6056

 Free energy of the ion-electron system (eV)
  ---------------------------------------------------
  alpha Z        PSCENC =        92.14382556
  Ewald energy   TEWEN  =    117366.36114181
  -Hartree energ DENC   =   -132222.27652024
  -exchange      EXHF   =         0.00000000
  -V(xc)+E(xc)   XCENC  =      1569.75674792
  PAW double counting   =     40492.39129426   -40658.97129694
  entropy T*S    EENTRO =        -0.00000000
  eigenvalues    EBANDS =     -4836.15805851
  atomic energy  EATOM  =     16689.68470767
  Solvation  Ediel_sol  =       704.38263466
  ---------------------------------------------------
  free energy    TOTEN  =      -802.68552380 eV

  energy without entropy =     -802.68552380  energy(sigma->0) =     -802.68552380


--------------------------------------------------------------------------------------------------------




--------------------------------------- Iteration      1(  13)  ---------------------------------------


    POTLOK:  cpu time   31.2235: real time   31.2936
    SETDIJ:  cpu time    0.4234: real time    0.4245
    EDDIAG:  cpu time   33.5836: real time   33.6360
  RMM-DIIS:  cpu time  190.3290: real time  190.7074
    ORTHCH:  cpu time    0.8252: real time    0.8271
       DOS:  cpu time    0.0018: real time    0.0018
    CHARGE:  cpu time   28.6951: real time   28.7538
    MIXING:  cpu time    0.0189: real time    0.0190
    --------------------------------------------
      LOOP:  cpu time  285.1005: real time  285.6633

 eigenvalue-minimisations  :  5200
 total energy-change (2. order) :-0.1080449E+01  (-0.3063593E+00)
 number of electron     347.9999977 magnetization      24.7674389
 augmentation part       16.1259583 magnetization      24.5712941

 Broyden mixing:
  rms(total) = 0.41844E+00    rms(broyden)= 0.41839E+00
  rms(prec ) = 0.41943E+00
  weight for this iteration     100.00

 eigenvalues of (default mixing * dielectric matrix)
  average eigenvalue GAMMA=   1.9477
  7.5379  2.4141  1.3610  1.3610  0.8104  0.8104  0.6171  0.6693

 Free energy of the ion-electron system (eV)
  ---------------------------------------------------
  alpha Z        PSCENC =        92.14382556
  Ewald energy   TEWEN  =    117366.36114181
  -Hartree energ DENC   =   -132293.25975899
  -exchange      EXHF   =         0.00000000
  -V(xc)+E(xc)   XCENC  =      1569.06175098
  PAW double counting   =     40955.85172295   -41122.48268320
  entropy T*S    EENTRO =        -0.00000000
  eigenvalues    EBANDS =     -4844.45912192
  atomic energy  EATOM  =     16689.68470767
  Solvation  Ediel_sol  =       783.33244279
  ---------------------------------------------------
  free energy    TOTEN  =      -803.76597235 eV

  energy without entropy =     -803.76597235  energy(sigma->0) =     -803.76597235


--------------------------------------------------------------------------------------------------------




--------------------------------------- Iteration      1(  14)  ---------------------------------------


    POTLOK:  cpu time   31.3746: real time   31.4440
    SETDIJ:  cpu time    0.4237: real time    0.4246
    EDDIAG:  cpu time   33.6472: real time   33.7147
  RMM-DIIS:  cpu time  191.0663: real time  191.4458
    ORTHCH:  cpu time    0.8201: real time    0.8222
       DOS:  cpu time    0.0018: real time    0.0018
    CHARGE:  cpu time   28.9558: real time   29.0146
    MIXING:  cpu time    0.0203: real time    0.0203
    --------------------------------------------
      LOOP:  cpu time  286.3099: real time  286.8881

 eigenvalue-minimisations  :  5202
 total energy-change (2. order) : 0.2307609E+01  (-0.1291672E+00)
 number of electron     347.9999977 magnetization      18.3316329
 augmentation part       16.1520110 magnetization      18.2258603

 Broyden mixing:
  rms(total) = 0.34408E+00    rms(broyden)= 0.34405E+00
  rms(prec ) = 0.34510E+00
  weight for this iteration     100.00

 eigenvalues of (default mixing * dielectric matrix)
  average eigenvalue GAMMA=   2.0815
  8.8610  2.6092  1.7956  1.3511  1.0286  1.0286  0.7965  0.6283  0.6345

 Free energy of the ion-electron system (eV)
  ---------------------------------------------------
  alpha Z        PSCENC =        92.14382556
  Ewald energy   TEWEN  =    117366.36114181
  -Hartree energ DENC   =   -132320.59079899
  -exchange      EXHF   =         0.00000000
  -V(xc)+E(xc)   XCENC  =      1570.44525523
  PAW double counting   =     40469.16163964   -40635.89878158
  entropy T*S    EENTRO =        -0.00000000
  eigenvalues    EBANDS =     -4872.37926509
  atomic energy  EATOM  =     16689.68470767
  Solvation  Ediel_sol  =       839.61391246
  ---------------------------------------------------
  free energy    TOTEN  =      -801.45836328 eV

  energy without entropy =     -801.45836328  energy(sigma->0) =     -801.45836328


--------------------------------------------------------------------------------------------------------




--------------------------------------- Iteration      1(  15)  ---------------------------------------


    POTLOK:  cpu time   31.7281: real time   31.8012
    SETDIJ:  cpu time    0.4234: real time    0.4244
    EDDIAG:  cpu time   33.5806: real time   33.6359
  RMM-DIIS:  cpu time  190.2410: real time  190.5981
    ORTHCH:  cpu time    0.8314: real time    0.8333
       DOS:  cpu time    0.0019: real time    0.0019
    CHARGE:  cpu time   28.8070: real time   28.8606
    MIXING:  cpu time    0.0235: real time    0.0236
    --------------------------------------------
      LOOP:  cpu time  285.6371: real time  286.1791

 eigenvalue-minimisations  :  5200
 total energy-change (2. order) : 0.5578722E+01  (-0.8769127E-01)
 number of electron     347.9999977 magnetization      13.6709150
 augmentation part       16.0989289 magnetization      13.6377280

 Broyden mixing:
  rms(total) = 0.25921E+00    rms(broyden)= 0.25919E+00
  rms(prec ) = 0.25970E+00
  weight for this iteration     100.00

 eigenvalues of (default mixing * dielectric matrix)
  average eigenvalue GAMMA=   2.1923
 10.0595  3.1854  2.4196  1.2448  1.2448  0.8701  0.8701  0.7710  0.6258  0.6316

 Free energy of the ion-electron system (eV)
  ---------------------------------------------------
  alpha Z        PSCENC =        92.14382556
  Ewald energy   TEWEN  =    117366.36114181
  -Hartree energ DENC   =   -132342.02204454
  -exchange      EXHF   =         0.00000000
  -V(xc)+E(xc)   XCENC  =      1575.71290954
  PAW double counting   =     40141.08013491   -40308.23875593
  entropy T*S    EENTRO =        -0.00000000
  eigenvalues    EBANDS =     -4890.47423197
  atomic energy  EATOM  =     16689.68470767
  Solvation  Ediel_sol  =       879.87267207
  ---------------------------------------------------
  free energy    TOTEN  =      -795.87964087 eV

  energy without entropy =     -795.87964087  energy(sigma->0) =     -795.87964087


--------------------------------------------------------------------------------------------------------




--------------------------------------- Iteration      1(  16)  ---------------------------------------


    POTLOK:  cpu time   31.0704: real time   31.4174
    SETDIJ:  cpu time    0.4225: real time    0.4237
    EDDIAG:  cpu time   33.5335: real time   33.5804
  RMM-DIIS:  cpu time  190.5492: real time  190.9093
    ORTHCH:  cpu time    0.8207: real time    0.8227
[...]
   -.716E+02 0.335E+02 0.177E+03   0.711E+02 -.327E+02 -.176E+03   0.104E+00 -.678E-01 0.168E+00   0.465E-02 0.578E-03 -.950E-02
   -.688E+02 -.124E+02 0.120E+03   0.678E+02 0.129E+02 -.118E+03   0.111E+00 -.529E-01 -.205E+00   -.136E-02 -.751E-02 0.168E-01
   -.341E+02 -.163E+02 0.797E+02   0.333E+02 0.161E+02 -.782E+02   0.395E-01 -.192E-01 -.355E-01   -.321E-02 -.691E-03 0.277E-02
   -.623E+00 -.480E+01 0.674E+02   0.633E+00 0.472E+01 -.663E+02   -.466E-03 -.441E-02 0.741E-01   -.457E-02 -.427E-02 -.106E-01
   0.635E+01 0.548E+01 0.682E+02   -.609E+01 -.566E+01 -.672E+02   -.775E-02 -.122E-01 0.775E-01   0.123E-02 0.705E-02 -.546E-02
   -.875E+01 0.242E+02 0.748E+02   0.888E+01 -.242E+02 -.737E+02   0.469E-02 0.355E-02 -.817E-01   0.387E-02 0.906E-02 0.146E-01
   -.369E+02 0.307E+02 0.915E+02   0.367E+02 -.305E+02 -.903E+02   0.224E-01 -.230E-01 -.571E-01   0.239E-02 0.537E-02 0.316E-02
   -.458E+02 0.117E+02 0.876E+02   0.454E+02 -.114E+02 -.863E+02   0.428E-01 -.408E-01 -.872E-01   0.122E-03 0.284E-02 0.193E-02
   -.246E+02 -.362E+01 0.720E+02   0.242E+02 0.377E+01 -.708E+02   0.252E-01 -.211E-01 -.476E-01   -.697E-04 -.153E-02 0.630E-02
   -.222E+01 0.593E+02 -.385E+03   0.191E+01 -.488E+02 0.391E+03   0.232E+00 -.900E+01 -.633E+01   0.214E-03 0.128E-02 -.618E-02
   0.317E+01 -.805E+02 -.414E+03   -.386E+01 0.878E+02 0.402E+03   0.596E+00 -.590E+01 0.114E+02   -.133E-02 -.107E-02 -.554E-02
   0.700E+01 -.136E+03 -.391E+03   -.707E+01 0.137E+03 0.391E+03   -.442E-01 0.485E+00 -.738E+00   0.941E-03 -.467E-02 -.993E-02
   -.451E+03 0.146E+03 -.347E+03   0.498E+03 -.143E+03 0.314E+03   -.459E+02 0.468E+00 0.345E+02   0.160E-02 0.732E-03 -.178E-01
   -.301E+02 0.581E+03 -.958E+03   0.326E+02 -.625E+03 0.991E+03   -.258E+01 0.461E+02 -.322E+02   0.861E-02 0.551E-03 -.197E-01
   0.453E+03 0.183E+03 -.364E+03   -.501E+03 -.184E+03 0.333E+03   0.469E+02 0.436E+01 0.326E+02   0.372E-02 0.111E-01 -.238E-01
   0.427E+03 -.224E+02 -.111E+04   -.469E+03 0.210E+02 0.114E+04   0.410E+02 0.355E+01 -.321E+02   0.307E-02 -.363E-02 -.699E-02
   -.445E+03 -.643E+02 -.109E+04   0.489E+03 0.670E+02 0.112E+04   -.428E+02 -.448E+00 -.299E+02   0.247E-02 0.514E-02 -.156E-01
   -.335E+03 -.336E+03 -.470E+03   0.381E+03 0.358E+03 0.457E+03   -.447E+02 -.191E+02 0.136E+02   -.175E-01 -.176E-01 -.262E-01
   0.371E+03 -.310E+03 -.498E+03   -.420E+03 0.328E+03 0.489E+03   0.469E+02 -.159E+02 0.963E+01   -.291E-01 -.180E-02 -.236E-01
 -----------------------------------------------------------------------------------------------
   0.347E+00 -.457E+01 -.327E+00   0.000E+00 0.568E-13 -.176E-11   -.251E+00 0.461E+01 0.330E+00   -.276E-01 -.162E-01 -.679E-02
 
 
 POSITION                                       TOTAL-FORCE (eV/Angst)
 -----------------------------------------------------------------------------------
      1.25569     -0.72491     17.56371         0.010573      0.001340     -0.000801
      2.51233      1.45038     17.56482         0.008563      0.008070     -0.010631
      3.76944      3.62505     17.55741        -0.012646      0.007711      0.001636
      5.02502      5.80092     17.56437        -0.015027      0.000436     -0.001723
      6.28052      7.97739     17.56233        -0.007840     -0.007348     -0.000153
      7.53643     10.15327     17.55760        -0.000869     -0.003413      0.013174
      2.51156     -2.90036     17.56028         0.009901     -0.006489     -0.001424
      3.76891     -0.72504     17.55829        -0.006535      0.005160     -0.014968
      5.02662      1.44998     17.55308        -0.019702      0.010211     -0.012682
      6.28151      3.62351     17.55254        -0.016700      0.010784     -0.003922
      7.53610      5.80038     17.56652        -0.001101      0.004641     -0.006505
      8.79162      7.97732     17.56256         0.015725     -0.006126      0.000686
      3.76752     -5.07644     17.56402        -0.001124     -0.001430     -0.004606
      5.02407     -2.90042     17.54896        -0.000065      0.003686      0.001478
      6.28119     -0.72466     17.52126        -0.001034     -0.003299     -0.000487
      7.53641      1.45119     17.53568         0.001954     -0.009654     -0.001034
      8.79033      3.62331     17.55420         0.021364      0.010980     -0.006524
     10.04722      5.80086     17.56555         0.009877      0.003799      0.000426
      5.02333     -7.25219     17.56290        -0.000895      0.001600      0.003473
      6.28028     -5.07593     17.56223        -0.009931     -0.004294     -0.015116
      7.53633     -2.89905     17.52923        -0.000512     -0.009488     -0.005812
      8.79169     -0.72460     17.51225         0.003297      0.000795      0.004925
     10.04577      1.45001     17.54790         0.015605      0.007389     -0.008802
     11.30270      3.62507     17.55904         0.008029      0.005322      0.000250
      6.27983     -9.42731     17.55858        -0.008805     -0.010467      0.007620
      7.53590     -7.25178     17.56163         0.004323     -0.002084     -0.005176
      8.79230     -5.07600     17.56117         0.003149     -0.000761     -0.017797
     10.04854     -2.90013     17.54107         0.001150      0.002055      0.002358
     11.30389     -0.72512     17.54765        -0.002381      0.007154      0.002473
     12.55991      1.45042     17.56328        -0.007625      0.003256     -0.010450
      7.53616    -11.60287     17.56193         0.001964      0.000647      0.000988
      8.79224     -9.42710     17.55751         0.012821     -0.013749      0.010384
     10.04873     -7.25205     17.56211         0.004096     -0.005020     -0.002290
     11.30488     -5.07631     17.56268         0.000071     -0.001318     -0.008388
     12.56120     -2.90026     17.55590        -0.011705     -0.007461      0.004495
     13.81692     -0.72476     17.56128        -0.007202     -0.001148      0.000750
      1.25558      0.72548     17.56459         0.003524     -0.001149      0.000032
      2.51155      2.90121     17.55979         0.008386     -0.009873      0.002285
      3.76803      5.07638     17.56017         0.006097      0.000754      0.007578
      5.02442      7.25208     17.56476        -0.002100     -0.000179      0.000038
      6.28073      9.42798     17.55737        -0.010981     -0.001921      0.004141
      7.53638     11.60345     17.56011        -0.002812      0.006797      0.004025
      2.51173     -1.45009     17.56315         0.003371     -0.004181     -0.001721
      3.76835      0.72538     17.56437         0.001960     -0.008489     -0.012016
      5.02407      2.90043     17.54975        -0.001845     -0.004472      0.000643
      6.28017      5.07556     17.56444         0.002597      0.008746     -0.005856
      7.53606      7.25185     17.56455         0.001865     -0.001287     -0.000252
      8.79214      9.42793     17.55815         0.000704     -0.002105      0.008930
      3.76757     -3.62605     17.55950         0.003140      0.003146      0.001158
      5.02418     -1.45081     17.53965         0.000436      0.011814      0.005294
      6.28076      0.72442     17.52984        -0.003579     -0.004698     -0.000527
      7.53575      2.90076     17.53292         0.005287     -0.009019     -0.000389
      8.79189      5.07552     17.56613        -0.000046      0.006539     -0.008003
     10.04786      7.25214     17.56494         0.001124     -0.006883      0.001043
      5.02396     -5.80154     17.56567        -0.003484      0.003190     -0.003828
      6.28028     -3.62586     17.54875        -0.002115      0.001365      0.003849
      7.53641     -1.45102     17.49509        -0.002290      0.009546      0.011793
      8.79184      0.72441     17.52121         0.002009     -0.000762     -0.003716
     10.04801      2.90047     17.55019         0.001696     -0.004368     -0.003628
     11.30408      5.07639     17.56235        -0.005032     -0.000363      0.002931
      6.27987     -7.97692     17.55882         0.000762     -0.000729      0.009539
      7.53618     -5.80156     17.56516         0.000490      0.007753     -0.007099
      8.79232     -3.62584     17.54538         0.004004      0.000521      0.005295
     10.04876     -1.45070     17.52512        -0.001795      0.006566      0.002791
     11.30408      0.72523     17.55862        -0.000556     -0.001887     -0.017773
     12.56053      2.90113     17.56128        -0.005321     -0.008018     -0.000670
      7.53615    -10.15229     17.55695        -0.002619     -0.005995      0.008996
      8.79209     -7.97676     17.55810         0.001991     -0.002071      0.009720
     10.04844     -5.80157     17.56490         0.004533      0.007149     -0.002771
     11.30499     -3.62584     17.55500         0.000530     -0.002262     -0.001793
     12.56106     -1.45001     17.55730        -0.003752     -0.007066     -0.009329
     13.81683      0.72560     17.56369        -0.004541     -0.003296     -0.002524
      7.63780     -0.99262     21.22689        -0.003877      0.009747      0.013895
      7.60013      0.28401     22.07181        -0.000456      0.003182      0.002732
      7.51690      1.60827     21.24211         0.021260     -0.011266      0.011513
      8.71434     -1.00362     20.42116        -0.008701     -0.005350      0.008679
      7.69956     -2.09385     22.00498         0.000843      0.003118      0.002205
      6.53289     -1.09347     20.46636         0.004703     -0.003551      0.007307
      6.52962      0.14497     22.91852        -0.000885      0.001340      0.002611
      8.72153      0.25010     22.86189        -0.005423     -0.003878      0.006993
      8.62360      2.07650     20.91866        -0.000880      0.009969      0.014253
      6.35745      1.99901     21.01541        -0.008986      0.012387      0.005799
 -----------------------------------------------------------------------------------
    total drift:                                0.068566      0.024109     -0.003162


--------------------------------------------------------------------------------------------------------



  FREE ENERGIE OF THE ION-ELECTRON SYSTEM (eV)
  ---------------------------------------------------
  free  energy   TOTEN  =      -777.71519759 eV

  energy  without entropy=     -777.71519759  energy(sigma->0) =     -777.71519759
 
 d Force = 0.2150408E-03[ 0.754E-04, 0.355E-03]  d Energy = 0.2027986E-03 0.122E-04
 d Force = 0.2337365E+01[ 0.234E+01, 0.234E+01]  d Ewald  = 0.2337365E+01 0.561E-06


--------------------------------------------------------------------------------------------------------


    POTLOK:  cpu time   27.2044: real time   27.2613


--------------------------------------------------------------------------------------------------------


 Conjugate gradient step on ions:
 trial-energy change:   -0.000203  1 .order   -0.000215   -0.000355   -0.000075
  (g-gl).g = 0.942E-03      g.g   = 0.871E-03  gl.gl    = 0.161E-02
 g(Force)  = 0.871E-03   g(Stress)= 0.000E+00 ortho     =-0.419E-04
 gamma     =   0.58399
 trial     =   0.41907
 opt step  =   0.53227  (harmonic =   0.53227) maximal distance =0.00088752
 next E    =  -777.715220   (d E  =  -0.00023)


--------------------------------------------------------------------------------------------------------


  
 reached required accuracy - stopping structural energy minimisation
 writing wavefunctions
     LOOP+:  cpu time 1345.8541: real time 1381.3318
    4ORBIT:  cpu time    0.0000: real time    0.0000
 


 total charge     
 
# of ion       s       p       d       tot
------------------------------------------
    1        0.744   1.394   0.000   2.138
    2        0.744   1.393   0.000   2.137
    3        0.744   1.394   0.000   2.138
    4        0.744   1.393   0.000   2.137
    5        0.744   1.394   0.000   2.138
    6        0.744   1.395   0.000   2.139
    7        0.744   1.394   0.000   2.138
    8        0.744   1.393   0.000   2.137
    9        0.744   1.393   0.000   2.136
   10        0.744   1.394   0.000   2.138
   11        0.744   1.394   0.000   2.138
   12        0.744   1.394   0.000   2.138
   13        0.744   1.394   0.000   2.138
   14        0.744   1.394   0.000   2.138
   15        0.744   1.393   0.000   2.137
   16        0.744   1.391   0.000   2.135
   17        0.744   1.393   0.000   2.137
   18        0.744   1.393   0.000   2.137
   19        0.744   1.394   0.000   2.138
   20        0.744   1.394   0.000   2.138
   21        0.744   1.394   0.000   2.138
   22        0.744   1.393   0.000   2.137
   23        0.744   1.392   0.000   2.136
   24        0.744   1.394   0.000   2.138
   25        0.744   1.394   0.000   2.138
   26        0.744   1.394   0.000   2.138
   27        0.744   1.394   0.000   2.138
   28        0.744   1.394   0.000   2.138
   29        0.744   1.394   0.000   2.138
   30        0.744   1.393   0.000   2.137
   31        0.744   1.394   0.000   2.138
   32        0.744   1.394   0.000   2.138
   33        0.744   1.394   0.000   2.138
   34        0.744   1.393   0.000   2.137
   35        0.744   1.394   0.000   2.138
   36        0.744   1.394   0.000   2.138
   37        1.238   2.821   0.000   4.059
   38        1.238   2.821   0.000   4.059
   39        1.238   2.821   0.000   4.059
   40        1.238   2.821   0.000   4.059
   41        1.238   2.822   0.000   4.060
   42        1.238   2.822   0.000   4.060
   43        1.238   2.821   0.000   4.059
   44        1.238   2.821   0.000   4.059
   45        1.238   2.822   0.000   4.060
   46        1.238   2.821   0.000   4.059
   47        1.238   2.821   0.000   4.059
   48        1.238   2.822   0.000   4.060
   49        1.238   2.821   0.000   4.059
   50        1.238   2.822   0.000   4.059
   51        1.238   2.822   0.000   4.061
   52        1.238   2.825   0.000   4.063
   53        1.238   2.821   0.000   4.059
   54        1.238   2.821   0.000   4.059
   55        1.238   2.821   0.000   4.059
   56        1.238   2.821   0.000   4.059
   57        1.238   2.824   0.000   4.062
   58        1.238   2.823   0.000   4.061
   59        1.238   2.822   0.000   4.060
   60        1.238   2.821   0.000   4.059
   61        1.238   2.822   0.000   4.060
   62        1.238   2.822   0.000   4.060
   63        1.238   2.821   0.000   4.059
   64        1.238   2.822   0.000   4.060
   65        1.238   2.821   0.000   4.059
   66        1.238   2.821   0.000   4.059
   67        1.238   2.822   0.000   4.060
   68        1.238   2.822   0.000   4.060
   69        1.238   2.821   0.000   4.059
   70        1.238   2.821   0.000   4.059
   71        1.238   2.821   0.000   4.059
   72        1.238   2.822   0.000   4.059
   73        0.821   1.556   0.000   2.377
   74        0.838   1.583   0.000   2.421
   75        0.874   1.719   0.000   2.593
   76        1.758   4.411   0.000   6.169
   77        1.757   4.411   0.000   6.168
   78        1.758   4.411   0.000   6.169
   79        1.755   4.404   0.000   6.158
   80        1.755   4.403   0.000   6.158
   81        1.586   3.592   0.000   5.178
   82        1.586   3.593   0.000   5.179
--------------------------------------------------
tot         85.837 185.828   0.000 271.665
 


 magnetization (x)
 
# of ion       s       p       d       tot
------------------------------------------
    1       -0.000  -0.000   0.000  -0.000
    2        0.000   0.000   0.000   0.000
    3        0.000   0.000   0.000   0.000
    4        0.000   0.000   0.000   0.000
    5       -0.000  -0.000   0.000  -0.000
    6        0.000  -0.000   0.000  -0.000
    7        0.000   0.000   0.000   0.000
    8       -0.000   0.000   0.000   0.000
    9        0.000   0.000   0.000   0.000
   10        0.000   0.000   0.000   0.000
   11       -0.000  -0.000   0.000  -0.000
   12       -0.000  -0.000   0.000  -0.000
   13        0.000   0.000   0.000   0.000
   14       -0.000   0.000   0.000   0.000
   15        0.000  -0.000   0.000  -0.000
   16       -0.000  -0.000   0.000  -0.000
   17       -0.000  -0.000   0.000  -0.000
   18        0.000   0.000   0.000   0.000
   19        0.000   0.000   0.000   0.000
   20        0.000   0.000   0.000   0.000
   21        0.000   0.000   0.000   0.000
   22        0.000   0.000   0.000   0.000
   23        0.000   0.000   0.000   0.000
   24        0.000   0.000   0.000   0.000
   25        0.000   0.000   0.000   0.000
   26       -0.000  -0.000   0.000  -0.000
   27       -0.000  -0.000   0.000  -0.000
   28       -0.000   0.000   0.000   0.000
   29       -0.000   0.000   0.000   0.000
   30        0.000  -0.000   0.000  -0.000
   31       -0.000  -0.000   0.000  -0.000
   32        0.000  -0.000   0.000   0.000
   33        0.000   0.000   0.000   0.000
   34        0.000   0.000   0.000   0.000
   35       -0.000  -0.000   0.000  -0.000
   36       -0.000   0.000   0.000   0.000
   37       -0.000   0.000   0.000   0.000
   38       -0.000  -0.000   0.000  -0.000
   39       -0.000  -0.000   0.000  -0.000
   40       -0.000  -0.000   0.000  -0.000
   41        0.000   0.000   0.000   0.000
   42        0.000   0.000   0.000   0.000
   43        0.000   0.000   0.000   0.000
   44       -0.000  -0.000   0.000  -0.000
   45       -0.000  -0.000   0.000  -0.000
   46        0.000   0.000   0.000   0.000
   47       -0.000  -0.000   0.000  -0.000
   48        0.000   0.000   0.000   0.000
   49       -0.000  -0.000   0.000  -0.000
   50       -0.000  -0.000   0.000  -0.000
   51        0.000   0.000   0.000   0.000
   52        0.000   0.000   0.000   0.000
   53        0.000   0.000   0.000   0.000
   54       -0.000  -0.000   0.000  -0.000
   55       -0.000  -0.000   0.000  -0.000
   56       -0.000   0.000   0.000   0.000
   57        0.000   0.000   0.000   0.000
   58        0.000   0.000   0.000   0.000
   59       -0.000  -0.000   0.000  -0.000
   60       -0.000  -0.000   0.000  -0.000
   61        0.000   0.000   0.000   0.000
   62        0.000   0.000   0.000   0.000
   63       -0.000  -0.000   0.000  -0.000
   64       -0.000  -0.000   0.000  -0.000
   65       -0.000  -0.000   0.000  -0.000
   66       -0.000  -0.000   0.000  -0.000
   67        0.000   0.000   0.000   0.000
   68       -0.000   0.000   0.000   0.000
   69       -0.000  -0.000   0.000  -0.000
   70        0.000   0.000   0.000   0.000
   71        0.000  -0.000   0.000  -0.000
   72        0.000   0.000   0.000   0.000
   73       -0.000   0.000   0.000  -0.000
   74       -0.000  -0.000   0.000  -0.000
   75       -0.000  -0.000   0.000  -0.000
   76        0.000   0.000   0.000   0.000
   77        0.000  -0.000   0.000  -0.000
   78       -0.000   0.000   0.000   0.000
   79       -0.000   0.000   0.000   0.000
   80       -0.000   0.000   0.000   0.000
   81        0.000  -0.000   0.000  -0.000
   82       -0.000  -0.000   0.000  -0.000
--------------------------------------------------
tot          0.000  -0.000   0.000  -0.000
 

 total amount of memory used by VASP MPI-rank0   216384. kBytes
=======================================================================

   base      :      30000. kBytes
   nonlr-proj:      10477. kBytes
   fftplans  :      17498. kBytes
   grid      :      70152. kBytes
   one-center:         24. kBytes
   wavefun   :      88233. kBytes
 
  
  
 General timing and accounting informations for this job:
 ========================================================
  
                  Total CPU time used (sec):    17271.162
                            User time (sec):    17106.275
                          System time (sec):      164.887
                         Elapsed time (sec):    17353.666
  
                   Maximum memory used (kb):      688484.
                   Average memory used (kb):           0.
  
                          Minor page faults:      2097529
                          Major page faults:          173
                 Voluntary context switches:       120162
