 vasp.5.4.4.18Apr17-6-g9f103f2a35 (build Jun 11 2020 13:42:08) complex          
  
 executed on             LinuxIFC date 2021.02.03  08:09:35
 running on   48 total cores
 distrk:  each k-point on    8 cores,    6 groups
 distr:  one band on NCORES_PER_BAND=   1 cores,    8 groups


--------------------------------------------------------------------------------------------------------


 INCAR:
 POTCAR:    PAW_PBE B 06Sep2000                   
 POTCAR:    PAW_PBE N 08Apr2002                   
 POTCAR:    PAW_PBE C 08Apr2002                   
 POTCAR:    PAW_PBE F 08Apr2002                   
 POTCAR:    PAW_PBE O 08Apr2002                   

 ----------------------------------------------------------------------------- 
|                                                                             |
|           W    W    AA    RRRRR   N    N  II  N    N   GGGG   !!!           |
|           W    W   A  A   R    R  NN   N  II  NN   N  G    G  !!!           |
|           W    W  A    A  R    R  N N  N  II  N N  N  G       !!!           |
|           W WW W  AAAAAA  RRRRR   N  N N  II  N  N N  G  GGG   !            |
|           WW  WW  A    A  R   R   N   NN  II  N   NN  G    G                |
|           W    W  A    A  R    R  N    N  II  N    N   GGGG   !!!           |
|                                                                             |
|      For optimal performance we recommend to set                            |
|        NCORE= 4 - approx SQRT( number of cores)                             |
|      NCORE specifies how many cores store one orbital (NPAR=cpu/NCORE).     |
|      This setting can  greatly improve the performance of VASP for DFT.     |
|      The default,   NCORE=1            might be grossly inefficient         |
|      on modern multi-core architectures or massively parallel machines.     |
|      Do your own testing !!!!                                               |
|      Unfortunately you need to use the default for GW and RPA calculations. |
|      (for HF NCORE is supported but not extensively tested yet)             |
|                                                                             |
 ----------------------------------------------------------------------------- 


 ----------------------------------------------------------------------------- 
|                                                                             |
|           W    W    AA    RRRRR   N    N  II  N    N   GGGG   !!!           |
|           W    W   A  A   R    R  NN   N  II  NN   N  G    G  !!!           |
|           W    W  A    A  R    R  N N  N  II  N N  N  G       !!!           |
|           W WW W  AAAAAA  RRRRR   N  N N  II  N  N N  G  GGG   !            |
|           WW  WW  A    A  R   R   N   NN  II  N   NN  G    G                |
|           W    W  A    A  R    R  N    N  II  N    N   GGGG   !!!           |
|                                                                             |
|      You have enabled k-point parallelism (KPAR>1).                         |
|      This developmental code was originally  written by Paul Kent at ORNL,  |
|      and carefully double checked in Vienna.                                |
|      GW as well as linear response parallelism added by Martijn Marsman     |
|      and Georg Kresse.                                                      |
|      Carefully verify results versus KPAR=1.                                |
|      Report problems to Paul Kent and Vienna.                               |
|                                                                             |
 ----------------------------------------------------------------------------- 

 POTCAR:    PAW_PBE B 06Sep2000                   
   VRHFIN =B: s2p1                                                              
   LEXCH  = PE                                                                  
   EATOM  =    71.1703 eV,    5.2309 Ry                                         
                                                                                
   TITEL  = PAW_PBE B 06Sep2000                                                 
   LULTRA =        F    use ultrasoft PP ?                                      
   IUNSCR =        1    unscreen: 0-lin 1-nonlin 2-no                           
   RPACOR =    1.200    partial core radius                                     
   POMASS =   10.811; ZVAL   =    3.000    mass and valenz                      
   RCORE  =    1.700    outmost cutoff radius                                   
   RWIGS  =    1.710; RWIGS  =    0.905    wigner-seitz radius (au A)           
   ENMAX  =  318.614; ENMIN  =  238.960 eV                                      
   ICORE  =        2    local potential                                         
   LCOR   =        T    correct aug charges                                     
   LPAW   =        T    paw PP                                                  
   EAUG   =  535.514                                                            
   DEXC   =    0.000                                                            
   RMAX   =    1.732    core radius for proj-oper                               
   RAUG   =    1.300    factor for augmentation sphere                          
   RDEP   =    1.757    radius for radial grids                                 
   RDEPT  =    1.436    core radius for aug-charge                              
                                                                                
   Atomic configuration                                                         
    4 entries                                                                   
     n  l   j            E        occ.                                          
     1  0  0.50      -180.5896   2.0000                                         
     2  0  0.50        -9.4431   2.0000                                         
     2  1  0.50        -3.6068   1.0000                                         
     3  2  1.50        -4.0817   0.0000                                         
   Description                                                                  
     l       E           TYP  RCUT    TYP  RCUT                                 
     0     -9.4430752     23  1.500                                             
     0      0.8675899     23  1.500                                             
     1     -3.6067955     23  1.700                                             
     1      6.1086146     23  1.700                                             
     2     -4.0817478      7  1.700                                             
  local pseudopotential read in
  partial core-charges read in
  partial kinetic energy density read in
  atomic valenz-charges read in
  non local Contribution for L=           0  read in
    real space projection operators read in
  non local Contribution for L=           0  read in
    real space projection operators read in
  non local Contribution for L=           1  read in
    real space projection operators read in
  non local Contribution for L=           1  read in
    real space projection operators read in
    PAW grid and wavefunctions read in
 
   number of l-projection  operators is LMAX  =           4
   number of lm-projection operators is LMMAX =           8
 
 POTCAR:    PAW_PBE N 08Apr2002                   
   VRHFIN =N: s2p3                                                              
   LEXCH  = PE                                                                  
   EATOM  =   264.5486 eV,   19.4438 Ry                                         
                                                                                
   TITEL  = PAW_PBE N 08Apr2002                                                 
   LULTRA =        F    use ultrasoft PP ?                                      
   IUNSCR =        1    unscreen: 0-lin 1-nonlin 2-no                           
   RPACOR =    1.200    partial core radius                                     
   POMASS =   14.001; ZVAL   =    5.000    mass and valenz                      
   RCORE  =    1.500    outmost cutoff radius                                   
   RWIGS  =    1.400; RWIGS  =    0.741    wigner-seitz radius (au A)           
   ENMAX  =  400.000; ENMIN  =  300.000 eV                                      
   ICORE  =        2    local potential                                         
   LCOR   =        T    correct aug charges                                     
   LPAW   =        T    paw PP                                                  
   EAUG   =  627.112                                                            
   DEXC   =    0.000                                                            
   RMAX   =    1.529    core radius for proj-oper                               
   RAUG   =    1.300    factor for augmentation sphere                          
   RDEP   =    1.514    radius for radial grids                                 
   RDEPT  =    1.338    core radius for aug-charge                              
                                                                                
   Atomic configuration                                                         
    4 entries                                                                   
     n  l   j            E        occ.                                          
     1  0  0.50      -384.7179   2.0000                                         
     2  0  0.50       -18.5828   2.0000                                         
     2  1  0.50        -7.0898   3.0000                                         
     3  2  1.50        -6.8029   0.0000                                         
   Description                                                                  
     l       E           TYP  RCUT    TYP  RCUT                                 
     0    -18.5828119     23  1.200                                             
     0    -13.5018863     23  1.200                                             
     1     -7.0897853     23  1.500                                             
     1      9.5240782     23  1.500                                             
     2     -6.8029130      7  1.500                                             
  local pseudopotential read in
  partial core-charges read in
  partial kinetic energy density read in
  atomic valenz-charges read in
  non local Contribution for L=           0  read in
    real space projection operators read in
  non local Contribution for L=           0  read in
    real space projection operators read in
  non local Contribution for L=           1  read in
    real space projection operators read in
  non local Contribution for L=           1  read in
    real space projection operators read in
    PAW grid and wavefunctions read in
 
   number of l-projection  operators is LMAX  =           4
   number of lm-projection operators is LMMAX =           8
 
 POTCAR:    PAW_PBE C 08Apr2002                   
   VRHFIN =C: s2p2                                                              
   LEXCH  = PE                                                                  
   EATOM  =   147.1560 eV,   10.8157 Ry                                         
                                                                                
   TITEL  = PAW_PBE C 08Apr2002                                                 
   LULTRA =        F    use ultrasoft PP ?                                      
   IUNSCR =        1    unscreen: 0-lin 1-nonlin 2-no                           
   RPACOR =    1.200    partial core radius                                     
   POMASS =   12.011; ZVAL   =    4.000    mass and valenz                      
   RCORE  =    1.500    outmost cutoff radius                                   
   RWIGS  =    1.630; RWIGS  =    0.863    wigner-seitz radius (au A)           
   ENMAX  =  400.000; ENMIN  =  300.000 eV                                      
   ICORE  =        2    local potential                                         
   LCOR   =        T    correct aug charges                                     
   LPAW   =        T    paw PP                                                  
   EAUG   =  644.873                                                            
   DEXC   =    0.000                                                            
   RMAX   =    1.529    core radius for proj-oper                               
   RAUG   =    1.300    factor for augmentation sphere                          
   RDEP   =    1.501    radius for radial grids                                 
   RDEPT  =    1.300    core radius for aug-charge                              
                                                                                
   Atomic configuration                                                         
    4 entries                                                                   
     n  l   j            E        occ.                                          
     1  0  0.50      -273.3789   2.0000                                         
     2  0  0.50       -13.7508   2.0000                                         
     2  1  0.50        -5.2854   2.0000                                         
     3  2  1.50        -5.4423   0.0000                                         
   Description                                                                  
     l       E           TYP  RCUT    TYP  RCUT                                 
     0    -13.7508458     23  1.200                                             
     0     -8.2022199     23  1.200                                             
     1     -5.2854383     23  1.500                                             
     1     34.0145650     23  1.500                                             
     2     -5.4423304      7  1.500                                             
  local pseudopotential read in
  partial core-charges read in
  partial kinetic energy density read in
  atomic valenz-charges read in
  non local Contribution for L=           0  read in
    real space projection operators read in
  non local Contribution for L=           0  read in
    real space projection operators read in
  non local Contribution for L=           1  read in
    real space projection operators read in
  non local Contribution for L=           1  read in
    real space projection operators read in
    PAW grid and wavefunctions read in
 
   number of l-projection  operators is LMAX  =           4
   number of lm-projection operators is LMMAX =           8
 
 POTCAR:    PAW_PBE F 08Apr2002                   
   VRHFIN =F: s2p5                                                              
   LEXCH  = PE                                                                  
   EATOM  =   659.6475 eV,   48.4827 Ry                                         
                                                                                
   TITEL  = PAW_PBE F 08Apr2002                                                 
   LULTRA =        F    use ultrasoft PP ?                                      
   IUNSCR =        1    unscreen: 0-lin 1-nonlin 2-no                           
   RPACOR =    1.200    partial core radius                                     
   POMASS =   18.998; ZVAL   =    7.000    mass and valenz                      
   RCORE  =    1.520    outmost cutoff radius                                   
   RWIGS  =    1.500; RWIGS  =    0.794    wigner-seitz radius (au A)           
   ENMAX  =  400.000; ENMIN  =  300.000 eV                                      
   ICORE  =        2    local potential                                         
   LCOR   =        T    correct aug charges                                     
   LPAW   =        T    paw PP                                                  
   EAUG   =  613.614                                                            
   RMAX   =    1.555    core radius for proj-oper                               
   RAUG   =    1.300    factor for augmentation sphere                          
   RDEP   =    1.539    radius for radial grids                                 
   RDEPT  =    1.299    core radius for aug-charge                              
                                                                                
   Atomic configuration                                                         
    4 entries                                                                   
     n  l   j            E        occ.                                          
     1  0  0.50      -663.3661   2.0000                                         
     2  0  0.50       -29.8995   2.0000                                         
     2  1  0.50       -11.1114   5.0000                                         
     3  2  1.50       -10.8847   0.0000                                         
   Description                                                                  
     l       E           TYP  RCUT    TYP  RCUT                                 
     0    -29.8995018     23  1.200                                             
     0     -9.5240782     23  1.200                                             
     1    -11.1113914     23  1.520                                             
     1      1.3605826     23  1.520                                             
     2    -10.8846608      7  1.500                                             
  local pseudopotential read in
  partial core-charges read in
  partial kinetic energy density read in
  atomic valenz-charges read in
  non local Contribution for L=           0  read in
    real space projection operators read in
  non local Contribution for L=           0  read in
    real space projection operators read in
  non local Contribution for L=           1  read in
    real space projection operators read in
  non local Contribution for L=           1  read in
    real space projection operators read in
    PAW grid and wavefunctions read in
 
   number of l-projection  operators is LMAX  =           4
   number of lm-projection operators is LMMAX =           8
 
 POTCAR:    PAW_PBE O 08Apr2002                   
   VRHFIN =O: s2p4                                                              
   LEXCH  = PE                                                                  
   EATOM  =   432.3788 eV,   31.7789 Ry                                         
                                                                                
   TITEL  = PAW_PBE O 08Apr2002                                                 
   LULTRA =        F    use ultrasoft PP ?                                      
   IUNSCR =        1    unscreen: 0-lin 1-nonlin 2-no                           
   RPACOR =    1.200    partial core radius                                     
   POMASS =   16.000; ZVAL   =    6.000    mass and valenz                      
   RCORE  =    1.520    outmost cutoff radius                                   
   RWIGS  =    1.550; RWIGS  =    0.820    wigner-seitz radius (au A)           
   ENMAX  =  400.000; ENMIN  =  300.000 eV                                      
   ICORE  =        2    local potential                                         
   LCOR   =        T    correct aug charges                                     
   LPAW   =        T    paw PP                                                  
   EAUG   =  605.392                                                            
   DEXC   =    0.000                                                            
   RMAX   =    1.553    core radius for proj-oper                               
   RAUG   =    1.300    factor for augmentation sphere                          
   RDEP   =    1.550    radius for radial grids                                 
   RDEPT  =    1.329    core radius for aug-charge                              
                                                                                
   Atomic configuration                                                         
    4 entries                                                                   
     n  l   j            E        occ.                                          
     1  0  0.50      -514.6923   2.0000                                         
     2  0  0.50       -23.9615   2.0000                                         
     2  1  0.50        -9.0305   4.0000                                         
     3  2  1.50        -9.5241   0.0000                                         
   Description                                                                  
     l       E           TYP  RCUT    TYP  RCUT                                 
     0    -23.9615318     23  1.200                                             
     0     -9.5240782     23  1.200                                             
     1     -9.0304911     23  1.520                                             
     1      8.1634956     23  1.520                                             
     2     -9.5240782      7  1.500                                             
  local pseudopotential read in
  partial core-charges read in
  partial kinetic energy density read in
  kinetic energy density of atom read in
  atomic valenz-charges read in
  non local Contribution for L=           0  read in
    real space projection operators read in
  non local Contribution for L=           0  read in
    real space projection operators read in
  non local Contribution for L=           1  read in
    real space projection operators read in
  non local Contribution for L=           1  read in
    real space projection operators read in
    PAW grid and wavefunctions read in
 
   number of l-projection  operators is LMAX  =           4
   number of lm-projection operators is LMMAX =           8
 
 Optimization of the real space projectors (new method)

 maximal supplied QI-value         = 22.11
 optimisation between [QCUT,QGAM] = [ 11.94, 23.88] = [ 39.92,159.67] Ry 
 Optimized for a Real-space Cutoff    1.11 Angstroem

   l    n(q)    QCUT    max X(q) W(low)/X(q) W(high)/X(q)  e(spline) 
   0      8    11.939    53.033    0.41E-03    0.69E-03    0.53E-07
   0      8    11.939    34.740    0.40E-03    0.68E-03    0.52E-07
   1      7    11.939    30.949    0.26E-03    0.22E-03    0.14E-06
   1      7    11.939    19.518    0.24E-03    0.20E-03    0.13E-06
 Optimization of the real space projectors (new method)

 maximal supplied QI-value         = 25.13
 optimisation between [QCUT,QGAM] = [ 11.81, 23.88] = [ 39.08,159.64] Ry 
 Optimized for a Real-space Cutoff    1.25 Angstroem

   l    n(q)    QCUT    max X(q) W(low)/X(q) W(high)/X(q)  e(spline) 
   0      9    11.813    79.467    0.37E-04    0.68E-04    0.41E-06
   0      9    11.813    66.151    0.38E-04    0.67E-04    0.41E-06
   1      8    11.813    20.169    0.33E-03    0.30E-03    0.71E-06
   1      8    11.813    14.454    0.33E-03    0.31E-03    0.72E-06
 Optimization of the real space projectors (new method)

 maximal supplied QI-value         = 25.13
 optimisation between [QCUT,QGAM] = [ 11.81, 23.88] = [ 39.08,159.64] Ry 
 Optimized for a Real-space Cutoff    1.05 Angstroem

   l    n(q)    QCUT    max X(q) W(low)/X(q) W(high)/X(q)  e(spline) 
   0      7    11.813   115.676    0.42E-03    0.31E-03    0.23E-06
   0      7    11.813    87.132    0.42E-03    0.31E-03    0.23E-06
   1      7    11.813     4.429    0.34E-03    0.52E-04    0.16E-06
   1      7    11.813     2.733    0.27E-03    0.31E-04    0.13E-06
 Optimization of the real space projectors (new method)

 maximal supplied QI-value         = 24.76
 optimisation between [QCUT,QGAM] = [ 11.88, 24.01] = [ 39.54,161.47] Ry 
 Optimized for a Real-space Cutoff    1.05 Angstroem

   l    n(q)    QCUT    max X(q) W(low)/X(q) W(high)/X(q)  e(spline) 
   0      7    11.883    14.049    0.20E-03    0.16E-03    0.14E-06
   0      7    11.883     8.945    0.29E-03    0.20E-03    0.19E-06
   1      7    11.883     7.086    0.38E-03    0.88E-04    0.22E-06
   1      7    11.883     6.747    0.34E-03    0.55E-04    0.20E-06
 Optimization of the real space projectors (new method)

 maximal supplied QI-value         = 24.76
 optimisation between [QCUT,QGAM] = [ 11.88, 24.01] = [ 39.54,161.47] Ry 
 Optimized for a Real-space Cutoff    1.05 Angstroem

   l    n(q)    QCUT    max X(q) W(low)/X(q) W(high)/X(q)  e(spline) 
   0      7    11.883    20.381    0.32E-03    0.21E-03    0.20E-06
   0      7    11.883    15.268    0.35E-03    0.22E-03    0.22E-06
   1      7    11.883     5.964    0.44E-03    0.69E-04    0.24E-06
   1      7    11.883     5.382    0.38E-03    0.34E-04    0.20E-06
  PAW_PBE B 06Sep2000                   :
 energy of atom  1       EATOM=  -71.1703
 kinetic energy error for atom=    0.0009 (will be added to EATOM!!)
  PAW_PBE N 08Apr2002                   :
 energy of atom  2       EATOM= -264.5486
 kinetic energy error for atom=    0.0116 (will be added to EATOM!!)
  PAW_PBE C 08Apr2002                   :
 energy of atom  3       EATOM= -147.1560
 kinetic energy error for atom=    0.0066 (will be added to EATOM!!)
  PAW_PBE F 08Apr2002                   :
 energy of atom  4       EATOM= -659.6475
 kinetic energy error for atom=    0.0296 (will be added to EATOM!!)
  PAW_PBE O 08Apr2002                   :
 energy of atom  5       EATOM= -432.3788
 kinetic energy error for atom=    0.0194 (will be added to EATOM!!)
 
 
 POSCAR: B N C F O                               
  positions in direct lattice
  velocities in cartesian coordinates

 METAGGA = SCAN     LMAXTAU =  6    LMIXTAU =  F

 exchange correlation table for  LEXCH =        8
   RHO(1)=    0.500       N(1)  =     2000
   RHO(2)=  100.500       N(2)  =     4000

 VTST: version 3.1, (03/28/14)

 CHAIN: initializing optimizer
 
 OPT: Using Conjugate-Gradient optimizer
 OPT: CG, Init
 OPT: CG, FDSTEP      0.005000
 OPT: CG, MAXMOVE      0.200000
 
 CHAIN: Read ICHAIN            2
 
 POSCAR: B N C F O                               
  positions in direct lattice
  velocities in cartesian coordinates
 CHAIN: Running the Dimer method

 Dimer: -----------------
 Dimer: Input Parameters
 Dimer:   Seed      0
 Dimer: RotMax      4
 Dimer:     dR      0.005000
 Dimer:  FNMax      1.000000
 Dimer:  FNMin      0.010000
 Dimer: -----------------
 


--------------------------------------------------------------------------------------------------------


 ion  position               nearest neighbor table
   1  0.111  0.056  0.500-  42 1.45  37 1.45  43 1.45
   2  0.111  0.222  0.500-  37 1.45  38 1.45  44 1.45
   3  0.111  0.389  0.500-  39 1.45  38 1.45  45 1.45
   4  0.111  0.556  0.500-  46 1.45  39 1.45  40 1.45
   5  0.111  0.722  0.500-  40 1.45  47 1.45  41 1.45
   6  0.111  0.889  0.500-  41 1.45  48 1.45  42 1.45
   7  0.278  0.056  0.500-  48 1.45  49 1.45  43 1.45
   8  0.278  0.222  0.500-  43 1.45  50 1.45  44 1.45
   9  0.278  0.389  0.500-  45 1.45  44 1.45  51 1.45
  10  0.278  0.556  0.500-  46 1.45  52 1.45  45 1.45
  11  0.278  0.722  0.500-  53 1.45  47 1.45  46 1.45
  12  0.278  0.889  0.500-  47 1.45  54 1.45  48 1.45
  13  0.444  0.056  0.500-  54 1.45  55 1.45  49 1.45
  14  0.444  0.222  0.500-  49 1.45  56 1.45  50 1.45
  15  0.444  0.389  0.500-  57 1.45  50 1.45  51 1.45
  16  0.444  0.556  0.500-  58 1.45  52 1.45  51 1.45
  17  0.444  0.722  0.500-  59 1.45  53 1.45  52 1.45
  18  0.444  0.889  0.500-  60 1.45  54 1.45  53 1.45
  19  0.611  0.056  0.500-  61 1.45  60 1.45  55 1.45
  20  0.611  0.222  0.500-  55 1.45  62 1.45  56 1.45
  21  0.611  0.389  0.500-  63 1.45  56 1.45  57 1.45
  22  0.611  0.556  0.500-  64 1.45  58 1.45  57 1.45
  23  0.611  0.722  0.500-  59 1.45  65 1.45  58 1.45
  24  0.611  0.889  0.500-  66 1.45  60 1.45  59 1.45
  25  0.778  0.056  0.500-  61 1.45  67 1.45  66 1.45
  26  0.778  0.222  0.500-  61 1.45  68 1.45  62 1.45
  27  0.778  0.389  0.500-  69 1.45  62 1.45  63 1.45
  28  0.778  0.556  0.500-  70 1.45  64 1.45  63 1.45
  29  0.778  0.722  0.500-  65 1.45  71 1.45  64 1.45
  30  0.778  0.889  0.500-  72 1.45  66 1.45  65 1.45
  31  0.944  0.056  0.500-  72 1.45  67 1.45  37 1.45
  32  0.944  0.222  0.500-  67 1.45  68 1.45  38 1.45
  33  0.944  0.389  0.500-  68 1.45  69 1.45  39 1.45
  34  0.944  0.556  0.500-  69 1.45  40 1.45  70 1.45
  35  0.944  0.722  0.500-  70 1.45  41 1.45  71 1.45
  36  0.944  0.889  0.500-  71 1.45  42 1.45  72 1.45
  37  0.056  0.111  0.500-   2 1.45   1 1.45  31 1.45
  38  0.056  0.278  0.500-   3 1.45   2 1.45  32 1.45
  39  0.056  0.444  0.500-   3 1.45   4 1.45  33 1.45
  40  0.056  0.611  0.500-   5 1.45  34 1.45   4 1.45
  41  0.056  0.778  0.500-   6 1.45  35 1.45   5 1.45
  42  0.056  0.944  0.500-   1 1.45  36 1.45   6 1.45
  43  0.222  0.111  0.500-   8 1.45   7 1.45   1 1.45
  44  0.222  0.278  0.500-   9 1.45   8 1.45   2 1.45
  45  0.222  0.444  0.500-   9 1.45  10 1.45   3 1.45
  46  0.222  0.611  0.500-  10 1.45   4 1.45  11 1.45
  47  0.222  0.778  0.500-  12 1.45  11 1.45   5 1.45
  48  0.222  0.944  0.500-   7 1.45  12 1.45   6 1.45
  49  0.389  0.111  0.500-  14 1.45   7 1.45  13 1.45
  50  0.389  0.278  0.500-  15 1.45   8 1.45  14 1.45
  51  0.389  0.444  0.500-   9 1.45  15 1.45  16 1.45
  52  0.389  0.611  0.500-  16 1.45  10 1.45  17 1.45
  53  0.389  0.778  0.500-  17 1.45  11 1.45  18 1.45
  54  0.389  0.944  0.500-  13 1.45  12 1.45  18 1.45
  55  0.556  0.111  0.500-  20 1.45  13 1.45  19 1.45
  56  0.556  0.278  0.500-  14 1.45  21 1.45  20 1.45
  57  0.556  0.444  0.500-  15 1.45  21 1.45  22 1.45
  58  0.556  0.611  0.500-  16 1.45  22 1.45  23 1.45
  59  0.556  0.778  0.500-  23 1.45  17 1.45  24 1.45
  60  0.556  0.944  0.500-  18 1.45  19 1.45  24 1.45
  61  0.722  0.111  0.500-  26 1.45  19 1.45  25 1.45
  62  0.722  0.278  0.500-  20 1.45  27 1.45  26 1.45
  63  0.722  0.444  0.500-  21 1.45  28 1.45  27 1.45
  64  0.722  0.611  0.500-  22 1.45  28 1.45  29 1.45
  65  0.722  0.778  0.500-  23 1.45  29 1.45  30 1.45
  66  0.722  0.944  0.500-  24 1.45  30 1.45  25 1.45
  67  0.889  0.111  0.500-  32 1.45  25 1.45  31 1.45
  68  0.889  0.278  0.500-  32 1.45  33 1.45  26 1.45
  69  0.889  0.444  0.500-  27 1.45  34 1.45  33 1.45
  70  0.889  0.611  0.500-  35 1.45  28 1.45  34 1.45
  71  0.889  0.778  0.500-  36 1.45  29 1.45  35 1.45
  72  0.889  0.944  0.500-  31 1.45  30 1.45  36 1.45
  73  0.374  0.314  0.673-  76 1.33  78 1.34  77 1.34  74 1.54
  74  0.355  0.311  0.630-  80 1.33  79 1.33  73 1.54  75 1.85
  75  0.343  0.424  0.617-  82 1.20  81 1.21  74 1.85
  76  0.462  0.396  0.682-  73 1.33
  77  0.378  0.230  0.683-  73 1.34
  78  0.297  0.314  0.692-  73 1.34
  79  0.434  0.318  0.610-  74 1.33
  80  0.269  0.227  0.620-  74 1.33
  81  0.429  0.494  0.613-  75 1.21
  82  0.252  0.394  0.616-  75 1.20
 

IMPORTANT INFORMATION: All symmetrisations will be switched off!
NOSYMM: (Re-)initialisation of all symmetry stuff for point group C_1.

 
 
 KPOINTS: K-Point Grid                            

Automatic generation of k-mesh.
Space group operators:
 irot       det(A)        alpha          n_x          n_y          n_z        tau_x        tau_y        tau_z
    1     1.000000     0.000000     1.000000     0.000000     0.000000     0.000000     0.000000     0.000000
 
 Subroutine IBZKPT returns following result:
 ===========================================
 
 Found      5 irreducible k-points:
 
 Following reciprocal coordinates:
            Coordinates               Weight
  0.000000  0.000000  0.000000      1.000000
  0.333333  0.000000  0.000000      2.000000
  0.000000  0.333333  0.000000      2.000000
  0.333333  0.333333  0.000000      2.000000
 -0.333333  0.333333  0.000000      2.000000
 
 Following cartesian coordinates:
            Coordinates               Weight
  0.000000  0.000000  0.000000      1.000000
  0.022114 -0.012768  0.000000      2.000000
  0.022114  0.012768  0.000000      2.000000
  0.044229  0.000000  0.000000      2.000000
  0.000000  0.025535  0.000000      2.000000
 


--------------------------------------------------------------------------------------------------------




 Dimension of arrays:
   k-points           NKPTS =      5   k-points in BZ     NKDIM =      5   number of bands    NBANDS=    256
   number of dos      NEDOS =   1200   number of ions     NIONS =     82
   non local maximal  LDIM  =      4   non local SUM 2l+1 LMDIM =      8
   total plane-waves  NPLWV = ******
   max r-space proj   IRMAX =   2059   max aug-charges    IRDMAX=   4038
   dimension x,y,z NGX =    90 NGY =   90 NGZ =  210
   dimension x,y,z NGXF=   180 NGYF=  180 NGZF=  420
   support grid    NGXF=   180 NGYF=  180 NGZF=  420
   ions per type =              36  36   3   5   2
   NGX,Y,Z   is equivalent  to a cutoff of   9.93,  9.93,  9.94 a.u.
   NGXF,Y,Z  is equivalent  to a cutoff of  19.85, 19.85, 19.88 a.u.

 SYSTEM =  hBN                                     
 POSCAR =  B N C F O                               

 Startparameter for this run:
   NWRITE =      2    write-flag & timer
   PREC   = normal    normal or accurate (medium, high low for compatibility)
   ISTART =      0    job   : 0-new  1-cont  2-samecut
   ICHARG =      2    charge: 1-file 2-atom 10-const
   ISPIN  =      2    spin polarized calculation?
   LNONCOLLINEAR =      F non collinear calculations
   LSORBIT =      F    spin-orbit coupling
   INIWAV =      1    electr: 0-lowe 1-rand  2-diag
   LASPH  =      T    aspherical Exc in radial PAW
   METAGGA=      F    non-selfconsistent MetaGGA calc.

 Electronic Relaxation 1
   ENCUT  =  550.0 eV  40.42 Ry    6.36 a.u.  28.82 28.82 67.15*2*pi/ulx,y,z
   ENINI  =  550.0     initial cutoff
   ENAUG  =  644.9 eV  augmentation charge cutoff
   NELM   =    100;   NELMIN=  2; NELMDL=  0     # of ELM steps 
   EDIFF  = 0.1E-04   stopping-criterion for ELM
   LREAL  =      T    real-space projection
   NLSPLINE    = F    spline interpolate recip. space projectors
   LCOMPAT=      F    compatible to vasp.4.4
   GGA_COMPAT  = T    GGA compatible to vasp.4.4-vasp.4.6
   LMAXPAW     = -100 max onsite density
   LMAXMIX     =    2 max onsite mixed and CHGCAR
   VOSKOWN=      0    Vosko Wilk Nusair interpolation
   ROPT   =   -0.00050  -0.00050  -0.00050  -0.00050
   ROPT   =   -0.00050
 Ionic relaxation
   EDIFFG = -.5E-01   stopping-criterion for IOM
   NSW    =    500    number of steps for IOM
   NBLOCK =      1;   KBLOCK =    500    inner block; outer block 
   IBRION =      3    ionic relax: 0-MD 1-quasi-New 2-CG
   NFREE  =      0    steps in history (QN), initial steepest desc. (CG)
   ISIF   =      2    stress and relaxation
   IWAVPR =     11    prediction:  0-non 1-charg 2-wave 3-comb
   ISYM   =      0    0-nonsym 1-usesym 2-fastsym
   LCORR  =      T    Harris-Foulkes like correction to forces

   POTIM  = 0.0000    time-step for ionic-motion
   TEIN   =    0.0    initial temperature
   TEBEG  =    0.0;   TEEND  =   0.0 temperature during run
   SMASS  =  -3.00    Nose mass-parameter (am)
   estimated Nose-frequenzy (Omega)   =  0.10E-29 period in steps =  0.00 mass=  -0.519E-26a.u.
   SCALEE = 1.0000    scale energy and forces
   NPACO  =    256;   APACO  = 16.0  distance and # of slots for P.C.
   PSTRESS=    0.0 pullay stress

  Mass of Ions in am
   POMASS =  10.81 14.00 12.01 19.00 16.00
  Ionic Valenz
   ZVAL   =   3.00  5.00  4.00  7.00  6.00
  Atomic Wigner-Seitz radii
   RWIGS  =  -1.00 -1.00 -1.00 -1.00 -1.00
  virtual crystal weights 
   VCA    =   1.00  1.00  1.00  1.00  1.00
   NELECT =     346.4000    total number of electrons
   NUPDOWN=      -1.0000    fix difference up-down

 DOS related values:
   EMIN   = -10.00;   EMAX   =  5.00  energy-range for DOS
   EFERMI =   0.00
   ISMEAR =     0;   SIGMA  =   0.05  broadening in eV -4-tet -1-fermi 0-gaus

 Electronic relaxation 2 (details)
   IALGO  =     68    algorithm
   LDIAG  =      T    sub-space diagonalisation (order eigenvalues)
   LSUBROT=      F    optimize rotation matrix (better conditioning)
   TURBO    =      0    0=normal 1=particle mesh
   IRESTART =      0    0=no restart 2=restart with 2 vectors
   NREBOOT  =      0    no. of reboots
   NMIN     =      0    reboot dimension
   EREF     =   0.00    reference energy to select bands
   IMIX   =      4    mixing-type and parameters
     AMIX     =   0.40;   BMIX     =  1.00
     AMIX_MAG =   1.60;   BMIX_MAG =  1.00
     AMIN     =   0.10
     WC   =   100.;   INIMIX=   1;  MIXPRE=   1;  MAXMIX= -45

 Intra band minimization:
   WEIMIN = 0.0010     energy-eigenvalue tresh-hold
   EBREAK =  0.98E-08  absolut break condition
   DEPER  =   0.30     relativ break condition  

   TIME   =   0.40     timestep for ELM

  volume/ion in A,a.u.               =      84.26       568.60
  Fermi-wavevector in a.u.,A,eV,Ry     =   0.603659  1.140751  4.958028  0.364405
  Thomas-Fermi vector in A             =   1.656723
 
 Write flags
   LWAVE        =      T    write WAVECAR
   LDOWNSAMPLE  =      F    k-point downsampling of WAVECAR
   LCHARG       =      F    write CHGCAR
   LVTOT        =      F    write LOCPOT, total local potential
   LVHAR        =      F    write LOCPOT, Hartree potential only
   LELF         =      F    write electronic localiz. function (ELF)
   LORBIT       =     11    0 simple, 1 ext, 2 COOP (PROOUT), +10 PAW based schemes


 Dipole corrections
   LMONO  =      F    monopole corrections only (constant potential shift)
   LDIPOL =      F    correct potential (dipole corrections)
   IDIPOL =      0    1-x, 2-y, 3-z, 4-all directions 
   EPSILON=  1.0000000 bulk dielectric constant

 Exchange correlation treatment:
   GGA     =    --    GGA type
   LEXCH   =     8    internal setting for exchange type
   VOSKOWN=      0    Vosko Wilk Nusair interpolation
   LHFCALC =     F    Hartree Fock is set to
   LHFONE  =     F    Hartree Fock one center treatment
   AEXX    =    0.0000 exact exchange contribution

 Linear response parameters
   LEPSILON=     F    determine dielectric tensor
   LRPA    =     F    only Hartree local field effects (RPA)
   LNABLA  =     F    use nabla operator in PAW spheres
   LVEL    =     F    velocity operator in full k-point grid
   LINTERFAST=   F  fast interpolation
   KINTER  =     0    interpolate to denser k-point grid
   CSHIFT  =0.1000    complex shift for real part using Kramers Kronig
   OMEGAMAX=  -1.0    maximum frequency
   DEG_THRESHOLD= 0.2000000E-02 threshold for treating states as degnerate
   RTIME   =   -0.100 relaxation time in fs
  (WPLASMAI=    0.000 imaginary part of plasma frequency in eV, 0.658/RTIME)
   DFIELD  = 0.0000000 0.0000000 0.0000000 field for delta impulse in time
 
 Orbital magnetization related:
   ORBITALMAG=     F  switch on orbital magnetization
   LCHIMAG   =     F  perturbation theory with respect to B field
   DQ        =  0.001000  dq finite difference perturbation B field
   LLRAUG    =     F  two centre corrections for induced B field

 Solvation model:
   LSOL    =     T         switch on solvation model
   EB_K    = 78.400000     relative permittivity of the bulk solvent
   SIGMA_K =  0.600000     width of the dielectric cavity
   NC_K    =  0.002500     cutoff charge density
   TAU     =  0.000000     cavity surface tension
   LAMBDA_D_K    =  3.040000     Debye length in Angstroms
   LRHOB     =     F     write boundcharge  density
   LRHOION     =     F     write ioniccharge density



--------------------------------------------------------------------------------------------------------


 quickmin algorithm: (dynamic with friction)
   using selective dynamics as specified on POSCAR
 charge density and potential will be updated during run
 spin polarized calculation
 RMM-DIIS sequential band-by-band and
  variant of blocked Davidson during initial phase
 perform sub-space diagonalisation
    before iterative eigenvector-optimisation
 modified Broyden-mixing scheme, WC =      100.0
 initial mixing is a Kerker type mixing with AMIX =  0.4000 and BMIX =      1.0000
 Hartree-type preconditioning will be used
 using additional bands           82
 real space projection scheme for non local part
 use partial core corrections
 calculate Harris-corrections to forces 
   (improved forces if not selfconsistent)
 use gradient corrections 
 use of overlap-Matrix (Vanderbilt PP)
 Gauss-broadening in eV      SIGMA  =   0.05


--------------------------------------------------------------------------------------------------------


  energy-cutoff  :      550.00
  volume of cell :     6909.18
      direct lattice vectors                 reciprocal lattice vectors
     7.536550057-13.053746059  0.000000000     0.066343353 -0.038303181  0.000000000
     7.536550057 13.053746059  0.000000000     0.066343353  0.038303181  0.000000000
     0.000000000  0.000000000 35.114664386     0.000000000  0.000000000  0.028478131

  length of vectors
    15.073150730 15.073150730 35.114664386     0.076606620  0.076606620  0.028478131


 
 k-points in units of 2pi/SCALE and weight: K-Point Grid                            
   0.00000000  0.00000000  0.00000000       0.111
   0.02211445 -0.01276773  0.00000000       0.222
   0.02211445  0.01276773  0.00000000       0.222
   0.04422890  0.00000000  0.00000000       0.222
   0.00000000  0.02553545  0.00000000       0.222
 
 k-points in reciprocal lattice and weights: K-Point Grid                            
   0.00000000  0.00000000  0.00000000       0.111
   0.33333333  0.00000000  0.00000000       0.222
   0.00000000  0.33333333  0.00000000       0.222
   0.33333333  0.33333333  0.00000000       0.222
  -0.33333333  0.33333333  0.00000000       0.222
 
 position of ions in fractional coordinates (direct lattice) 
   0.11109333  0.05556031  0.50001596
   0.11108966  0.22222132  0.49998185
   0.11109830  0.38889899  0.49996038
   0.11111191  0.55557524  0.49997183
   0.11111392  0.72224509  0.50002030
   0.11110641  0.88890091  0.50004120
   0.27777594  0.05556052  0.50003718
   0.27776439  0.22220613  0.49997354
   0.27776775  0.38889303  0.49995046
   0.27777477  0.55557047  0.49995533
   0.27777994  0.72224084  0.49998013
   0.27777994  0.88890363  0.50003527
   0.44444615  0.05556344  0.50004757
   0.44445420  0.22222966  0.50004657
   0.44447323  0.38890719  0.49998354
   0.44445487  0.55558805  0.49998663
   0.44444789  0.72224151  0.49996592
   0.44444632  0.88890772  0.50000846
   0.61111449  0.05557798  0.50003226
   0.61111669  0.22223686  0.50004367
   0.61112721  0.38890951  0.50001350
   0.61111875  0.55558220  0.49997599
   0.61111041  0.72224248  0.49996919
   0.61110742  0.88890818  0.49999732
   0.77777340  0.05557897  0.50002345
   0.77778117  0.22224948  0.50002453
   0.77778438  0.38891647  0.50002302
   0.77777935  0.55558517  0.50000466
   0.77777452  0.72224798  0.49999743
   0.77776991  0.88891141  0.50001294
   0.94443199  0.05557114  0.50001938
   0.94443362  0.22224050  0.49999447
   0.94444631  0.38891522  0.49999426
   0.94444872  0.55558574  0.50001688
   0.94444102  0.72224377  0.50003040
   0.94443580  0.88890626  0.50003455
   0.05554626  0.11112702  0.50000465
   0.05555077  0.27779074  0.49996689
   0.05556178  0.44446158  0.49996206
   0.05556011  0.61113687  0.50000293
   0.05555273  0.77779661  0.50003920
   0.05554810  0.94445733  0.50004000
   0.22221414  0.11111496  0.50000482
   0.22221991  0.27778364  0.49998267
   0.22222301  0.44445002  0.49994959
   0.22222464  0.61112564  0.49995344
   0.22222609  0.77779837  0.50001435
   0.22222096  0.94445789  0.50004808
   0.38888965  0.11112741  0.50005774
   0.38888590  0.27779343  0.50003552
   0.38888125  0.44444272  0.50004005
   0.38888436  0.61111715  0.49996340
   0.38889134  0.77779342  0.49997500
   0.38889036  0.94446267  0.50003694
   0.55555617  0.11113281  0.50004639
   0.55555713  0.27779850  0.50004868
   0.55556285  0.44446324  0.49998334
   0.55554807  0.61112134  0.49995857
   0.55555446  0.77779194  0.49996393
   0.55555548  0.94446703  0.50001448
   0.72222452  0.11114024  0.50003054
   0.72222558  0.27780685  0.50003339
   0.72222669  0.44447248  0.50001148
   0.72221975  0.61113588  0.49998121
   0.72221675  0.77779812  0.49998554
   0.72221625  0.94446791  0.50001581
   0.88888442  0.11113506  0.50001472
   0.88889247  0.27780538  0.50000246
   0.88889327  0.44447468  0.50001620
   0.88888750  0.61113801  0.50002220
   0.88888282  0.77780003  0.50002683
   0.88887958  0.94446511  0.50003154
   0.37351351  0.31358298  0.67285639
   0.35510749  0.31115391  0.62962030
   0.34257362  0.42373392  0.61694122
   0.46200600  0.39628797  0.68233562
   0.37756324  0.22960296  0.68275946
   0.29673694  0.31373724  0.69182779
   0.43353368  0.31761830  0.61015619
   0.26903117  0.22731093  0.61991014
   0.42901291  0.49363184  0.61315935
   0.25214793  0.39411231  0.61629805
 
 position of ions in cartesian coordinates  (Angst):
   1.25599348 -0.72491395 17.55789254
   2.51201493  1.45068444 17.55669472
   3.76825458  3.62633969 17.55594106
   5.02452108  5.80191150 17.55634302
   6.28065186  7.97755110 17.55804491
   7.53660520 10.15313188 17.55877883
   2.51220694 -2.90074359 17.55863774
   3.76805286 -0.72524344 17.55640316
   5.02432233  1.45060115 17.55559248
   6.28054811  3.62627441 17.55576365
   7.53670671  5.80187973 17.55663451
   8.79276912  7.97745343 17.55857069
   3.76834730 -5.07637613 17.55900245
   5.02449630 -2.90086280 17.55896733
   6.28081324 -0.72534492 17.55675405
   7.53687354  1.45070425 17.55686275
   8.79281306  3.62624748 17.55613535
  10.04888950  5.80188621 17.55762933
   5.02456115 -7.25183249 17.55846507
   6.28061074 -5.07633864 17.55886560
   7.53682678 -2.90077353 17.55780632
   8.79290012 -0.72495996 17.55648894
  10.04888080  1.45068990 17.55625039
  11.30494271  3.62634057 17.55723820
   6.28060188 -9.42734272 17.55815574
   7.53678105 -7.25176968 17.55819364
   8.79289933 -5.07618304 17.55814055
  10.04896843 -2.90046643 17.55749591
  11.30499468 -0.72482937 17.55724191
  12.56102717  1.45081293 17.55778650
   7.53657364-11.60296385 17.55801272
   8.79269786 -9.42732557 17.55713792
  10.04894592 -7.25176173 17.55713072
  11.30508483 -5.07611866 17.55792492
  12.56105338 -2.90050647 17.55839978
  13.81707415 -0.72486852 17.55854524
   1.25614153  0.72553723 17.55749564
   2.51224499  2.90106420 17.55616967
   3.76845110  5.07659931 17.55600006
   5.02459513  7.25235790 17.55743507
   6.28057901  9.42798815 17.55870859
   7.53659101 11.60359536 17.55873674
   2.51215145 -1.45026059 17.55750141
   3.76830176  0.72531475 17.55672364
   5.02441465  2.90089502 17.55556202
   6.28058610  5.07661481 17.55569716
   7.53673442  7.25229944 17.55783618
   8.79273356  9.42789747 17.55902048
   3.76840355 -3.62583771 17.55935969
   5.02446216 -1.45017293 17.55857940
   6.28038786  0.72528532 17.55873841
   7.53656140  2.90097041 17.55604688
   8.79277809  5.07662897 17.55645434
  10.04888183  7.25229982 17.55862919
   5.02453488 -5.80138976 17.55896125
   6.28062639 -3.62579069 17.55904165
   7.53674669 -1.45026613 17.55674705
   8.79266244  0.72543939 17.55587740
  10.04883191  2.90103171 17.55606576
  11.30499471  5.07675266 17.55784074
   6.28069527 -7.97693903 17.55840448
   7.53679453 -5.80132924 17.55850472
   8.79288674 -3.62573295 17.55773520
  10.04890146 -1.45006065 17.55667226
  11.30493720  0.72554513 17.55682453
  12.56104856  2.90121677 17.55788751
   7.53669689-10.15254272 17.55784923
   8.79287678 -7.97697568 17.55741873
  10.04899428 -5.80132749 17.55790099
  11.30501733 -3.62567121 17.55811180
  12.56103868 -1.45004654 17.55827439
  13.81709409  0.72559939 17.55843972
   5.17833706 -0.78231800 23.62712629
   5.02131241 -0.57375896 22.10890563
   5.77531512  1.05944601 21.66368402
   6.46857548 -0.85786652 23.95998633
   4.57593847 -1.93143594 23.97486942
   4.60086927  0.22191758 24.29330062
   5.66109456 -1.51312992 21.42542983
   3.74070704 -0.54460545 21.76793663
   6.95355837  0.84351904 21.53088467
   4.87057264  1.85316689 21.64109915
 


--------------------------------------------------------------------------------------------------------


 k-point  1 :   0.0000 0.0000 0.0000  plane waves:  202395
 k-point  2 :   0.3333 0.0000 0.0000  plane waves:  202358
 k-point  3 :   0.0000 0.3333 0.0000  plane waves:  202358
 k-point  4 :   0.3333 0.3333 0.0000  plane waves:  202335
 k-point  5 :  -0.3333 0.3333 0.0000  plane waves:  202358

 maximum and minimum number of plane-waves per node :    202395   202335

 maximum number of plane-waves:    202395
 maximum index in each direction: 
   IXMAX=   29   IYMAX=   28   IZMAX=   67
   IXMIN=  -29   IYMIN=  -29   IZMIN=  -67


 serial   3D FFT for wavefunctions
 parallel 3D FFT for charge:
    minimum data exchange during FFTs selected (reduces bandwidth)


 total amount of memory used by VASP MPI-rank0  1602133. kBytes
=======================================================================

   base      :      30000. kBytes
   nonlr-proj:      12084. kBytes
   fftplans  :      65180. kBytes
   grid      :     454720. kBytes
   one-center:        503. kBytes
   wavefun   :    1039646. kBytes
 
     INWAV:  cpu time    0.0001: real time    0.0004
 Broyden mixing: mesh for mixing (old mesh)
   NGX = 57   NGY = 57   NGZ =135
  (NGX  =180   NGY  =180   NGZ  =420)
  gives a total of 438615 points

 initial charge density was supplied:
 charge density of overlapping atoms calculated
 number of electron     347.0000000 magnetization      82.0000000
 keeping initial charge density in first step


--------------------------------------------------------------------------------------------------------


 Maximum index for non-local projection operator         1953
 Maximum index for augmentation-charges          482 (set IRDMAX)


--------------------------------------------------------------------------------------------------------


 First call to EWALD:  gamma=   0.093
 Maximum number of real-space cells 4x 4x 2
 Maximum number of reciprocal cells 2x 2x 5

    FEWALD:  cpu time    0.0171: real time    0.0163


--------------------------------------- Iteration      1(   1)  ---------------------------------------


    POTLOK:  cpu time   81.8966: real time   82.0022
    SETDIJ:  cpu time    1.4286: real time    1.2265
     EDDAV:  cpu time  151.9815: real time   92.0513
       DOS:  cpu time    0.0543: real time    0.0528
    --------------------------------------------
      LOOP:  cpu time  235.3611: real time  175.3328

 eigenvalue-minimisations  :  6104
 total energy-change (2. order) : 0.3499020E+04  (-0.1181865E+05)
 number of electron     347.0000000 magnetization      82.0000000
 augmentation part      347.0000000 magnetization      82.0000000

 Free energy of the ion-electron system (eV)
  ---------------------------------------------------
  alpha Z        PSCENC =        92.14382556
  Ewald energy   TEWEN  =    110962.05600897
  -Hartree energ DENC   =   -123650.78206850
  -exchange      EXHF   =         0.00000000
  -V(xc)+E(xc)   XCENC  =      1477.78508440
  PAW double counting   =     12389.81687870   -12541.43845553
  entropy T*S    EENTRO =        -0.05491826
  eigenvalues    EBANDS =     -2299.63370553
  atomic energy  EATOM  =     16689.68470767
  Solvation  Ediel_sol  =       379.44280929
  ---------------------------------------------------
  free energy    TOTEN  =      3499.02016678 eV

  energy without entropy =     3499.07508503  energy(sigma->0) =     3499.04762591


--------------------------------------------------------------------------------------------------------




--------------------------------------- Iteration      1(   2)  ---------------------------------------


     EDDAV:  cpu time  186.2386: real time  111.1303
       DOS:  cpu time    0.0024: real time    0.0012
    --------------------------------------------
      LOOP:  cpu time  186.2410: real time  111.1315

 eigenvalue-minimisations  :  8152
 total energy-change (2. order) :-0.3409392E+04  (-0.3111991E+04)
 number of electron     347.0000000 magnetization      82.0000000
 augmentation part      347.0000000 magnetization      82.0000000

 Free energy of the ion-electron system (eV)
  ---------------------------------------------------
  alpha Z        PSCENC =        92.14382556
  Ewald energy   TEWEN  =    110962.05600897
  -Hartree energ DENC   =   -123650.78206850
  -exchange      EXHF   =         0.00000000
  -V(xc)+E(xc)   XCENC  =      1477.78508440
  PAW double counting   =     12389.81687870   -12541.43845553
  entropy T*S    EENTRO =        -0.00654000
  eigenvalues    EBANDS =     -5709.07427432
  atomic energy  EATOM  =     16689.68470767
  Solvation  Ediel_sol  =       379.44280929
  ---------------------------------------------------
  free energy    TOTEN  =        89.62797624 eV

  energy without entropy =       89.63451624  energy(sigma->0) =       89.63124624


--------------------------------------------------------------------------------------------------------




--------------------------------------- Iteration      1(   3)  ---------------------------------------


     EDDAV:  cpu time  161.4944: real time   97.1582
       DOS:  cpu time    0.0023: real time    0.0012
    --------------------------------------------
      LOOP:  cpu time  161.4967: real time   97.1593

 eigenvalue-minimisations  :  6600
 total energy-change (2. order) :-0.9459959E+03  (-0.9379438E+03)
 number of electron     347.0000000 magnetization      82.0000000
 augmentation part      347.0000000 magnetization      82.0000000

 Free energy of the ion-electron system (eV)
  ---------------------------------------------------
  alpha Z        PSCENC =        92.14382556
  Ewald energy   TEWEN  =    110962.05600897
  -Hartree energ DENC   =   -123650.78206850
  -exchange      EXHF   =         0.00000000
  -V(xc)+E(xc)   XCENC  =      1477.78508440
  PAW double counting   =     12389.81687870   -12541.43845553
  entropy T*S    EENTRO =        -0.00662823
  eigenvalues    EBANDS =     -6655.07005391
  atomic energy  EATOM  =     16689.68470767
  Solvation  Ediel_sol  =       379.44280929
  ---------------------------------------------------
  free energy    TOTEN  =      -856.36789158 eV

  energy without entropy =     -856.36126335  energy(sigma->0) =     -856.36457747


--------------------------------------------------------------------------------------------------------




--------------------------------------- Iteration      1(   4)  ---------------------------------------


     EDDAV:  cpu time  156.8108: real time   94.5253
       DOS:  cpu time    0.0024: real time    0.0012
    --------------------------------------------
      LOOP:  cpu time  156.8132: real time   94.5264

 eigenvalue-minimisations  :  6360
 total energy-change (2. order) :-0.4828504E+02  (-0.4785560E+02)
 number of electron     347.0000000 magnetization      82.0000000
 augmentation part      347.0000000 magnetization      82.0000000

 Free energy of the ion-electron system (eV)
  ---------------------------------------------------
  alpha Z        PSCENC =        92.14382556
  Ewald energy   TEWEN  =    110962.05600897
  -Hartree energ DENC   =   -123650.78206850
  -exchange      EXHF   =         0.00000000
  -V(xc)+E(xc)   XCENC  =      1477.78508440
  PAW double counting   =     12389.81687870   -12541.43845553
  entropy T*S    EENTRO =        -0.01364284
  eigenvalues    EBANDS =     -6703.34807690
  atomic energy  EATOM  =     16689.68470767
  Solvation  Ediel_sol  =       379.44280929
  ---------------------------------------------------
  free energy    TOTEN  =      -904.65292918 eV

  energy without entropy =     -904.63928634  energy(sigma->0) =     -904.64610776


--------------------------------------------------------------------------------------------------------




--------------------------------------- Iteration      1(   5)  ---------------------------------------


     EDDAV:  cpu time  157.9739: real time   95.4196
       DOS:  cpu time    0.0024: real time    0.0012
    CHARGE:  cpu time   15.8202: real time   15.2506
    MIXING:  cpu time    0.1323: real time    0.1216
    --------------------------------------------
      LOOP:  cpu time  173.9288: real time  110.7930

 eigenvalue-minimisations  :  6496
 total energy-change (2. order) :-0.1011443E+01  (-0.1007715E+01)
 number of electron     346.3999694 magnetization      77.9495253
 augmentation part       18.3981777 magnetization      78.0665533

 Broyden mixing:
  rms(total) = 0.65891E+01    rms(broyden)= 0.65882E+01
  rms(prec ) = 0.66851E+01
  weight for this iteration     100.00

 Free energy of the ion-electron system (eV)
  ---------------------------------------------------
  alpha Z        PSCENC =        92.14382556
  Ewald energy   TEWEN  =    110962.05600897
  -Hartree energ DENC   =   -123650.78206850
  -exchange      EXHF   =         0.00000000
  -V(xc)+E(xc)   XCENC  =      1477.78508440
  PAW double counting   =     12389.81687870   -12541.43845553
  entropy T*S    EENTRO =        -0.01365926
  eigenvalues    EBANDS =     -6704.35950306
  atomic energy  EATOM  =     16689.68470767
  Solvation  Ediel_sol  =       379.44280929
  ---------------------------------------------------
  free energy    TOTEN  =      -905.66437177 eV

  energy without entropy =     -905.65071250  energy(sigma->0) =     -905.65754214


--------------------------------------------------------------------------------------------------------




--------------------------------------- Iteration      1(   6)  ---------------------------------------


    POTLOK:  cpu time   76.7914: real time   76.9440
    SETDIJ:  cpu time    1.8461: real time    1.4546
    EDDIAG:  cpu time   22.7213: real time   18.2752
  RMM-DIIS:  cpu time  171.1198: real time  104.7099
    ORTHCH:  cpu time    2.0683: real time    1.0392
       DOS:  cpu time    0.0785: real time    0.0394
    CHARGE:  cpu time   15.8286: real time   14.8636
    MIXING:  cpu time    0.1422: real time    0.1090
    --------------------------------------------
      LOOP:  cpu time  290.5963: real time  217.4350

 eigenvalue-minimisations  :  5120
 total energy-change (2. order) : 0.2418946E+03  (-0.2856508E+02)
 number of electron     346.3999720 magnetization      73.3317653
 augmentation part       17.3340499 magnetization      70.8392007

 Broyden mixing:
  rms(total) = 0.33520E+01    rms(broyden)= 0.33517E+01
  rms(prec ) = 0.33948E+01
  weight for this iteration     100.00

 eigenvalues of (default mixing * dielectric matrix)
  average eigenvalue GAMMA=   1.0336
  1.0336

 Free energy of the ion-electron system (eV)
  ---------------------------------------------------
  alpha Z        PSCENC =        92.14382556
  Ewald energy   TEWEN  =    110962.05600897
  -Hartree energ DENC   =   -124260.70536291
  -exchange      EXHF   =         0.00000000
  -V(xc)+E(xc)   XCENC  =      1624.93398294
  PAW double counting   =     20278.04481706   -20436.64637236
  entropy T*S    EENTRO =        -0.01624369
  eigenvalues    EBANDS =     -5881.75172596
  atomic energy  EATOM  =     16689.68470767
  Solvation  Ediel_sol  =       268.48658121
  ---------------------------------------------------
  free energy    TOTEN  =      -663.76978151 eV

  energy without entropy =     -663.75353782  energy(sigma->0) =     -663.76165966


--------------------------------------------------------------------------------------------------------




--------------------------------------- Iteration      1(   7)  ---------------------------------------


    POTLOK:  cpu time   74.3331: real time   74.4762
    SETDIJ:  cpu time    1.9243: real time    1.5331
    EDDIAG:  cpu time   22.8167: real time   18.3159
  RMM-DIIS:  cpu time  171.5290: real time  104.8154
    ORTHCH:  cpu time    2.1086: real time    1.0589
       DOS:  cpu time    0.0240: real time    0.0120
    CHARGE:  cpu time   15.8355: real time   14.8697
    MIXING:  cpu time    0.1499: real time    0.1012
    --------------------------------------------
      LOOP:  cpu time  288.7211: real time  215.1824

 eigenvalue-minimisations  :  5125
 total energy-change (2. order) :-0.3900854E+02  (-0.8056505E+01)
 number of electron     346.3999739 magnetization      69.2544553
 augmentation part       16.2943215 magnetization      66.6000040

 Broyden mixing:
  rms(total) = 0.22872E+01    rms(broyden)= 0.22870E+01
  rms(prec ) = 0.23007E+01
  weight for this iteration     100.00

 eigenvalues of (default mixing * dielectric matrix)
  average eigenvalue GAMMA=   1.0531
  1.2969  0.8092

 Free energy of the ion-electron system (eV)
  ---------------------------------------------------
  alpha Z        PSCENC =        92.14382556
  Ewald energy   TEWEN  =    110962.05600897
  -Hartree energ DENC   =   -124665.33992559
  -exchange      EXHF   =         0.00000000
  -V(xc)+E(xc)   XCENC  =      1621.96815041
  PAW double counting   =     28746.47466066   -28910.22551176
  entropy T*S    EENTRO =        -0.01672408
  eigenvalues    EBANDS =     -5381.37050081
  atomic energy  EATOM  =     16689.68470767
  Solvation  Ediel_sol  =       141.84698677
  ---------------------------------------------------
  free energy    TOTEN  =      -702.77832221 eV

  energy without entropy =     -702.76159812  energy(sigma->0) =     -702.76996016


--------------------------------------------------------------------------------------------------------




--------------------------------------- Iteration      1(   8)  ---------------------------------------


    POTLOK:  cpu time   74.0160: real time   74.1739
    SETDIJ:  cpu time    1.6946: real time    1.3028
    EDDIAG:  cpu time   22.8034: real time   18.2927
  RMM-DIIS:  cpu time  171.2622: real time  104.7509
    ORTHCH:  cpu time    2.1373: real time    1.0733
       DOS:  cpu time    0.0026: real time    0.0013
    CHARGE:  cpu time   15.8372: real time   14.8627
    MIXING:  cpu time    0.1579: real time    0.1088
    --------------------------------------------
      LOOP:  cpu time  287.9112: real time  214.5665

 eigenvalue-minimisations  :  5120
 total energy-change (2. order) :-0.6096989E+01  (-0.1234404E+01)
 number of electron     346.3999739 magnetization      62.7967978
 augmentation part       16.2034553 magnetization      60.2247207

 Broyden mixing:
  rms(total) = 0.17308E+01    rms(broyden)= 0.17307E+01
  rms(prec ) = 0.17403E+01
  weight for this iteration     100.00

 eigenvalues of (default mixing * dielectric matrix)
  average eigenvalue GAMMA=   1.1621
  1.3698  1.3698  0.7468

 Free energy of the ion-electron system (eV)
  ---------------------------------------------------
  alpha Z        PSCENC =        92.14382556
  Ewald energy   TEWEN  =    110962.05600897
  -Hartree energ DENC   =   -124785.42619986
  -exchange      EXHF   =         0.00000000
  -V(xc)+E(xc)   XCENC  =      1623.30716974
  PAW double counting   =     34117.90098789   -34283.64341998
  entropy T*S    EENTRO =        -0.02813827
  eigenvalues    EBANDS =     -5182.59286786
  atomic energy  EATOM  =     16689.68470767
  Solvation  Ediel_sol  =        57.72261528
  ---------------------------------------------------
  free energy    TOTEN  =      -708.87531087 eV

  energy without entropy =     -708.84717260  energy(sigma->0) =     -708.86124173


--------------------------------------------------------------------------------------------------------




--------------------------------------- Iteration      1(   9)  ---------------------------------------


    POTLOK:  cpu time   76.0870: real time   76.2482
    SETDIJ:  cpu time    1.9805: real time    1.5892
    EDDIAG:  cpu time   22.8173: real time   18.3069
  RMM-DIIS:  cpu time  171.3751: real time  104.9474
    ORTHCH:  cpu time    2.1147: real time    1.0620
       DOS:  cpu time    0.0044: real time    0.0022
    CHARGE:  cpu time   15.8214: real time   14.8545
    MIXING:  cpu time    0.1693: real time    0.1200
    --------------------------------------------
      LOOP:  cpu time  290.3697: real time  217.1305

 eigenvalue-minimisations  :  5120
 total energy-change (2. order) :-0.3520387E+02  (-0.2263958E+01)
 number of electron     346.3999735 magnetization      58.4200241
 augmentation part       16.1996511 magnetization      56.9747285

 Broyden mixing:
  rms(total) = 0.13066E+01    rms(broyden)= 0.13065E+01
  rms(prec ) = 0.13187E+01
  weight for this iteration     100.00

 eigenvalues of (default mixing * dielectric matrix)
  average eigenvalue GAMMA=   1.3084
  2.5634  1.3025  0.7742  0.5936

 Free energy of the ion-electron system (eV)
  ---------------------------------------------------
  alpha Z        PSCENC =        92.14382556
  Ewald energy   TEWEN  =    110962.05600897
  -Hartree energ DENC   =   -124871.27345199
  -exchange      EXHF   =         0.00000000
  -V(xc)+E(xc)   XCENC  =      1605.85211246
  PAW double counting   =     39670.29258131   -39837.52332677
  entropy T*S    EENTRO =        -0.01829687
  eigenvalues    EBANDS =     -5003.05899099
  atomic energy  EATOM  =     16689.68470767
  Solvation  Ediel_sol  =       -52.23435477
  ---------------------------------------------------
  free energy    TOTEN  =      -744.07918541 eV

  energy without entropy =     -744.06088854  energy(sigma->0) =     -744.07003698


--------------------------------------------------------------------------------------------------------




--------------------------------------- Iteration      1(  10)  ---------------------------------------


    POTLOK:  cpu time   74.1611: real time   74.3196
    SETDIJ:  cpu time    2.0690: real time    1.6781
    EDDIAG:  cpu time   22.7896: real time   18.2795
  RMM-DIIS:  cpu time  171.9571: real time  105.2970
    ORTHCH:  cpu time    2.1085: real time    1.0589
       DOS:  cpu time    0.0033: real time    0.0016
    CHARGE:  cpu time   15.8983: real time   14.9241
    MIXING:  cpu time    0.1743: real time    0.1229
    --------------------------------------------
      LOOP:  cpu time  289.1613: real time  215.6817

 eigenvalue-minimisations  :  5125
 total energy-change (2. order) :-0.1811133E+02  (-0.7738409E+00)
 number of electron     346.3999731 magnetization      55.3072868
 augmentation part       16.2537588 magnetization      53.6349800

 Broyden mixing:
  rms(total) = 0.10402E+01    rms(broyden)= 0.10398E+01
  rms(prec ) = 0.10493E+01
  weight for this iteration     100.00

 eigenvalues of (default mixing * dielectric matrix)
  average eigenvalue GAMMA=   1.2018
  2.5997  1.4313  0.7508  0.7347  0.4923

 Free energy of the ion-electron system (eV)
  ---------------------------------------------------
  alpha Z        PSCENC =        92.14382556
  Ewald energy   TEWEN  =    110962.05600897
  -Hartree energ DENC   =   -124924.49749473
  -exchange      EXHF   =         0.00000000
  -V(xc)+E(xc)   XCENC  =      1596.25046796
  PAW double counting   =     42132.97745125   -42300.52008334
  entropy T*S    EENTRO =        -0.01977946
  eigenvalues    EBANDS =     -4914.44674326
  atomic energy  EATOM  =     16689.68470767
  Solvation  Ediel_sol  =       -95.81887876
  ---------------------------------------------------
  free energy    TOTEN  =      -762.19051814 eV

  energy without entropy =     -762.17073869  energy(sigma->0) =     -762.18062842


--------------------------------------------------------------------------------------------------------




--------------------------------------- Iteration      1(  11)  ---------------------------------------


    POTLOK:  cpu time   73.1859: real time   73.3463
    SETDIJ:  cpu time    1.8795: real time    1.4881
    EDDIAG:  cpu time   22.7837: real time   18.2701
  RMM-DIIS:  cpu time  171.6497: real time  104.8305
    ORTHCH:  cpu time    2.1317: real time    1.0704
       DOS:  cpu time    0.0043: real time    0.0022
    CHARGE:  cpu time   15.8391: real time   14.8620
    MIXING:  cpu time    0.1821: real time    0.1326
    --------------------------------------------
      LOOP:  cpu time  287.6560: real time  214.0022

 eigenvalue-minimisations  :  5120
 total energy-change (2. order) :-0.9260878E+01  (-0.3823273E+00)
 number of electron     346.3999732 magnetization      48.9764899
 augmentation part       16.1222057 magnetization      47.2194988

 Broyden mixing:
  rms(total) = 0.99317E+00    rms(broyden)= 0.99295E+00
  rms(prec ) = 0.99680E+00
  weight for this iteration     100.00

 eigenvalues of (default mixing * dielectric matrix)
  average eigenvalue GAMMA=   1.1011
  2.5782  1.4988  0.8019  0.8019  0.6142  0.3114

 Free energy of the ion-electron system (eV)
  ---------------------------------------------------
  alpha Z        PSCENC =        92.14382556
  Ewald energy   TEWEN  =    110962.05600897
  -Hartree energ DENC   =   -124925.00153302
  -exchange      EXHF   =         0.00000000
  -V(xc)+E(xc)   XCENC  =      1590.04683696
  PAW double counting   =     41925.72139399   -42093.30415298
  entropy T*S    EENTRO =        -0.01629231
  eigenvalues    EBANDS =     -4906.93713434
  atomic energy  EATOM  =     16689.68470767
  Solvation  Ediel_sol  =      -105.84505693
  ---------------------------------------------------
  free energy    TOTEN  =      -771.45139644 eV

  energy without entropy =     -771.43510413  energy(sigma->0) =     -771.44325028


--------------------------------------------------------------------------------------------------------




--------------------------------------- Iteration      1(  12)  ---------------------------------------


    POTLOK:  cpu time   73.1108: real time   73.2694
    SETDIJ:  cpu time    2.0994: real time    1.7085
    EDDIAG:  cpu time   22.8108: real time   18.2981
  RMM-DIIS:  cpu time  171.5961: real time  104.8065
    ORTHCH:  cpu time    2.1251: real time    1.0671
       DOS:  cpu time    0.0028: real time    0.0014
    CHARGE:  cpu time   15.8498: real time   14.8821
    MIXING:  cpu time    0.1757: real time    0.1251
    --------------------------------------------
      LOOP:  cpu time  287.7705: real time  214.1581

 eigenvalue-minimisations  :  5120
 total energy-change (2. order) :-0.1445122E+02  (-0.9301816E+00)
 number of electron     346.3999732 magnetization      37.4298574
 augmentation part       16.0606560 magnetization      35.9107985

 Broyden mixing:
  rms(total) = 0.77265E+00    rms(broyden)= 0.77258E+00
  rms(prec ) = 0.77645E+00
  weight for this iteration     100.00

 eigenvalues of (default mixing * dielectric matrix)
  average eigenvalue GAMMA=   1.3854
  3.4052  2.4678  1.1701  0.8405  0.8405  0.5802  0.3936

 Free energy of the ion-electron system (eV)
  ---------------------------------------------------
  alpha Z        PSCENC =        92.14382556
  Ewald energy   TEWEN  =    110962.05600897
  -Hartree energ DENC   =   -124905.29692212
  -exchange      EXHF   =         0.00000000
  -V(xc)+E(xc)   XCENC  =      1579.41876334
  PAW double counting   =     41187.77707218   -41355.10810086
  entropy T*S    EENTRO =        -0.01322002
  eigenvalues    EBANDS =     -4932.00017605
  atomic energy  EATOM  =     16689.68470767
  Solvation  Ediel_sol  =      -104.56457351
  ---------------------------------------------------
  free energy    TOTEN  =      -785.90261484 eV

  energy without entropy =     -785.88939482  energy(sigma->0) =     -785.89600483


--------------------------------------------------------------------------------------------------------




--------------------------------------- Iteration      1(  13)  ---------------------------------------


    POTLOK:  cpu time   74.5470: real time   74.7096
    SETDIJ:  cpu time    1.9031: real time    1.5118
    EDDIAG:  cpu time   22.7879: real time   18.2809
  RMM-DIIS:  cpu time  171.4734: real time  104.8075
    ORTHCH:  cpu time    2.1239: real time    1.0664
       DOS:  cpu time    0.0042: real time    0.0021
    CHARGE:  cpu time   15.8265: real time   14.8524
    MIXING:  cpu time    0.1937: real time    0.1445
    --------------------------------------------
      LOOP:  cpu time  288.8597: real time  215.3752

 eigenvalue-minimisations  :  5125
 total energy-change (2. order) :-0.1039192E+02  (-0.1094031E+01)
 number of electron     346.3999731 magnetization      30.6069281
 augmentation part       16.0231824 magnetization      29.4229107

 Broyden mixing:
  rms(total) = 0.58490E+00    rms(broyden)= 0.58484E+00
  rms(prec ) = 0.58871E+00
  weight for this iteration     100.00

 eigenvalues of (default mixing * dielectric matrix)
  average eigenvalue GAMMA=   1.5799
  5.2707  2.3576  1.4125  0.9177  0.9177  0.7594  0.6042  0.3997

 Free energy of the ion-electron system (eV)
  ---------------------------------------------------
  alpha Z        PSCENC =        92.14382556
  Ewald energy   TEWEN  =    110962.05600897
  -Hartree energ DENC   =   -124873.95480179
  -exchange      EXHF   =         0.00000000
  -V(xc)+E(xc)   XCENC  =      1569.48167458
  PAW double counting   =     40431.51335298   -40597.99319666
  entropy T*S    EENTRO =        -0.01073693
  eigenvalues    EBANDS =     -4970.95800813
  atomic energy  EATOM  =     16689.68470767
  Solvation  Ediel_sol  =       -98.25736148
  ---------------------------------------------------
  free energy    TOTEN  =      -796.29453525 eV

  energy without entropy =     -796.28379832  energy(sigma->0) =     -796.28916678


--------------------------------------------------------------------------------------------------------




--------------------------------------- Iteration      1(  14)  ---------------------------------------


    POTLOK:  cpu time   71.5829: real time   71.7376
    SETDIJ:  cpu time    1.7927: real time    1.4011
    EDDIAG:  cpu time   22.7556: real time   18.2455
  RMM-DIIS:  cpu time  171.4330: real time  104.8231
    ORTHCH:  cpu time    2.1289: real time    1.0690
       DOS:  cpu time    0.0039: real time    0.0019
    CHARGE:  cpu time   15.8304: real time   14.8792
    MIXING:  cpu time    0.1932: real time    0.1438
    --------------------------------------------
      LOOP:  cpu time  285.7206: real time  212.3013

 eigenvalue-minimisations  :  5120
 total energy-change (2. order) :-0.1038076E+01  (-0.2565075E+00)
 number of electron     346.3999731 magnetization      24.5589710
 augmentation part       16.0094013 magnetization      23.6270692

 Broyden mixing:
  rms(total) = 0.41264E+00    rms(broyden)= 0.41261E+00
  rms(prec ) = 0.41631E+00
  weight for this iteration     100.00

 eigenvalues of (default mixing * dielectric matrix)
  average eigenvalue GAMMA=   1.7684
  7.4635  2.4363  1.2010  1.2010  0.9417  0.9417  0.7254  0.6055  0.3997

 Free energy of the ion-electron system (eV)
  ---------------------------------------------------
  alpha Z        PSCENC =        92.14382556
  Ewald energy   TEWEN  =    110962.05600897
  -Hartree energ DENC   =   -124867.90576058
  -exchange      EXHF   =         0.00000000
  -V(xc)+E(xc)   XCENC  =      1568.65959453
  PAW double counting   =     40583.95654675   -40750.44964381
  entropy T*S    EENTRO =        -0.01141461
  eigenvalues    EBANDS =     -4983.84401601
  atomic energy  EATOM  =     16689.68470767
  Solvation  Ediel_sol  =       -91.62245998
  ---------------------------------------------------
  free energy    TOTEN  =      -797.33261152 eV

  energy without entropy =     -797.32119691  energy(sigma->0) =     -797.32690421


--------------------------------------------------------------------------------------------------------




--------------------------------------- Iteration      1(  15)  ---------------------------------------


    POTLOK:  cpu time   72.5575: real time   72.7124
    SETDIJ:  cpu time    2.0869: real time    1.6961
    EDDIAG:  cpu time   22.7573: real time   18.2846
  RMM-DIIS:  cpu time  171.2482: real time  104.7245
    ORTHCH:  cpu time    2.1274: real time    1.0683
       DOS:  cpu time    0.0025: real time    0.0012
    CHARGE:  cpu time   15.8286: real time   14.8612
    MIXING:  cpu time    0.2055: real time    0.1559
    --------------------------------------------
      LOOP:  cpu time  286.8139: real time  213.5042

 eigenvalue-minimisations  :  5120
 total energy-change (2. order) : 0.2075969E+01  (-0.1277298E+00)
 number of electron     346.3999729 magnetization      19.7070749
 augmentation part       16.1209499 magnetization      19.7354038

 Broyden mixing:
  rms(total) = 0.47938E+00    rms(broyden)= 0.47897E+00
  rms(prec ) = 0.49041E+00
  weight for this iteration     100.00

 eigenvalues of (default mixing * dielectric matrix)
  average eigenvalue GAMMA=   1.8089
  8.5232  2.3653  1.5783  1.0714  1.0714  1.1355  0.7148  0.6131  0.6131  0.4032

 Free energy of the ion-electron system (eV)
  ---------------------------------------------------
  alpha Z        PSCENC =        92.14382556
  Ewald energy   TEWEN  =    110962.05600897
  -Hartree energ DENC   =   -124842.08766564
  -exchange      EXHF   =         0.00000000
  -V(xc)+E(xc)   XCENC  =      1569.19625366
  PAW double counting   =     40317.75590042   -40484.22175524
  entropy T*S    EENTRO =        -0.04358296
  eigenvalues    EBANDS =     -5023.76734735
  atomic energy  EATOM  =     16689.68470767
  Solvation  Ediel_sol  =       -75.97298714
  ---------------------------------------------------
  free energy    TOTEN  =      -795.25664205 eV

  energy without entropy =     -795.21305909  energy(sigma->0) =     -795.23485057


--------------------------------------------------------------------------------------------------------




--------------------------------------- Iteration      1(  16)  ---------------------------------------


    POTLOK:  cpu time   72.1457: real time   72.3022
    SETDIJ:  cpu time    1.8932: real time    1.5018
    EDDIAG:  cpu time   22.7904: real time   18.2784
  RMM-DIIS:  cpu time  171.4504: real time  104.7881
    ORTHCH:  cpu time    2.1330: real time    1.0710
       DOS:  cpu time    0.0027: real time    0.0013
    CHARGE:  cpu time   15.8212: real time   14.8495
    MIXING:  cpu time    0.2101: real time    0.1613
    --------------------------------------------
      LOOP:  cpu time  286.4466: real time  212.9537

 eigenvalue-minimisations  :  5120
 total energy-change (2. order) : 0.2381136E+01  (-0.5786622E-01)
 number of electron     346.3999730 magnetization      16.1251779
 augmentation part       16.0776774 magnetization      15.5520022

 Broyden mixing:
  rms(total) = 0.31102E+00    rms(broyden)= 0.31066E+00
  rms(prec ) = 0.31424E+00
  weight for this iteration     100.00

 eigenvalues of (default mixing * dielectric matrix)
  average eigenvalue GAMMA=   1.9169
  9.8907  2.3793  2.3793  1.2515  1.0513  1.0513  0.8755  0.4047  0.6654  0.6073
  0.5294

 Free energy of the ion-electron system (eV)
  ---------------------------------------------------
  alpha Z        PSCENC =        92.14382556
  Ewald energy   TEWEN  =    110962.05600897
  -Hartree energ DENC   =   -124834.18884805
  -exchange      EXHF   =         0.00000000
  -V(xc)+E(xc)   XCENC  =      1571.44651853
  PAW double counting   =     40288.53582865   -40455.22799297
  entropy T*S    EENTRO =        -0.01735408
  eigenvalues    EBANDS =     -5035.20852971
  atomic energy  EATOM  =     16689.68470767
  Solvation  Ediel_sol  =       -72.09967111
  ---------------------------------------------------
  free energy    TOTEN  =      -792.87550653 eV

  energy without entropy =     -792.85815245  energy(sigma->0) =     -792.86682949


--------------------------------------------------------------------------------------------------------




--------------------------------------- Iteration      1(  17)  ---------------------------------------


    POTLOK:  cpu time   72.0077: real time   72.1682
    SETDIJ:  cpu time    1.8512: real time    1.4598
    EDDIAG:  cpu time   22.8065: real time   18.3037
  RMM-DIIS:  cpu time  171.5010: real time  104.7628
[...]
   -.322E+02 0.996E+01 0.914E+02   0.321E+02 -.984E+01 -.911E+02   -.703E-02 0.325E-02 0.931E-02   -.338E-02 0.134E-02 0.661E-02
   -.202E+02 -.322E+01 0.794E+02   0.200E+02 0.324E+01 -.791E+02   -.289E-02 0.174E-02 0.549E-02   -.246E-02 -.201E-03 0.564E-02
   -.316E+01 -.434E+01 0.700E+02   0.311E+01 0.430E+01 -.698E+02   -.405E-03 -.555E-04 -.553E-02   -.537E-03 -.506E-03 0.473E-02
   0.188E+02 -.103E+02 0.776E+02   -.187E+02 0.103E+02 -.773E+02   0.246E-03 0.778E-03 -.303E-02   0.223E-02 -.109E-02 0.546E-02
   0.973E+01 -.915E+01 0.760E+02   -.962E+01 0.907E+01 -.758E+02   -.198E-02 0.151E-03 0.282E-03   0.135E-02 -.123E-02 0.534E-02
   -.476E+01 0.226E+00 0.731E+02   0.480E+01 -.281E+00 -.729E+02   -.162E-02 -.296E-03 -.607E-02   -.294E-03 -.265E-03 0.496E-02
   -.112E+02 0.614E+01 0.722E+02   0.112E+02 -.613E+01 -.720E+02   0.111E-02 0.235E-02 -.529E-02   -.115E-02 0.616E-03 0.485E-02
   -.318E+01 0.388E+01 0.726E+02   0.310E+01 -.384E+01 -.724E+02   0.162E-02 0.295E-02 -.651E-02   -.456E-03 0.502E-03 0.489E-02
   0.123E+02 -.325E+01 0.751E+02   -.123E+02 0.327E+01 -.749E+02   0.343E-02 0.216E-02 -.951E-02   0.128E-02 -.256E-03 0.515E-02
   0.316E+01 0.252E+02 -.414E+03   -.389E+01 -.239E+02 0.406E+03   0.886E+00 -.965E+00 0.823E+01   -.195E-03 0.634E-02 -.178E-01
   -.110E+02 -.425E+02 -.323E+03   0.167E+02 0.515E+02 0.330E+03   -.537E+01 -.832E+01 -.674E+01   0.788E-02 0.169E-01 -.821E-03
   -.434E+02 -.114E+03 -.310E+03   0.431E+02 0.113E+03 0.311E+03   0.578E+00 0.117E+01 -.136E+00   -.557E-02 -.142E-01 0.862E-02
   -.536E+03 0.875E+02 -.905E+03   0.595E+03 -.906E+02 0.921E+03   -.576E+02 0.360E+01 -.156E+02   -.134E-01 0.929E-02 -.187E-01
   0.246E+03 0.515E+03 -.883E+03   -.272E+03 -.565E+03 0.901E+03   0.259E+02 0.497E+02 -.159E+02   0.593E-02 0.163E-01 -.148E-01
   0.243E+03 -.365E+03 -.103E+04   -.270E+03 0.411E+03 0.106E+04   0.257E+02 -.443E+02 -.305E+02   0.788E-02 -.291E-02 -.234E-01
   -.215E+03 0.417E+03 -.308E+03   0.246E+03 -.458E+03 0.277E+03   -.293E+02 0.420E+02 0.318E+02   -.106E-01 0.394E-01 0.245E-01
   0.554E+03 0.291E+02 -.435E+03   -.612E+03 -.255E+02 0.420E+03   0.581E+02 -.207E+01 0.164E+02   0.410E-01 0.132E-01 0.144E-01
   -.451E+03 -.125E+03 -.440E+03   0.510E+03 0.114E+03 0.435E+03   -.574E+02 0.106E+02 0.652E+01   -.271E-01 -.775E-02 0.134E-01
   0.207E+03 -.434E+03 -.479E+03   -.253E+03 0.474E+03 0.480E+03   0.443E+02 -.387E+02 0.112E+01   0.117E-01 -.263E-01 0.110E-01
 -----------------------------------------------------------------------------------------------
   -.581E+01 -.129E+02 0.444E+01   0.284E-13 -.171E-12 -.114E-11   0.579E+01 0.128E+02 -.482E+01   0.175E-01 0.503E-01 0.398E+00
 
 
 POSITION                                       TOTAL-FORCE (eV/Angst)
 -----------------------------------------------------------------------------------
      1.25599     -0.72491     17.55789        -0.000197      0.001295      0.000586
      2.51201      1.45068     17.55669        -0.000566      0.006978      0.000966
      3.76825      3.62634     17.55594        -0.000244     -0.005513      0.000925
      5.02452      5.80191     17.55634        -0.000345     -0.000820     -0.000193
      6.28065      7.97755     17.55804         0.000490      0.000984      0.000375
      7.53661     10.15313     17.55878         0.000356     -0.000357      0.001367
      2.51221     -2.90074     17.55864         0.000090     -0.000353      0.001404
      3.76805     -0.72524     17.55640         0.000033      0.002327      0.003402
      5.02432      1.45060     17.55559        -0.002300      0.003520      0.002405
      6.28055      3.62627     17.55576        -0.001485     -0.002494      0.002017
      7.53671      5.80188     17.55663        -0.000025     -0.000348     -0.000395
      8.79277      7.97745     17.55857        -0.000341      0.000797      0.000635
      3.76835     -5.07638     17.55900         0.000454     -0.000509      0.000378
      5.02450     -2.90086     17.55897        -0.002950     -0.001012      0.001097
      6.28081     -0.72534     17.55675         0.000765      0.001519      0.004665
      7.53687      1.45070     17.55686        -0.000522      0.000453      0.001320
      8.79281      3.62625     17.55614        -0.002061     -0.000971      0.000186
     10.04889      5.80189     17.55763         0.000180     -0.000216      0.000330
      5.02456     -7.25183     17.55847        -0.001928     -0.000834      0.000131
      6.28061     -5.07634     17.55887        -0.001398      0.000871      0.000667
      7.53683     -2.90077     17.55781         0.000089      0.000620      0.001728
      8.79290     -0.72496     17.55649         0.000198      0.000588      0.001063
     10.04888      1.45069     17.55625        -0.000509     -0.000478     -0.000391
     11.30494      3.62634     17.55724         0.000208      0.000643      0.000090
      6.28060     -9.42734     17.55816        -0.000440     -0.000526     -0.000203
      7.53678     -7.25177     17.55819        -0.000019     -0.000229      0.000131
      8.79290     -5.07618     17.55814         0.000241      0.001198      0.000266
     10.04897     -2.90047     17.55750        -0.001233     -0.001328      0.000470
     11.30499     -0.72483     17.55724        -0.000552     -0.000280      0.000374
     12.56103      1.45081     17.55779        -0.000702      0.000099     -0.000089
      7.53657    -11.60296     17.55801         0.000182      0.003216      0.000281
      8.79270     -9.42733     17.55714         0.002104     -0.000371      0.000277
     10.04895     -7.25176     17.55713         0.001402      0.000157     -0.000107
     11.30508     -5.07612     17.55792        -0.002335     -0.001786     -0.000762
     12.56105     -2.90051     17.55840         0.000335      0.000145      0.000084
     13.81707     -0.72487     17.55855        -0.000708      0.000069      0.000159
      1.25614      0.72554     17.55750        -0.000627     -0.002972      0.000255
      2.51224      2.90106     17.55617         0.000856     -0.000452      0.000121
      3.76845      5.07660     17.55600         0.000086      0.005604     -0.000538
      5.02460      7.25236     17.55744        -0.000694     -0.000193     -0.000064
      6.28058      9.42799     17.55871         0.000384      0.000308      0.000975
      7.53659     11.60360     17.55874         0.000921      0.001436      0.000741
      2.51215     -1.45026     17.55750         0.000960      0.001505      0.000657
      3.76830      0.72531     17.55672         0.002289     -0.002764     -0.000627
      5.02441      2.90090     17.55556         0.000947      0.000720     -0.000728
      6.28059      5.07661     17.55570         0.000605      0.001723     -0.000776
      7.53673      7.25230     17.55784        -0.000852      0.000226      0.000042
      8.79273      9.42790     17.55902         0.000098      0.000928      0.000987
      3.76840     -3.62584     17.55936        -0.000405      0.000649      0.001664
      5.02446     -1.45017     17.55858        -0.000733      0.000561      0.001355
      6.28039      0.72529     17.55874         0.002184     -0.001303      0.000767
      7.53656      2.90097     17.55605         0.002171      0.000321      0.000846
      8.79278      5.07663     17.55645         0.000666      0.001545     -0.000600
     10.04888      7.25230     17.55863        -0.001031     -0.000078      0.000571
      5.02453     -5.80139     17.55896        -0.000886     -0.000812      0.001463
      6.28063     -3.62579     17.55904        -0.000131     -0.000262      0.002014
      7.53675     -1.45027     17.55675        -0.001055      0.001466      0.001407
      8.79266      0.72544     17.55588         0.001633      0.001089      0.001632
     10.04883      2.90103     17.55607         0.000591      0.003191     -0.000166
     11.30499      5.07675     17.55784        -0.000051      0.000388      0.000091
      6.28070     -7.97694     17.55840        -0.000803      0.000941      0.000946
      7.53679     -5.80133     17.55850        -0.000862     -0.000415      0.000972
      8.79289     -3.62573     17.55774         0.000560     -0.000322      0.000473
     10.04890     -1.45006     17.55667         0.000660      0.000862     -0.000023
     11.30494      0.72555     17.55682         0.000686      0.002144     -0.000255
     12.56105      2.90122     17.55789         0.000403      0.000654     -0.000039
      7.53670    -10.15254     17.55785        -0.001455      0.000055      0.000188
      8.79288     -7.97698     17.55742        -0.000848      0.002681     -0.000272
     10.04899     -5.80133     17.55790         0.000669     -0.000373     -0.000346
     11.30502     -3.62567     17.55811         0.000399     -0.000360      0.000255
     12.56104     -1.45005     17.55827         0.000545     -0.000200      0.000438
     13.81709      0.72560     17.55844         0.000784     -0.000565      0.000228
      5.17834     -0.78232     23.62713        -0.008710     -0.004380     -0.040865
      5.02131     -0.57376     22.10891         0.007566      0.022832     -0.021792
      5.77532      1.05945     21.66368        -0.007754     -0.013354      0.019862
      6.46858     -0.85787     23.95999        -0.001554      0.032356     -0.001069
      4.57594     -1.93144     23.97487        -0.005855     -0.016094      0.030472
      4.60087      0.22192     24.29330         0.023681      0.013080     -0.008809
      5.66109     -1.51313     21.42543         0.007520     -0.027419     -0.013289
      3.74071     -0.54461     21.76794        -0.021052     -0.021721     -0.004539
      6.95356      0.84352     21.53088         0.036577     -0.022605     -0.003573
      4.87057      1.85317     21.64110        -0.025351      0.012327      0.003307
 -----------------------------------------------------------------------------------
    total drift:                               -0.002558     -0.003457      0.013080


--------------------------------------------------------------------------------------------------------



  FREE ENERGIE OF THE ION-ELECTRON SYSTEM (eV)
  ---------------------------------------------------
  free  energy   TOTEN  =      -775.19633261 eV

  energy  without entropy=     -775.17059990  energy(sigma->0) =     -775.18346626
 


--------------------------------------------------------------------------------------------------------


    POTLOK:  cpu time   58.0780: real time   57.8354


--------------------------------------------------------------------------------------------------------


 Dimer: Init Mode:
 Dimer: MODECAR found
 Dimer: -----------------
 Dimer: Itr    1 Rot    0

 Dimer: Central Point
 Dimer: F0      0.107269

 Dimer: Projection
 Dimer: N*F0  4.243692454351239E-002
 Dimer: F0sq  1.150660687867554E-002
 Dimer: Feffsq   1.800892564711764E-003
 
 stress matrix after NEB project (eV)
    -27.25890      0.59574      0.32840
      0.59580    -26.29893      0.24120
      0.32694      0.24119      0.15417
  FORCES: max atom, RMS     0.043147    0.011846
  FORCE total and by dimension    0.107269    0.040865
  Stress total and by dimension   37.891240   27.258897
 OPT: skip step - force has converged


--------------------------------------------------------------------------------------------------------


  
 reached required accuracy - stopping structural energy minimisation
 writing wavefunctions
     LOOP+:  cpu time10075.0555: real time 7423.9210
    4ORBIT:  cpu time    0.0000: real time    0.0000
 


 total charge     
 
# of ion       s       p       d       tot
------------------------------------------
    1        0.744   1.393   0.000   2.137
    2        0.744   1.393   0.000   2.137
    3        0.744   1.393   0.000   2.137
    4        0.744   1.393   0.000   2.137
    5        0.744   1.393   0.000   2.137
    6        0.744   1.393   0.000   2.137
    7        0.744   1.393   0.000   2.137
    8        0.744   1.393   0.000   2.138
    9        0.745   1.393   0.000   2.138
   10        0.744   1.393   0.000   2.137
   11        0.744   1.393   0.000   2.137
   12        0.744   1.393   0.000   2.137
   13        0.744   1.393   0.000   2.137
   14        0.744   1.393   0.000   2.137
   15        0.745   1.393   0.000   2.138
   16        0.744   1.393   0.000   2.137
   17        0.744   1.393   0.000   2.137
   18        0.744   1.393   0.000   2.137
   19        0.744   1.393   0.000   2.137
   20        0.744   1.393   0.000   2.137
   21        0.744   1.393   0.000   2.137
   22        0.744   1.393   0.000   2.137
   23        0.744   1.393   0.000   2.137
   24        0.744   1.393   0.000   2.137
   25        0.744   1.393   0.000   2.137
   26        0.744   1.393   0.000   2.137
   27        0.744   1.393   0.000   2.137
   28        0.744   1.393   0.000   2.137
   29        0.744   1.393   0.000   2.137
   30        0.744   1.393   0.000   2.137
   31        0.744   1.393   0.000   2.137
   32        0.744   1.393   0.000   2.137
   33        0.744   1.393   0.000   2.137
   34        0.744   1.393   0.000   2.137
   35        0.744   1.393   0.000   2.137
   36        0.744   1.393   0.000   2.137
   37        1.238   2.819   0.000   4.057
   38        1.238   2.818   0.000   4.057
   39        1.238   2.818   0.000   4.057
   40        1.238   2.818   0.000   4.057
   41        1.238   2.818   0.000   4.057
   42        1.238   2.818   0.000   4.057
   43        1.238   2.819   0.000   4.057
   44        1.238   2.818   0.000   4.057
   45        1.238   2.818   0.000   4.057
   46        1.238   2.818   0.000   4.057
   47        1.238   2.818   0.000   4.057
   48        1.238   2.818   0.000   4.057
   49        1.238   2.818   0.000   4.057
   50        1.238   2.818   0.000   4.056
   51        1.238   2.818   0.000   4.056
   52        1.238   2.818   0.000   4.057
   53        1.238   2.818   0.000   4.057
   54        1.238   2.819   0.000   4.057
   55        1.238   2.818   0.000   4.057
   56        1.238   2.818   0.000   4.057
   57        1.238   2.818   0.000   4.057
   58        1.238   2.818   0.000   4.057
   59        1.238   2.818   0.000   4.057
   60        1.238   2.818   0.000   4.057
   61        1.238   2.818   0.000   4.057
   62        1.238   2.818   0.000   4.057
   63        1.238   2.819   0.000   4.057
   64        1.238   2.819   0.000   4.057
   65        1.238   2.818   0.000   4.057
   66        1.238   2.818   0.000   4.057
   67        1.238   2.818   0.000   4.057
   68        1.238   2.818   0.000   4.057
   69        1.238   2.818   0.000   4.057
   70        1.238   2.818   0.000   4.057
   71        1.238   2.818   0.000   4.057
   72        1.238   2.818   0.000   4.057
   73        0.814   1.564   0.000   2.378
   74        0.837   1.551   0.000   2.388
   75        0.904   1.729   0.000   2.633
   76        1.759   4.414   0.000   6.172
   77        1.759   4.407   0.000   6.166
   78        1.759   4.413   0.000   6.172
   79        1.759   4.401   0.000   6.160
   80        1.759   4.402   0.000   6.161
   81        1.605   3.555   0.000   5.160
   82        1.605   3.557   0.000   5.162
--------------------------------------------------
tot         85.942 185.600   0.000 271.542
 


 magnetization (x)
 
# of ion       s       p       d       tot
------------------------------------------
    1       -0.000  -0.000   0.000  -0.000
    2       -0.000   0.000   0.000   0.000
    3       -0.000  -0.000   0.000  -0.000
    4       -0.000  -0.000   0.000  -0.000
    5       -0.000  -0.000   0.000  -0.000
    6       -0.000  -0.000   0.000  -0.000
    7       -0.000  -0.000   0.000  -0.000
    8       -0.000  -0.000   0.000  -0.000
    9       -0.000  -0.000   0.000  -0.000
   10       -0.000  -0.000   0.000  -0.000
   11       -0.000  -0.000   0.000  -0.000
   12       -0.000  -0.000   0.000  -0.000
   13       -0.000  -0.000   0.000  -0.000
   14       -0.000  -0.000   0.000  -0.000
   15       -0.000  -0.000   0.000  -0.000
   16        0.000   0.000   0.000   0.000
   17       -0.000  -0.000   0.000  -0.000
   18       -0.000  -0.000   0.000  -0.000
   19       -0.000  -0.000   0.000  -0.000
   20       -0.000  -0.000   0.000  -0.000
   21       -0.000  -0.000   0.000  -0.000
   22       -0.000  -0.000   0.000  -0.000
   23       -0.000  -0.000   0.000  -0.000
   24       -0.000  -0.000   0.000  -0.000
   25       -0.000  -0.000   0.000  -0.000
   26       -0.000  -0.000   0.000  -0.000
   27       -0.000  -0.000   0.000  -0.000
   28       -0.000  -0.000   0.000  -0.000
   29       -0.000  -0.000   0.000  -0.000
   30       -0.000  -0.000   0.000  -0.000
   31       -0.000  -0.000   0.000  -0.000
   32       -0.000  -0.000   0.000  -0.000
   33       -0.000  -0.000   0.000  -0.000
   34       -0.000  -0.000   0.000  -0.000
   35       -0.000  -0.000   0.000  -0.000
   36       -0.000  -0.000   0.000  -0.000
   37        0.000   0.000   0.000   0.000
   38       -0.000   0.000   0.000   0.000
   39        0.000   0.000   0.000   0.000
   40       -0.000   0.000   0.000   0.000
   41       -0.000   0.000   0.000   0.000
   42        0.000   0.000   0.000   0.000
   43        0.000   0.000   0.000   0.000
   44        0.000   0.000   0.000   0.000
   45        0.000   0.000   0.000   0.000
   46        0.000   0.000   0.000   0.000
   47        0.000   0.000   0.000   0.000
   48       -0.000   0.000   0.000   0.000
   49       -0.000   0.000   0.000   0.000
   50       -0.000   0.000   0.000   0.000
   51        0.000   0.000   0.000   0.000
   52        0.000   0.000   0.000   0.000
   53        0.000   0.000   0.000   0.000
   54        0.000   0.000   0.000   0.000
   55        0.000   0.000   0.000   0.000
   56        0.000   0.000   0.000   0.000
   57        0.000   0.000   0.000   0.000
   58        0.000   0.000   0.000   0.000
   59        0.000   0.000   0.000   0.000
   60        0.000   0.000   0.000   0.000
   61        0.000   0.000   0.000   0.000
   62        0.000   0.000   0.000   0.000
   63        0.000   0.000   0.000   0.000
   64        0.000   0.000   0.000   0.000
   65        0.000   0.000   0.000   0.000
   66        0.000   0.000   0.000   0.000
   67        0.000   0.000   0.000   0.000
   68       -0.000   0.000   0.000   0.000
   69        0.000   0.000   0.000   0.000
   70        0.000   0.000   0.000   0.000
   71        0.000   0.000   0.000   0.000
   72       -0.000   0.000   0.000   0.000
   73        0.005   0.014   0.000   0.019
   74        0.035   0.189   0.000   0.224
   75       -0.014  -0.025   0.000  -0.039
   76       -0.000  -0.000   0.000  -0.000
   77        0.000   0.018   0.000   0.019
   78       -0.000  -0.001   0.000  -0.001
   79        0.001   0.049   0.000   0.050
   80        0.001   0.046   0.000   0.047
   81        0.002   0.169   0.000   0.171
   82        0.002   0.160   0.000   0.163
--------------------------------------------------
tot          0.034   0.620   0.000   0.654
 

 total amount of memory used by VASP MPI-rank0  1602133. kBytes
=======================================================================

   base      :      30000. kBytes
   nonlr-proj:      12084. kBytes
   fftplans  :      65180. kBytes
   grid      :     454720. kBytes
   one-center:        503. kBytes
   wavefun   :    1039646. kBytes
 
  
  
 General timing and accounting informations for this job:
 ========================================================
  
                  Total CPU time used (sec):    10123.734
                            User time (sec):     9883.924
                          System time (sec):      239.810
                         Elapsed time (sec):     7471.506
  
                   Maximum memory used (kb):     3352832.
                   Average memory used (kb):           0.
  
                          Minor page faults:      3530244
                          Major page faults:            6
                 Voluntary context switches:        67321
