 vasp.5.4.4.18Apr17-6-g9f103f2a35 (build Jun 11 2020 13:42:08) complex          
  
 executed on             LinuxIFC date 2021.02.03  11:38:52
 running on   48 total cores
 distrk:  each k-point on   16 cores,    3 groups
 distr:  one band on NCORES_PER_BAND=   1 cores,   16 groups


--------------------------------------------------------------------------------------------------------


 INCAR:
 POTCAR:    PAW_PBE B 06Sep2000                   
 POTCAR:    PAW_PBE N 08Apr2002                   
 POTCAR:    PAW_PBE C 08Apr2002                   
 POTCAR:    PAW_PBE F 08Apr2002                   
 POTCAR:    PAW_PBE O 08Apr2002                   

 ----------------------------------------------------------------------------- 
|                                                                             |
|           W    W    AA    RRRRR   N    N  II  N    N   GGGG   !!!           |
|           W    W   A  A   R    R  NN   N  II  NN   N  G    G  !!!           |
|           W    W  A    A  R    R  N N  N  II  N N  N  G       !!!           |
|           W WW W  AAAAAA  RRRRR   N  N N  II  N  N N  G  GGG   !            |
|           WW  WW  A    A  R   R   N   NN  II  N   NN  G    G                |
|           W    W  A    A  R    R  N    N  II  N    N   GGGG   !!!           |
|                                                                             |
|      For optimal performance we recommend to set                            |
|        NCORE= 4 - approx SQRT( number of cores)                             |
|      NCORE specifies how many cores store one orbital (NPAR=cpu/NCORE).     |
|      This setting can  greatly improve the performance of VASP for DFT.     |
|      The default,   NCORE=1            might be grossly inefficient         |
|      on modern multi-core architectures or massively parallel machines.     |
|      Do your own testing !!!!                                               |
|      Unfortunately you need to use the default for GW and RPA calculations. |
|      (for HF NCORE is supported but not extensively tested yet)             |
|                                                                             |
 ----------------------------------------------------------------------------- 


 ----------------------------------------------------------------------------- 
|                                                                             |
|           W    W    AA    RRRRR   N    N  II  N    N   GGGG   !!!           |
|           W    W   A  A   R    R  NN   N  II  NN   N  G    G  !!!           |
|           W    W  A    A  R    R  N N  N  II  N N  N  G       !!!           |
|           W WW W  AAAAAA  RRRRR   N  N N  II  N  N N  G  GGG   !            |
|           WW  WW  A    A  R   R   N   NN  II  N   NN  G    G                |
|           W    W  A    A  R    R  N    N  II  N    N   GGGG   !!!           |
|                                                                             |
|      You have enabled k-point parallelism (KPAR>1).                         |
|      This developmental code was originally  written by Paul Kent at ORNL,  |
|      and carefully double checked in Vienna.                                |
|      GW as well as linear response parallelism added by Martijn Marsman     |
|      and Georg Kresse.                                                      |
|      Carefully verify results versus KPAR=1.                                |
|      Report problems to Paul Kent and Vienna.                               |
|                                                                             |
 ----------------------------------------------------------------------------- 

 POTCAR:    PAW_PBE B 06Sep2000                   
   VRHFIN =B: s2p1                                                              
   LEXCH  = PE                                                                  
   EATOM  =    71.1703 eV,    5.2309 Ry                                         
                                                                                
   TITEL  = PAW_PBE B 06Sep2000                                                 
   LULTRA =        F    use ultrasoft PP ?                                      
   IUNSCR =        1    unscreen: 0-lin 1-nonlin 2-no                           
   RPACOR =    1.200    partial core radius                                     
   POMASS =   10.811; ZVAL   =    3.000    mass and valenz                      
   RCORE  =    1.700    outmost cutoff radius                                   
   RWIGS  =    1.710; RWIGS  =    0.905    wigner-seitz radius (au A)           
   ENMAX  =  318.614; ENMIN  =  238.960 eV                                      
   ICORE  =        2    local potential                                         
   LCOR   =        T    correct aug charges                                     
   LPAW   =        T    paw PP                                                  
   EAUG   =  535.514                                                            
   DEXC   =    0.000                                                            
   RMAX   =    1.732    core radius for proj-oper                               
   RAUG   =    1.300    factor for augmentation sphere                          
   RDEP   =    1.757    radius for radial grids                                 
   RDEPT  =    1.436    core radius for aug-charge                              
                                                                                
   Atomic configuration                                                         
    4 entries                                                                   
     n  l   j            E        occ.                                          
     1  0  0.50      -180.5896   2.0000                                         
     2  0  0.50        -9.4431   2.0000                                         
     2  1  0.50        -3.6068   1.0000                                         
     3  2  1.50        -4.0817   0.0000                                         
   Description                                                                  
     l       E           TYP  RCUT    TYP  RCUT                                 
     0     -9.4430752     23  1.500                                             
     0      0.8675899     23  1.500                                             
     1     -3.6067955     23  1.700                                             
     1      6.1086146     23  1.700                                             
     2     -4.0817478      7  1.700                                             
  local pseudopotential read in
  partial core-charges read in
  partial kinetic energy density read in
  atomic valenz-charges read in
  non local Contribution for L=           0  read in
    real space projection operators read in
  non local Contribution for L=           0  read in
    real space projection operators read in
  non local Contribution for L=           1  read in
    real space projection operators read in
  non local Contribution for L=           1  read in
    real space projection operators read in
    PAW grid and wavefunctions read in
 
   number of l-projection  operators is LMAX  =           4
   number of lm-projection operators is LMMAX =           8
 
 POTCAR:    PAW_PBE N 08Apr2002                   
   VRHFIN =N: s2p3                                                              
   LEXCH  = PE                                                                  
   EATOM  =   264.5486 eV,   19.4438 Ry                                         
                                                                                
   TITEL  = PAW_PBE N 08Apr2002                                                 
   LULTRA =        F    use ultrasoft PP ?                                      
   IUNSCR =        1    unscreen: 0-lin 1-nonlin 2-no                           
   RPACOR =    1.200    partial core radius                                     
   POMASS =   14.001; ZVAL   =    5.000    mass and valenz                      
   RCORE  =    1.500    outmost cutoff radius                                   
   RWIGS  =    1.400; RWIGS  =    0.741    wigner-seitz radius (au A)           
   ENMAX  =  400.000; ENMIN  =  300.000 eV                                      
   ICORE  =        2    local potential                                         
   LCOR   =        T    correct aug charges                                     
   LPAW   =        T    paw PP                                                  
   EAUG   =  627.112                                                            
   DEXC   =    0.000                                                            
   RMAX   =    1.529    core radius for proj-oper                               
   RAUG   =    1.300    factor for augmentation sphere                          
   RDEP   =    1.514    radius for radial grids                                 
   RDEPT  =    1.338    core radius for aug-charge                              
                                                                                
   Atomic configuration                                                         
    4 entries                                                                   
     n  l   j            E        occ.                                          
     1  0  0.50      -384.7179   2.0000                                         
     2  0  0.50       -18.5828   2.0000                                         
     2  1  0.50        -7.0898   3.0000                                         
     3  2  1.50        -6.8029   0.0000                                         
   Description                                                                  
     l       E           TYP  RCUT    TYP  RCUT                                 
     0    -18.5828119     23  1.200                                             
     0    -13.5018863     23  1.200                                             
     1     -7.0897853     23  1.500                                             
     1      9.5240782     23  1.500                                             
     2     -6.8029130      7  1.500                                             
  local pseudopotential read in
  partial core-charges read in
  partial kinetic energy density read in
  atomic valenz-charges read in
  non local Contribution for L=           0  read in
    real space projection operators read in
  non local Contribution for L=           0  read in
    real space projection operators read in
  non local Contribution for L=           1  read in
    real space projection operators read in
  non local Contribution for L=           1  read in
    real space projection operators read in
    PAW grid and wavefunctions read in
 
   number of l-projection  operators is LMAX  =           4
   number of lm-projection operators is LMMAX =           8
 
 POTCAR:    PAW_PBE C 08Apr2002                   
   VRHFIN =C: s2p2                                                              
   LEXCH  = PE                                                                  
   EATOM  =   147.1560 eV,   10.8157 Ry                                         
                                                                                
   TITEL  = PAW_PBE C 08Apr2002                                                 
   LULTRA =        F    use ultrasoft PP ?                                      
   IUNSCR =        1    unscreen: 0-lin 1-nonlin 2-no                           
   RPACOR =    1.200    partial core radius                                     
   POMASS =   12.011; ZVAL   =    4.000    mass and valenz                      
   RCORE  =    1.500    outmost cutoff radius                                   
   RWIGS  =    1.630; RWIGS  =    0.863    wigner-seitz radius (au A)           
   ENMAX  =  400.000; ENMIN  =  300.000 eV                                      
   ICORE  =        2    local potential                                         
   LCOR   =        T    correct aug charges                                     
   LPAW   =        T    paw PP                                                  
   EAUG   =  644.873                                                            
   DEXC   =    0.000                                                            
   RMAX   =    1.529    core radius for proj-oper                               
   RAUG   =    1.300    factor for augmentation sphere                          
   RDEP   =    1.501    radius for radial grids                                 
   RDEPT  =    1.300    core radius for aug-charge                              
                                                                                
   Atomic configuration                                                         
    4 entries                                                                   
     n  l   j            E        occ.                                          
     1  0  0.50      -273.3789   2.0000                                         
     2  0  0.50       -13.7508   2.0000                                         
     2  1  0.50        -5.2854   2.0000                                         
     3  2  1.50        -5.4423   0.0000                                         
   Description                                                                  
     l       E           TYP  RCUT    TYP  RCUT                                 
     0    -13.7508458     23  1.200                                             
     0     -8.2022199     23  1.200                                             
     1     -5.2854383     23  1.500                                             
     1     34.0145650     23  1.500                                             
     2     -5.4423304      7  1.500                                             
  local pseudopotential read in
  partial core-charges read in
  partial kinetic energy density read in
  atomic valenz-charges read in
  non local Contribution for L=           0  read in
    real space projection operators read in
  non local Contribution for L=           0  read in
    real space projection operators read in
  non local Contribution for L=           1  read in
    real space projection operators read in
  non local Contribution for L=           1  read in
    real space projection operators read in
    PAW grid and wavefunctions read in
 
   number of l-projection  operators is LMAX  =           4
   number of lm-projection operators is LMMAX =           8
 
 POTCAR:    PAW_PBE F 08Apr2002                   
   VRHFIN =F: s2p5                                                              
   LEXCH  = PE                                                                  
   EATOM  =   659.6475 eV,   48.4827 Ry                                         
                                                                                
   TITEL  = PAW_PBE F 08Apr2002                                                 
   LULTRA =        F    use ultrasoft PP ?                                      
   IUNSCR =        1    unscreen: 0-lin 1-nonlin 2-no                           
   RPACOR =    1.200    partial core radius                                     
   POMASS =   18.998; ZVAL   =    7.000    mass and valenz                      
   RCORE  =    1.520    outmost cutoff radius                                   
   RWIGS  =    1.500; RWIGS  =    0.794    wigner-seitz radius (au A)           
   ENMAX  =  400.000; ENMIN  =  300.000 eV                                      
   ICORE  =        2    local potential                                         
   LCOR   =        T    correct aug charges                                     
   LPAW   =        T    paw PP                                                  
   EAUG   =  613.614                                                            
   RMAX   =    1.555    core radius for proj-oper                               
   RAUG   =    1.300    factor for augmentation sphere                          
   RDEP   =    1.539    radius for radial grids                                 
   RDEPT  =    1.299    core radius for aug-charge                              
                                                                                
   Atomic configuration                                                         
    4 entries                                                                   
     n  l   j            E        occ.                                          
     1  0  0.50      -663.3661   2.0000                                         
     2  0  0.50       -29.8995   2.0000                                         
     2  1  0.50       -11.1114   5.0000                                         
     3  2  1.50       -10.8847   0.0000                                         
   Description                                                                  
     l       E           TYP  RCUT    TYP  RCUT                                 
     0    -29.8995018     23  1.200                                             
     0     -9.5240782     23  1.200                                             
     1    -11.1113914     23  1.520                                             
     1      1.3605826     23  1.520                                             
     2    -10.8846608      7  1.500                                             
  local pseudopotential read in
  partial core-charges read in
  partial kinetic energy density read in
  atomic valenz-charges read in
  non local Contribution for L=           0  read in
    real space projection operators read in
  non local Contribution for L=           0  read in
    real space projection operators read in
  non local Contribution for L=           1  read in
    real space projection operators read in
  non local Contribution for L=           1  read in
    real space projection operators read in
    PAW grid and wavefunctions read in
 
   number of l-projection  operators is LMAX  =           4
   number of lm-projection operators is LMMAX =           8
 
 POTCAR:    PAW_PBE O 08Apr2002                   
   VRHFIN =O: s2p4                                                              
   LEXCH  = PE                                                                  
   EATOM  =   432.3788 eV,   31.7789 Ry                                         
                                                                                
   TITEL  = PAW_PBE O 08Apr2002                                                 
   LULTRA =        F    use ultrasoft PP ?                                      
   IUNSCR =        1    unscreen: 0-lin 1-nonlin 2-no                           
   RPACOR =    1.200    partial core radius                                     
   POMASS =   16.000; ZVAL   =    6.000    mass and valenz                      
   RCORE  =    1.520    outmost cutoff radius                                   
   RWIGS  =    1.550; RWIGS  =    0.820    wigner-seitz radius (au A)           
   ENMAX  =  400.000; ENMIN  =  300.000 eV                                      
   ICORE  =        2    local potential                                         
   LCOR   =        T    correct aug charges                                     
   LPAW   =        T    paw PP                                                  
   EAUG   =  605.392                                                            
   DEXC   =    0.000                                                            
   RMAX   =    1.553    core radius for proj-oper                               
   RAUG   =    1.300    factor for augmentation sphere                          
   RDEP   =    1.550    radius for radial grids                                 
   RDEPT  =    1.329    core radius for aug-charge                              
                                                                                
   Atomic configuration                                                         
    4 entries                                                                   
     n  l   j            E        occ.                                          
     1  0  0.50      -514.6923   2.0000                                         
     2  0  0.50       -23.9615   2.0000                                         
     2  1  0.50        -9.0305   4.0000                                         
     3  2  1.50        -9.5241   0.0000                                         
   Description                                                                  
     l       E           TYP  RCUT    TYP  RCUT                                 
     0    -23.9615318     23  1.200                                             
     0     -9.5240782     23  1.200                                             
     1     -9.0304911     23  1.520                                             
     1      8.1634956     23  1.520                                             
     2     -9.5240782      7  1.500                                             
  local pseudopotential read in
  partial core-charges read in
  partial kinetic energy density read in
  kinetic energy density of atom read in
  atomic valenz-charges read in
  non local Contribution for L=           0  read in
    real space projection operators read in
  non local Contribution for L=           0  read in
    real space projection operators read in
  non local Contribution for L=           1  read in
    real space projection operators read in
  non local Contribution for L=           1  read in
    real space projection operators read in
    PAW grid and wavefunctions read in
 
   number of l-projection  operators is LMAX  =           4
   number of lm-projection operators is LMMAX =           8
 
 Optimization of the real space projectors (new method)

 maximal supplied QI-value         = 22.11
 optimisation between [QCUT,QGAM] = [ 11.94, 23.88] = [ 39.92,159.67] Ry 
 Optimized for a Real-space Cutoff    1.18 Angstroem

   l    n(q)    QCUT    max X(q) W(low)/X(q) W(high)/X(q)  e(spline) 
   0      8    11.939    53.033    0.11E-03    0.34E-03    0.60E-07
   0      8    11.939    34.740    0.11E-03    0.34E-03    0.59E-07
   1      8    11.939    30.949    0.22E-03    0.20E-03    0.17E-06
   1      8    11.939    19.518    0.20E-03    0.18E-03    0.16E-06
 Optimization of the real space projectors (new method)

 maximal supplied QI-value         = 25.13
 optimisation between [QCUT,QGAM] = [ 11.81, 23.88] = [ 39.08,159.64] Ry 
 Optimized for a Real-space Cutoff    1.41 Angstroem

   l    n(q)    QCUT    max X(q) W(low)/X(q) W(high)/X(q)  e(spline) 
   0     10    11.813    79.467    0.48E-04    0.30E-04    0.67E-06
   0     10    11.813    66.151    0.47E-04    0.30E-04    0.67E-06
   1     10    11.813    20.169    0.11E-03    0.17E-03    0.11E-05
   1     10    11.813    14.454    0.11E-03    0.17E-03    0.11E-05
 Optimization of the real space projectors (new method)

 maximal supplied QI-value         = 25.13
 optimisation between [QCUT,QGAM] = [ 11.81, 23.88] = [ 39.08,159.64] Ry 
 Optimized for a Real-space Cutoff    1.18 Angstroem

   l    n(q)    QCUT    max X(q) W(low)/X(q) W(high)/X(q)  e(spline) 
   0      8    11.813   115.676    0.10E-03    0.16E-03    0.35E-06
   0      8    11.813    87.132    0.10E-03    0.16E-03    0.35E-06
   1      8    11.813     4.429    0.16E-03    0.13E-04    0.22E-06
   1      8    11.813     2.733    0.13E-03    0.10E-04    0.18E-06
 Optimization of the real space projectors (new method)

 maximal supplied QI-value         = 24.76
 optimisation between [QCUT,QGAM] = [ 11.88, 24.01] = [ 39.54,161.47] Ry 
 Optimized for a Real-space Cutoff    1.18 Angstroem

   l    n(q)    QCUT    max X(q) W(low)/X(q) W(high)/X(q)  e(spline) 
   0      8    11.883    14.049    0.56E-04    0.86E-04    0.22E-06
   0      8    11.883     8.945    0.81E-04    0.11E-03    0.30E-06
   1      8    11.883     7.086    0.16E-03    0.15E-04    0.31E-06
   1      8    11.883     6.747    0.15E-03    0.14E-04    0.28E-06
 Optimization of the real space projectors (new method)

 maximal supplied QI-value         = 24.76
 optimisation between [QCUT,QGAM] = [ 11.88, 24.01] = [ 39.54,161.47] Ry 
 Optimized for a Real-space Cutoff    1.18 Angstroem

   l    n(q)    QCUT    max X(q) W(low)/X(q) W(high)/X(q)  e(spline) 
   0      8    11.883    20.381    0.86E-04    0.11E-03    0.31E-06
   0      8    11.883    15.268    0.94E-04    0.12E-03    0.33E-06
   1      8    11.883     5.964    0.19E-03    0.18E-04    0.33E-06
   1      8    11.883     5.382    0.17E-03    0.20E-04    0.29E-06
  PAW_PBE B 06Sep2000                   :
 energy of atom  1       EATOM=  -71.1703
 kinetic energy error for atom=    0.0009 (will be added to EATOM!!)
  PAW_PBE N 08Apr2002                   :
 energy of atom  2       EATOM= -264.5486
 kinetic energy error for atom=    0.0116 (will be added to EATOM!!)
  PAW_PBE C 08Apr2002                   :
 energy of atom  3       EATOM= -147.1560
 kinetic energy error for atom=    0.0066 (will be added to EATOM!!)
  PAW_PBE F 08Apr2002                   :
 energy of atom  4       EATOM= -659.6475
 kinetic energy error for atom=    0.0296 (will be added to EATOM!!)
  PAW_PBE O 08Apr2002                   :
 energy of atom  5       EATOM= -432.3788
 kinetic energy error for atom=    0.0194 (will be added to EATOM!!)
 
 
 POSCAR: B N C F O                               
  positions in direct lattice
  velocities in cartesian coordinates

 METAGGA = SCAN     LMAXTAU =  6    LMIXTAU =  F

 exchange correlation table for  LEXCH =        8
   RHO(1)=    0.500       N(1)  =     2000
   RHO(2)=  100.500       N(2)  =     4000

 VTST: version 3.1, (03/28/14)

 CHAIN: initializing optimizer
 
 OPT: Using VASP Conjugate-Gradient optimizer
 CHAIN: Read ICHAIN            0
 
 POSCAR: B N C F O                               
  positions in direct lattice
  velocities in cartesian coordinates
 


--------------------------------------------------------------------------------------------------------


 ion  position               nearest neighbor table
   1  0.167  0.083  0.500-  20 1.45  17 1.45  21 1.45
   2  0.167  0.333  0.500-  17 1.45  18 1.45  22 1.45
   3  0.167  0.583  0.500-  19 1.45  18 1.45  23 1.45
   4  0.167  0.833  0.500-  19 1.45  20 1.45  24 1.45
   5  0.417  0.083  0.500-  24 1.45  25 1.45  21 1.45
   6  0.417  0.333  0.500-  21 1.45  26 1.45  22 1.45
   7  0.417  0.583  0.500-  23 1.45  22 1.45  27 1.45
   8  0.417  0.833  0.500-  24 1.45  28 1.45  23 1.45
   9  0.667  0.083  0.500-  29 1.45  25 1.45  28 1.45
  10  0.667  0.333  0.500-  25 1.45  30 1.45  26 1.45
  11  0.667  0.583  0.500-  31 1.45  26 1.45  27 1.45
  12  0.667  0.833  0.500-  32 1.45  28 1.45  27 1.45
  13  0.917  0.083  0.500-  29 1.45  17 1.45  32 1.45
  14  0.917  0.333  0.500-  29 1.45  30 1.45  18 1.45
  15  0.917  0.583  0.500-  19 1.45  30 1.45  31 1.45
  16  0.917  0.833  0.500-  20 1.45  32 1.45  31 1.45
  17  0.083  0.167  0.500-   2 1.45  13 1.45   1 1.45
  18  0.083  0.417  0.500-   2 1.45   3 1.45  14 1.45
  19  0.083  0.667  0.500-   3 1.45  15 1.45   4 1.45
  20  0.083  0.917  0.500-   1 1.45  16 1.45   4 1.45
  21  0.333  0.167  0.500-   6 1.45   5 1.45   1 1.45
  22  0.333  0.417  0.500-   7 1.45   6 1.45   2 1.45
  23  0.333  0.667  0.500-   7 1.45   8 1.45   3 1.45
  24  0.333  0.917  0.500-   8 1.45   5 1.45   4 1.45
  25  0.583  0.167  0.500-  10 1.45   9 1.45   5 1.45
  26  0.583  0.417  0.500-  11 1.45   6 1.45  10 1.45
  27  0.583  0.667  0.500-   7 1.45  11 1.45  12 1.45
  28  0.583  0.917  0.500-  12 1.45   8 1.45   9 1.45
  29  0.833  0.167  0.500-  13 1.45   9 1.45  14 1.45
  30  0.833  0.417  0.500-  10 1.45  15 1.45  14 1.45
  31  0.833  0.667  0.500-  11 1.45  16 1.45  15 1.45
  32  0.833  0.917  0.500-  12 1.45  13 1.45  16 1.45
  33  0.560  0.471  0.673-  36 1.33  38 1.34  37 1.34  34 1.54
  34  0.533  0.467  0.630-  40 1.33  39 1.33  33 1.54  35 1.84
  35  0.514  0.635  0.617-  42 1.21  41 1.21  34 1.84
  36  0.693  0.594  0.682-  33 1.33
  37  0.566  0.344  0.683-  33 1.34
  38  0.446  0.471  0.692-  33 1.34
  39  0.650  0.477  0.610-  34 1.33
  40  0.404  0.341  0.620-  34 1.33
  41  0.643  0.740  0.613-  35 1.21
  42  0.378  0.590  0.617-  35 1.21
 

IMPORTANT INFORMATION: All symmetrisations will be switched off!
NOSYMM: (Re-)initialisation of all symmetry stuff for point group C_1.

 
 
 KPOINTS: K-Point Grid                            

Automatic generation of k-mesh.
Space group operators:
 irot       det(A)        alpha          n_x          n_y          n_z        tau_x        tau_y        tau_z
    1     1.000000     0.000000     1.000000     0.000000     0.000000     0.000000     0.000000     0.000000
 
 Subroutine IBZKPT returns following result:
 ===========================================
 
 Found     24 irreducible k-points:
 
 Following reciprocal coordinates:
            Coordinates               Weight
  0.125000  0.125000  0.000000     16.000000
  0.250000 -0.125000  0.000000     16.000000
  0.125000 -0.250000  0.000000     16.000000
  0.375000  0.125000  0.000000     16.000000
  0.500000 -0.375000  0.000000     16.000000
  0.125000  0.500000  0.000000     16.000000
 -0.125000 -0.375000  0.000000     16.000000
  0.375000  0.500000  0.000000     16.000000
  0.500000 -0.125000  0.000000     16.000000
 -0.375000  0.125000  0.000000     16.000000
 -0.250000  0.375000  0.000000     16.000000
  0.125000  0.250000  0.000000     16.000000
 -0.125000  0.375000  0.000000     16.000000
 -0.375000  0.250000  0.000000     16.000000
 -0.250000 -0.125000  0.000000     16.000000
 -0.125000  0.125000  0.000000     16.000000
  0.000000  0.125000  0.000000     16.000000
  0.125000  0.000000  0.000000     16.000000
  0.375000  0.375000  0.000000     16.000000
 -0.250000 -0.375000  0.000000     16.000000
  0.375000  0.250000  0.000000     16.000000
 -0.375000  0.375000  0.000000     16.000000
  0.000000  0.375000  0.000000     16.000000
  0.375000  0.000000  0.000000     16.000000
 
 Following cartesian coordinates:
            Coordinates               Weight
  0.024879  0.000000  0.000000     16.000000
  0.012439 -0.021546  0.000000     16.000000
 -0.012439 -0.021546  0.000000     16.000000
  0.049758 -0.014364  0.000000     16.000000
  0.012439 -0.050273  0.000000     16.000000
  0.062197  0.021546  0.000000     16.000000
 -0.049758 -0.014364  0.000000     16.000000
  0.087076  0.007182  0.000000     16.000000
  0.037318 -0.035909  0.000000     16.000000
 -0.024879  0.028727  0.000000     16.000000
  0.012439  0.035909  0.000000     16.000000
  0.037318  0.007182  0.000000     16.000000
  0.024879  0.028727  0.000000     16.000000
 -0.012439  0.035909  0.000000     16.000000
 -0.037318  0.007182  0.000000     16.000000
  0.000000  0.014364  0.000000     16.000000
  0.012439  0.007182  0.000000     16.000000
  0.012439 -0.007182  0.000000     16.000000
  0.074636  0.000000  0.000000     16.000000
 -0.062197 -0.007182  0.000000     16.000000
  0.062197 -0.007182  0.000000     16.000000
  0.000000  0.043091  0.000000     16.000000
  0.037318  0.021546  0.000000     16.000000
  0.037318 -0.021546  0.000000     16.000000
 


--------------------------------------------------------------------------------------------------------




 Dimension of arrays:
   k-points           NKPTS =     24   k-points in BZ     NKDIM =     24   number of bands    NBANDS=    144
   number of dos      NEDOS =   1200   number of ions     NIONS =     42
   non local maximal  LDIM  =      4   non local SUM 2l+1 LMDIM =      8
   total plane-waves  NPLWV = ******
   max r-space proj   IRMAX =   6598   max aug-charges    IRDMAX=   8974
   dimension x,y,z NGX =    80 NGY =   80 NGZ =  270
   dimension x,y,z NGXF=   160 NGYF=  160 NGZF=  540
   support grid    NGXF=   160 NGYF=  160 NGZF=  540
   ions per type =              16  16   3   5   2
   NGX,Y,Z   is equivalent  to a cutoff of  13.24, 13.24, 12.78 a.u.
   NGXF,Y,Z  is equivalent  to a cutoff of  26.47, 26.47, 25.57 a.u.

 SYSTEM =  hBN                                     
 POSCAR =  B N C F O                               

 Startparameter for this run:
   NWRITE =      2    write-flag & timer
   PREC   = accura    normal or accurate (medium, high low for compatibility)
   ISTART =      1    job   : 0-new  1-cont  2-samecut
   ICHARG =      0    charge: 1-file 2-atom 10-const
   ISPIN  =      2    spin polarized calculation?
   LNONCOLLINEAR =      F non collinear calculations
   LSORBIT =      F    spin-orbit coupling
   INIWAV =      1    electr: 0-lowe 1-rand  2-diag
   LASPH  =      T    aspherical Exc in radial PAW
   METAGGA=      F    non-selfconsistent MetaGGA calc.

 Electronic Relaxation 1
   ENCUT  =  550.0 eV  40.42 Ry    6.36 a.u.  19.22 19.22 67.15*2*pi/ulx,y,z
   ENINI  =  550.0     initial cutoff
   ENAUG  =  644.9 eV  augmentation charge cutoff
   NELM   =    100;   NELMIN=  2; NELMDL=  0     # of ELM steps 
   EDIFF  = 0.1E-04   stopping-criterion for ELM
   LREAL  =      T    real-space projection
   NLSPLINE    = F    spline interpolate recip. space projectors
   LCOMPAT=      F    compatible to vasp.4.4
   GGA_COMPAT  = T    GGA compatible to vasp.4.4-vasp.4.6
   LMAXPAW     = -100 max onsite density
   LMAXMIX     =    2 max onsite mixed and CHGCAR
   VOSKOWN=      0    Vosko Wilk Nusair interpolation
   ROPT   =   -0.00025  -0.00025  -0.00025  -0.00025
   ROPT   =   -0.00025
 Ionic relaxation
   EDIFFG = -.5E-01   stopping-criterion for IOM
   NSW    =      0    number of steps for IOM
   NBLOCK =      1;   KBLOCK =      1    inner block; outer block 
   IBRION =     -1    ionic relax: 0-MD 1-quasi-New 2-CG
   NFREE  =      1    steps in history (QN), initial steepest desc. (CG)
   ISIF   =      2    stress and relaxation
   IWAVPR =     10    prediction:  0-non 1-charg 2-wave 3-comb
   ISYM   =      0    0-nonsym 1-usesym 2-fastsym
   LCORR  =      T    Harris-Foulkes like correction to forces

   POTIM  = 0.5000    time-step for ionic-motion
   TEIN   =    0.0    initial temperature
   TEBEG  =    0.0;   TEEND  =   0.0 temperature during run
   SMASS  =  -3.00    Nose mass-parameter (am)
   estimated Nose-frequenzy (Omega)   =  0.10E-29 period in steps =****** mass=  -0.231E-26a.u.
   SCALEE = 1.0000    scale energy and forces
   NPACO  =    256;   APACO  = 16.0  distance and # of slots for P.C.
   PSTRESS=    0.0 pullay stress

  Mass of Ions in am
   POMASS =  10.81 14.00 12.01 19.00 16.00
  Ionic Valenz
   ZVAL   =   3.00  5.00  4.00  7.00  6.00
  Atomic Wigner-Seitz radii
   RWIGS  =  -1.00 -1.00 -1.00 -1.00 -1.00
  virtual crystal weights 
   VCA    =   1.00  1.00  1.00  1.00  1.00
   NELECT =     186.7000    total number of electrons
   NUPDOWN=      -1.0000    fix difference up-down

 DOS related values:
   EMIN   = -10.00;   EMAX   =  5.00  energy-range for DOS
   EFERMI =   0.00
   ISMEAR =     0;   SIGMA  =   0.05  broadening in eV -4-tet -1-fermi 0-gaus

 Electronic relaxation 2 (details)
   IALGO  =     68    algorithm
   LDIAG  =      T    sub-space diagonalisation (order eigenvalues)
   LSUBROT=      F    optimize rotation matrix (better conditioning)
   TURBO    =      0    0=normal 1=particle mesh
   IRESTART =      0    0=no restart 2=restart with 2 vectors
   NREBOOT  =      0    no. of reboots
   NMIN     =      0    reboot dimension
   EREF     =   0.00    reference energy to select bands
   IMIX   =      4    mixing-type and parameters
     AMIX     =   0.40;   BMIX     =  1.00
     AMIX_MAG =   1.60;   BMIX_MAG =  1.00
     AMIN     =   0.10
     WC   =   100.;   INIMIX=   1;  MIXPRE=   1;  MAXMIX= -45

 Intra band minimization:
   WEIMIN = 0.0000     energy-eigenvalue tresh-hold
   EBREAK =  0.17E-07  absolut break condition
   DEPER  =   0.30     relativ break condition  

   TIME   =   0.40     timestep for ELM

  volume/ion in A,a.u.               =      73.11       493.39
  Fermi-wavevector in a.u.,A,eV,Ry     =   0.643737  1.216486  5.638215  0.414397
  Thomas-Fermi vector in A             =   1.710835
 
 Write flags
   LWAVE        =      T    write WAVECAR
   LDOWNSAMPLE  =      F    k-point downsampling of WAVECAR
   LCHARG       =      T    write CHGCAR
   LVTOT        =      F    write LOCPOT, total local potential
   LVHAR        =      T    write LOCPOT, Hartree potential only
   LELF         =      F    write electronic localiz. function (ELF)
   LORBIT       =     11    0 simple, 1 ext, 2 COOP (PROOUT), +10 PAW based schemes


 Dipole corrections
   LMONO  =      F    monopole corrections only (constant potential shift)
   LDIPOL =      F    correct potential (dipole corrections)
   IDIPOL =      0    1-x, 2-y, 3-z, 4-all directions 
   EPSILON=  1.0000000 bulk dielectric constant

 Exchange correlation treatment:
   GGA     =    --    GGA type
   LEXCH   =     8    internal setting for exchange type
   VOSKOWN=      0    Vosko Wilk Nusair interpolation
   LHFCALC =     F    Hartree Fock is set to
   LHFONE  =     F    Hartree Fock one center treatment
   AEXX    =    0.0000 exact exchange contribution

 Linear response parameters
   LEPSILON=     F    determine dielectric tensor
   LRPA    =     F    only Hartree local field effects (RPA)
   LNABLA  =     F    use nabla operator in PAW spheres
   LVEL    =     F    velocity operator in full k-point grid
   LINTERFAST=   F  fast interpolation
   KINTER  =     0    interpolate to denser k-point grid
   CSHIFT  =0.1000    complex shift for real part using Kramers Kronig
   OMEGAMAX=  -1.0    maximum frequency
   DEG_THRESHOLD= 0.2000000E-02 threshold for treating states as degnerate
   RTIME   =   -0.100 relaxation time in fs
  (WPLASMAI=    0.000 imaginary part of plasma frequency in eV, 0.658/RTIME)
   DFIELD  = 0.0000000 0.0000000 0.0000000 field for delta impulse in time
 
 Orbital magnetization related:
   ORBITALMAG=     F  switch on orbital magnetization
   LCHIMAG   =     F  perturbation theory with respect to B field
   DQ        =  0.001000  dq finite difference perturbation B field
   LLRAUG    =     F  two centre corrections for induced B field

 Solvation model:
   LSOL    =     T         switch on solvation model
   EB_K    = 78.400000     relative permittivity of the bulk solvent
   SIGMA_K =  0.600000     width of the dielectric cavity
   NC_K    =  0.002500     cutoff charge density
   TAU     =  0.000000     cavity surface tension
   LAMBDA_D_K    =  3.040000     Debye length in Angstroms
   LRHOB     =     F     write boundcharge  density
   LRHOION     =     F     write ioniccharge density



--------------------------------------------------------------------------------------------------------


 Static calculation
 charge density and potential will be updated during run
 spin polarized calculation
 RMM-DIIS sequential band-by-band and
  variant of blocked Davidson during initial phase
 perform sub-space diagonalisation
    before iterative eigenvector-optimisation
 modified Broyden-mixing scheme, WC =      100.0
 initial mixing is a Kerker type mixing with AMIX =  0.4000 and BMIX =      1.0000
 Hartree-type preconditioning will be used
 using additional bands           50
 real space projection scheme for non local part
 use partial core corrections
 calculate Harris-corrections to forces 
   (improved forces if not selfconsistent)
 use gradient corrections 
 use of overlap-Matrix (Vanderbilt PP)
 Gauss-broadening in eV      SIGMA  =   0.05


--------------------------------------------------------------------------------------------------------


  energy-cutoff  :      550.00
  volume of cell :     3070.74
      direct lattice vectors                 reciprocal lattice vectors
     5.024366704 -8.702497373  0.000000000     0.099515029 -0.057454772  0.000000000
     5.024366704  8.702497373  0.000000000     0.099515029  0.057454772  0.000000000
     0.000000000  0.000000000 35.114664386     0.000000000  0.000000000  0.028478131

  length of vectors
    10.048767154 10.048767154 35.114664386     0.114909929  0.114909929  0.028478131


 
 old parameters found on file WAVECAR:
  energy-cutoff  :      550.00
  volume of cell :     3070.74
      direct lattice vectors                 reciprocal lattice vectors
     5.024366704 -8.702497373  0.000000000     0.099515029 -0.057454772  0.000000000
     5.024366704  8.702497373  0.000000000     0.099515029  0.057454772  0.000000000
     0.000000000  0.000000000 35.114664386     0.000000000  0.000000000  0.028478131

  length of vectors

 
 k-points in units of 2pi/SCALE and weight: K-Point Grid                            
   0.02487876  0.00000000  0.00000000       0.042
   0.01243938 -0.02154554  0.00000000       0.042
  -0.01243938 -0.02154554  0.00000000       0.042
   0.04975751 -0.01436369  0.00000000       0.042
   0.01243938 -0.05027293  0.00000000       0.042
   0.06219689  0.02154554  0.00000000       0.042
  -0.04975751 -0.01436369  0.00000000       0.042
   0.08707565  0.00718185  0.00000000       0.042
   0.03731814 -0.03590923  0.00000000       0.042
  -0.02487876  0.02872739  0.00000000       0.042
   0.01243938  0.03590923  0.00000000       0.042
   0.03731814  0.00718185  0.00000000       0.042
   0.02487876  0.02872739  0.00000000       0.042
  -0.01243938  0.03590923  0.00000000       0.042
  -0.03731814  0.00718185  0.00000000       0.042
   0.00000000  0.01436369  0.00000000       0.042
   0.01243938  0.00718185  0.00000000       0.042
   0.01243938 -0.00718185  0.00000000       0.042
   0.07463627  0.00000000  0.00000000       0.042
  -0.06219689 -0.00718185  0.00000000       0.042
   0.06219689 -0.00718185  0.00000000       0.042
   0.00000000  0.04309108  0.00000000       0.042
   0.03731814  0.02154554  0.00000000       0.042
   0.03731814 -0.02154554  0.00000000       0.042
 
 k-points in reciprocal lattice and weights: K-Point Grid                            
   0.12500000  0.12500000  0.00000000       0.042
   0.25000000 -0.12500000  0.00000000       0.042
   0.12500000 -0.25000000  0.00000000       0.042
   0.37500000  0.12500000  0.00000000       0.042
   0.50000000 -0.37500000  0.00000000       0.042
   0.12500000  0.50000000  0.00000000       0.042
  -0.12500000 -0.37500000  0.00000000       0.042
   0.37500000  0.50000000  0.00000000       0.042
   0.50000000 -0.12500000  0.00000000       0.042
  -0.37500000  0.12500000  0.00000000       0.042
  -0.25000000  0.37500000  0.00000000       0.042
   0.12500000  0.25000000  0.00000000       0.042
  -0.12500000  0.37500000  0.00000000       0.042
  -0.37500000  0.25000000  0.00000000       0.042
  -0.25000000 -0.12500000  0.00000000       0.042
  -0.12500000  0.12500000  0.00000000       0.042
   0.00000000  0.12500000  0.00000000       0.042
   0.12500000  0.00000000  0.00000000       0.042
   0.37500000  0.37500000  0.00000000       0.042
  -0.25000000 -0.37500000  0.00000000       0.042
   0.37500000  0.25000000  0.00000000       0.042
  -0.37500000  0.37500000  0.00000000       0.042
   0.00000000  0.37500000  0.00000000       0.042
   0.37500000  0.00000000  0.00000000       0.042
 
 position of ions in fractional coordinates (direct lattice) 
   0.16667442  0.08336866  0.50000445
   0.16665114  0.33336524  0.50003606
   0.16666915  0.58340158  0.50002940
   0.16670175  0.83340251  0.49999731
   0.41671044  0.08338018  0.50001489
   0.41666585  0.33332457  0.50004187
   0.41664135  0.58336290  0.50004696
   0.41669317  0.83339573  0.50003641
   0.66670888  0.08339684  0.50003916
   0.66670929  0.33336811  0.50005962
   0.66671882  0.58338361  0.50006555
   0.66670985  0.83340962  0.50006933
   0.91669246  0.08338749  0.50002122
   0.91670196  0.33338953  0.50003276
   0.91670662  0.58338546  0.50004227
   0.91670732  0.83338755  0.50003925
   0.08335889  0.16673715  0.50000967
   0.08337584  0.41674047  0.50002940
   0.08335578  0.66673206  0.50001160
   0.08335130  0.91672488  0.49999352
   0.33336313  0.16671980  0.50001154
   0.33335994  0.41671324  0.50008141
   0.33337022  0.66671690  0.50004687
   0.33338291  0.91672272  0.49999908
   0.58338013  0.16673498  0.50004329
   0.58334043  0.41672483  0.50011113
   0.58332523  0.66668874  0.50014702
   0.58337087  0.91671399  0.50006201
   0.83336890  0.16672200  0.50002095
   0.83335975  0.41672059  0.50005718
   0.83332622  0.66670272  0.50006626
   0.83334533  0.91670952  0.50004547
   0.56036161  0.47060134  0.67282732
   0.53253252  0.46733677  0.62960137
   0.51351858  0.63453518  0.61718881
   0.69318126  0.59444714  0.68231508
   0.56624243  0.34449929  0.68263906
   0.44553575  0.47104073  0.69189940
   0.65016010  0.47707134  0.61009439
   0.40353155  0.34124421  0.61996064
   0.64302284  0.73992773  0.61327780
   0.37776341  0.59045307  0.61667943
 
 position of ions in cartesian coordinates  (Angst):
   1.25630811 -0.72496815 17.55748843
   2.51226566  1.45082899 17.55859845
   3.76863042  3.62661291 17.55836457
   5.02489056  5.80196164 17.55723771
   2.51263863 -2.90080568 17.55785493
   3.76822689 -0.72527725 17.55880251
   5.02438807  1.45089380 17.55898128
   6.28090506  3.62635297 17.55861084
   3.76880623 -5.07627152 17.55870716
   5.02475558 -2.90090079 17.55942555
   6.28097305 -0.72522445 17.55963389
   7.53715032  1.45070434 17.55976684
   5.02476844 -7.25183431 17.55807722
   6.28091801 -5.07627490 17.55848259
   7.53701273 -2.90072654 17.55881658
   8.79311843 -0.72509006 17.55871032
   1.25657419  0.72559909 17.55767183
   2.51276773  2.90110476 17.55836470
   3.76871638  5.07683060 17.55773959
   5.02474944  7.25243144 17.55710466
   2.51260003 -1.45021318 17.55773740
   3.76864273  0.72538186 17.56019078
   5.02480443  2.90094857 17.55897815
   6.28098913  5.07651320 17.55729986
   3.76885339 -3.62585332 17.55885214
   5.02469458 -1.44997181 17.56123463
   6.28052856  0.72547078 17.56249485
   7.53697642  2.90091761 17.55950957
   5.02482345 -5.80149286 17.55806795
   6.28086203 -3.62580116 17.55934005
   7.53669549 -1.45004054 17.55965879
   8.79291734  0.72547665 17.55892900
   5.17993592 -0.78113844 23.62610545
   5.02371000 -0.56736582 22.10824094
   5.76824306  1.05314660 21.67237780
   6.46951725 -0.85923345 23.95926500
   4.57590040 -1.92971906 23.97064150
   4.60521636  0.22195700 24.29581511
   5.66362413 -1.50630444 21.42325961
   3.74202649 -0.54205539 21.76970972
   6.94845081  0.84331461 21.53504429
   4.86467464  1.85093127 21.65449126
 


--------------------------------------------------------------------------------------------------------


 k-point  1 :   0.1250 0.1250 0.0000  plane waves:   89921
 k-point  2 :   0.2500-0.1250 0.0000  plane waves:   89921
 k-point  3 :   0.1250-0.2500 0.0000  plane waves:   89921
 k-point  4 :   0.3750 0.1250 0.0000  plane waves:   89970
 k-point  5 :   0.5000-0.3750 0.0000  plane waves:   89970
 k-point  6 :   0.1250 0.5000 0.0000  plane waves:   89970
 k-point  7 :  -0.1250-0.3750 0.0000  plane waves:   89970
 k-point  8 :   0.3750 0.5000 0.0000  plane waves:   89970
 k-point  9 :   0.5000-0.1250 0.0000  plane waves:   89970
 k-point 10 :  -0.3750 0.1250 0.0000  plane waves:   89943
 k-point 11 :  -0.2500 0.3750 0.0000  plane waves:   89943
 k-point 12 :   0.1250 0.2500 0.0000  plane waves:   89943
 k-point 13 :  -0.1250 0.3750 0.0000  plane waves:   89943
 k-point 14 :  -0.3750 0.2500 0.0000  plane waves:   89943
 k-point 15 :  -0.2500-0.1250 0.0000  plane waves:   89943
 k-point 16 :  -0.1250 0.1250 0.0000  plane waves:   89893
 k-point 17 :   0.0000 0.1250 0.0000  plane waves:   89893
 k-point 18 :   0.1250 0.0000 0.0000  plane waves:   89893
 k-point 19 :   0.3750 0.3750 0.0000  plane waves:   89957
 k-point 20 :  -0.2500-0.3750 0.0000  plane waves:   89957
 k-point 21 :   0.3750 0.2500 0.0000  plane waves:   89957
 k-point 22 :  -0.3750 0.3750 0.0000  plane waves:   89980
 k-point 23 :   0.0000 0.3750 0.0000  plane waves:   89980
 k-point 24 :   0.3750 0.0000 0.0000  plane waves:   89980

 maximum and minimum number of plane-waves per node :     89980    89893

 maximum number of plane-waves:     89980
 maximum index in each direction: 
   IXMAX=   19   IYMAX=   19   IZMAX=   67
   IXMIN=  -19   IYMIN=  -19   IZMIN=  -67


 serial   3D FFT for wavefunctions
 parallel 3D FFT for charge:
    minimum data exchange during FFTs selected (reduces bandwidth)


 total amount of memory used by VASP MPI-rank0  1062325. kBytes
=======================================================================

   base      :      30000. kBytes
   nonlr-proj:      18707. kBytes
   fftplans  :      36020. kBytes
   grid      :     353049. kBytes
   one-center:        258. kBytes
   wavefun   :     624291. kBytes
 
     INWAV:  cpu time   22.3452: real time   22.5018
 Broyden mixing: mesh for mixing (old mesh)
   NGX = 39   NGY = 39   NGZ =135
  (NGX  =160   NGY  =160   NGZ  =540)
  gives a total of 205335 points

 charge density for first step will be calculated from the start-wavefunctions


--------------------------------------------------------------------------------------------------------


 Maximum index for non-local projection operator         6375
 Maximum index for augmentation-charges          581 (set IRDMAX)


--------------------------------------------------------------------------------------------------------


 initial charge from wavefunction
 First call to EWALD:  gamma=   0.122
 Maximum number of real-space cells 4x 4x 1
 Maximum number of reciprocal cells 2x 2x 6

    FEWALD:  cpu time    0.0103: real time    0.0082
[...]
    3       -0.000  -0.000   0.000  -0.000
    4       -0.000  -0.000   0.000  -0.000
    5       -0.000  -0.000   0.000  -0.000
    6       -0.000  -0.000   0.000  -0.000
    7       -0.000  -0.000   0.000  -0.000
    8       -0.000  -0.000   0.000  -0.000
    9       -0.000  -0.000   0.000  -0.000
   10       -0.000  -0.000   0.000  -0.000
   11       -0.000  -0.000   0.000  -0.000
   12       -0.000   0.000   0.000   0.000
   13       -0.000  -0.000   0.000  -0.000
   14       -0.000  -0.000   0.000  -0.000
   15       -0.000  -0.000   0.000  -0.000
   16       -0.000  -0.000   0.000  -0.000
   17        0.000   0.000   0.000   0.000
   18        0.000   0.000   0.000   0.000
   19        0.000   0.000   0.000   0.000
   20        0.000   0.000   0.000   0.000
   21        0.000   0.000   0.000   0.000
   22        0.000   0.000   0.000   0.000
   23        0.000   0.000   0.000   0.000
   24        0.000   0.000   0.000   0.000
   25        0.000   0.000   0.000   0.000
   26        0.000   0.000   0.000   0.000
   27        0.000   0.000   0.000   0.000
   28        0.000   0.000   0.000   0.000
   29        0.000   0.000   0.000   0.000
   30        0.000   0.000   0.000   0.000
   31        0.000   0.000   0.000   0.000
   32        0.000   0.000   0.000   0.000
   33        0.005   0.014   0.000   0.019
   34        0.034   0.185   0.000   0.219
   35       -0.014  -0.025   0.000  -0.039
   36       -0.000  -0.000   0.000  -0.000
   37        0.000   0.018   0.000   0.019
   38       -0.000  -0.001   0.000  -0.001
   39        0.001   0.048   0.000   0.049
   40        0.001   0.045   0.000   0.046
   41        0.003   0.175   0.000   0.177
   42        0.002   0.167   0.000   0.169
--------------------------------------------------
tot          0.033   0.627   0.000   0.659
 
    CHARGE:  cpu time    3.7891: real time    3.4956
    FORLOC:  cpu time    0.3371: real time    0.2166
    FORNL :  cpu time   27.4718: real time   13.8468
    STRESS:  cpu time  640.0778: real time  590.7509
    FORCOR:  cpu time    2.3337: real time    2.3388
    FORHAR:  cpu time    0.2986: real time    0.2993
    MIXING:  cpu time    0.0477: real time    0.0478
    OFIELD:  cpu time    0.0003: real time    0.0016

  FORCE on cell =-STRESS in cart. coord.  units (eV):
  Direction    XX          YY          ZZ          XY          YZ          ZX
  --------------------------------------------------------------------------------------
  Alpha Z    57.55240    57.55240    57.55240
  Ewald   65440.03787 65397.73838-68636.72189   -82.64407  -291.16291  -137.11356
  Hartree 66114.64182 66298.36482-61845.95974    56.91540  -304.19169   -97.02191
  E(xc)    -833.20498  -832.93454  -838.40933     0.13756    -0.25420     0.00499
  Local  ************************128013.91036    -5.22202   610.05711   228.54835
  n-local  -490.09251  -486.93785  -481.85011     1.97782     0.04152     0.38171
  augment   118.84204   122.48216   129.62341     2.03786    -1.79415     0.45963
  Kinetic  3265.09536  3311.28684  3602.34928    27.47302   -12.47201     5.10146
  Fock        0.00000     0.00000     0.00000     0.00000     0.00000     0.00000
  -------------------------------------------------------------------------------------
  Total     -13.70469   -12.74018     0.49438     0.67557     0.22369     0.36066
  in kB      -7.15049    -6.64725     0.25794     0.35248     0.11671     0.18818
  external pressure =       -4.51 kB  Pullay stress =        0.00 kB


 VOLUME and BASIS-vectors are now :
 -----------------------------------------------------------------------------
  energy-cutoff  :      550.00
  volume of cell :     3070.74
      direct lattice vectors                 reciprocal lattice vectors
     5.024366704 -8.702497373  0.000000000     0.099515029 -0.057454772  0.000000000
     5.024366704  8.702497373  0.000000000     0.099515029  0.057454772  0.000000000
     0.000000000  0.000000000 35.114664386     0.000000000  0.000000000  0.028478131

  length of vectors
    10.048767154 10.048767154 35.114664386     0.114909929  0.114909929  0.028478131


 FORCES acting on ions
    electron-ion (+dipol)            ewald-force                    non-local-force                 convergence-correction
 -----------------------------------------------------------------------------------------------
   0.811E+01 0.148E+01 0.123E+03   -.816E+01 -.144E+01 -.123E+03   0.693E-02 0.117E-02 -.106E-02   0.118E-03 0.429E-04 0.172E-02
   0.126E+02 -.636E+01 0.130E+03   -.126E+02 0.642E+01 -.129E+03   0.122E-01 -.466E-02 0.171E-02   0.251E-03 -.867E-04 0.185E-02
   0.364E+01 -.840E+01 0.125E+03   -.361E+01 0.835E+01 -.124E+03   0.493E-02 -.783E-02 0.913E-03   0.108E-03 -.183E-03 0.180E-02
   -.820E+00 -.401E+00 0.118E+03   0.785E+00 0.379E+00 -.118E+03   0.152E-04 -.920E-03 -.193E-02   -.152E-04 -.392E-04 0.168E-02
   0.764E+01 0.553E+01 0.125E+03   -.768E+01 -.557E+01 -.125E+03   0.185E-02 0.461E-02 -.447E-03   0.954E-04 0.539E-04 0.174E-02
   0.133E+02 0.442E+01 0.148E+03   -.133E+02 -.436E+01 -.147E+03   0.127E-01 0.924E-02 0.400E-03   0.242E-03 0.144E-03 0.204E-02
   0.363E+01 -.121E+02 0.150E+03   -.362E+01 0.122E+02 -.150E+03   0.715E-02 -.103E-01 -.154E-03   0.980E-04 -.178E-03 0.219E-02
   -.180E+01 -.110E+02 0.127E+03   0.177E+01 0.109E+02 -.127E+03   -.204E-02 -.755E-02 0.134E-02   -.444E-04 -.246E-03 0.186E-02
   -.300E+01 0.751E+00 0.121E+03   0.298E+01 -.841E+00 -.121E+03   -.451E-02 -.603E-05 0.517E-03   -.999E-04 -.436E-04 0.174E-02
   0.127E+01 0.150E+02 0.136E+03   -.124E+01 -.150E+02 -.136E+03   0.708E-03 0.136E-01 0.265E-02   0.176E-04 0.245E-03 0.184E-02
   -.930E+01 0.599E+01 0.153E+03   0.940E+01 -.593E+01 -.153E+03   -.101E-01 0.112E-01 0.182E-02   -.137E-03 0.197E-03 0.215E-02
   -.133E+02 -.781E+01 0.138E+03   0.133E+02 0.779E+01 -.137E+03   -.143E-01 -.601E-02 0.363E-02   -.262E-03 -.120E-03 0.203E-02
   -.299E+01 -.214E+01 0.120E+03   0.294E+01 0.213E+01 -.119E+03   -.175E-02 -.221E-02 0.213E-04   -.864E-04 -.367E-04 0.172E-02
   0.115E+01 0.326E+01 0.120E+03   -.112E+01 -.331E+01 -.119E+03   0.200E-03 0.164E-02 0.592E-03   0.365E-04 0.142E-04 0.168E-02
   -.813E+01 0.862E+01 0.127E+03   0.816E+01 -.861E+01 -.127E+03   -.343E-02 0.678E-02 0.131E-02   -.976E-04 0.148E-03 0.177E-02
   -.121E+02 0.305E+01 0.127E+03   0.121E+02 -.298E+01 -.126E+03   -.744E-02 0.244E-02 0.131E-02   -.224E-03 0.899E-04 0.181E-02
   0.126E+02 -.375E+01 0.205E+03   -.126E+02 0.380E+01 -.204E+03   0.202E-02 0.391E-03 0.103E-01   0.209E-03 -.319E-04 0.293E-02
   0.114E+02 -.860E+01 0.206E+03   -.114E+02 0.858E+01 -.205E+03   -.795E-02 -.353E-02 0.108E-02   0.274E-03 -.192E-03 0.298E-02
   -.471E+01 -.759E+00 0.201E+03   0.474E+01 0.710E+00 -.200E+03   -.760E-02 -.821E-02 0.804E-02   -.258E-04 -.674E-04 0.288E-02
   -.336E+01 0.395E+01 0.200E+03   0.327E+01 -.390E+01 -.199E+03   -.429E-03 0.113E-02 0.204E-01   -.934E-04 0.829E-04 0.284E-02
   0.223E+02 0.929E+01 0.220E+03   -.224E+02 -.926E+01 -.219E+03   0.204E-01 0.844E-02 0.162E-01   0.364E-03 0.191E-03 0.307E-02
   0.224E+02 -.105E+02 0.243E+03   -.224E+02 0.107E+02 -.242E+03   0.215E-01 -.993E-03 -.159E-01   0.472E-03 -.952E-04 0.356E-02
   0.385E+01 -.246E+02 0.224E+03   -.387E+01 0.246E+02 -.223E+03   0.893E-03 -.191E-01 -.410E-02   0.120E-03 -.482E-03 0.336E-02
   0.410E+01 -.452E+01 0.201E+03   -.418E+01 0.443E+01 -.200E+03   0.191E-02 -.118E-02 0.171E-01   0.375E-04 -.184E-03 0.290E-02
   0.593E+01 0.150E+02 0.210E+03   -.596E+01 -.151E+02 -.210E+03   0.189E-02 0.525E-02 -.661E-02   0.383E-04 0.175E-03 0.296E-02
   0.452E+01 0.191E+02 0.251E+03   -.444E+01 -.191E+02 -.251E+03   0.292E-02 0.111E-01 -.339E-01   0.107E-03 0.461E-03 0.353E-02
   -.141E+02 -.105E+02 0.253E+03   0.143E+02 0.106E+02 -.252E+03   -.148E-01 -.844E-02 -.544E-01   -.246E-03 -.864E-04 0.381E-02
   -.121E+02 -.144E+02 0.213E+03   0.121E+02 0.143E+02 -.212E+03   -.464E-02 -.793E-02 -.137E-01   -.284E-03 -.324E-03 0.320E-02
   -.323E+01 0.125E+01 0.198E+03   0.320E+01 -.135E+01 -.197E+03   -.337E-02 0.227E-02 0.772E-02   -.109E-03 -.418E-04 0.285E-02
   -.532E+01 0.191E+02 0.212E+03   0.540E+01 -.192E+02 -.211E+03   -.568E-02 0.540E-02 -.150E-01   -.502E-04 0.292E-03 0.295E-02
   -.234E+02 0.137E+02 0.227E+03   0.235E+02 -.136E+02 -.227E+03   -.156E-01 0.650E-02 -.183E-01   -.376E-03 0.334E-03 0.326E-02
   -.208E+02 -.358E+01 0.213E+03   0.208E+02 0.359E+01 -.212E+03   -.106E-01 0.326E-02 -.647E-02   -.436E-03 -.218E-04 0.314E-02
   0.239E+01 0.199E+02 -.432E+03   -.314E+01 -.186E+02 0.424E+03   0.883E+00 -.101E+01 0.822E+01   -.960E-04 0.116E-02 -.310E-02
   -.138E+02 -.459E+02 -.313E+03   0.193E+02 0.546E+02 0.321E+03   -.529E+01 -.815E+01 -.676E+01   0.161E-02 0.347E-02 0.107E-02
   -.370E+02 -.984E+02 -.290E+03   0.366E+02 0.979E+02 0.292E+03   0.576E+00 0.116E+01 -.110E+00   -.118E-02 -.281E-02 0.302E-02
   -.510E+03 0.777E+02 -.948E+03   0.569E+03 -.812E+02 0.964E+03   -.577E+02 0.373E+01 -.157E+02   -.241E-02 0.165E-02 -.287E-02
   0.232E+03 0.481E+03 -.928E+03   -.258E+03 -.532E+03 0.945E+03   0.260E+02 0.498E+02 -.158E+02   0.104E-02 0.283E-02 -.215E-02
   0.230E+03 -.353E+03 -.108E+04   -.256E+03 0.398E+03 0.112E+04   0.255E+02 -.442E+02 -.307E+02   0.143E-02 -.553E-03 -.405E-02
   -.206E+03 0.389E+03 -.268E+03   0.237E+03 -.431E+03 0.238E+03   -.293E+02 0.420E+02 0.319E+02   -.233E-02 0.825E-02 0.780E-02
   0.521E+03 0.238E+02 -.406E+03   -.580E+03 -.206E+02 0.392E+03   0.582E+02 -.187E+01 0.162E+02   0.865E-02 0.275E-02 0.538E-02
   -.420E+03 -.106E+03 -.406E+03   0.479E+03 0.960E+02 0.401E+03   -.573E+02 0.103E+02 0.671E+01   -.481E-02 -.153E-02 0.487E-02
   0.199E+03 -.396E+03 -.450E+03   -.245E+03 0.436E+03 0.451E+03   0.441E+02 -.387E+02 0.884E+00   0.190E-02 -.485E-02 0.434E-02
 -----------------------------------------------------------------------------------------------
   -.585E+01 -.131E+02 0.523E+01   -.171E-12 0.000E+00 0.171E-12   0.579E+01 0.130E+02 -.530E+01   0.381E-02 0.104E-01 0.941E-01
 
 
 POSITION                                       TOTAL-FORCE (eV/Angst)
 -----------------------------------------------------------------------------------
      1.25631     -0.72497     17.55749         0.005865      0.006525     -0.000918
      2.51227      1.45083     17.55860         0.007885      0.001417      0.002287
      3.76863      3.62661     17.55836         0.001875     -0.008516      0.002068
      5.02489      5.80196     17.55724        -0.000116     -0.000120      0.001090
      2.51264     -2.90081     17.55785         0.000704      0.003011      0.001039
      3.76823     -0.72528     17.55880         0.008207      0.010744     -0.000401
      5.02439      1.45089     17.55898         0.004845     -0.000886      0.002466
      6.28091      3.62635     17.55861         0.002910     -0.005819      0.001207
      3.76881     -5.07627     17.55871         0.001129     -0.003124      0.001290
      5.02476     -2.90090     17.55943         0.003842      0.007170      0.005482
      6.28097     -0.72522     17.55963        -0.003689      0.007987      0.008121
      7.53715      1.45070     17.55977        -0.001617      0.001199      0.009375
      5.02477     -7.25183     17.55808         0.000075      0.002779      0.002016
      6.28092     -5.07627     17.55848        -0.001094     -0.000788      0.000663
      7.53701     -2.90073     17.55882        -0.003612      0.005264      0.002149
      8.79312     -0.72509     17.55871        -0.004456      0.009210      0.000570
      1.25657      0.72560     17.55767        -0.006363     -0.008188      0.000574
      2.51277      2.90110     17.55836        -0.005020      0.003589     -0.000427
      3.76872      5.07683     17.55774         0.002703      0.000924     -0.000091
      5.02475      7.25243     17.55710         0.001221     -0.006174      0.001803
      2.51260     -1.45021     17.55774        -0.007979     -0.005373      0.001476
      3.76864      0.72538     17.56019        -0.004316     -0.001978     -0.004199
      5.02480      2.90095     17.55898        -0.003775      0.010432     -0.001352
      6.28099      5.07651     17.55730        -0.003414      0.008637      0.000923
      3.76885     -3.62585     17.55885        -0.006071      0.000048     -0.001988
      5.02469     -1.44997     17.56123        -0.000935     -0.010507     -0.005836
      6.28053      0.72547     17.56249         0.004738     -0.002050     -0.007408
      7.53698      2.90092     17.55951        -0.000415      0.005846     -0.002535
      5.02482     -5.80149     17.55807         0.000518      0.003064      0.000333
      6.28086     -3.62580     17.55934         0.001677      0.000220     -0.002552
      7.53670     -1.45004     17.55966         0.011242     -0.008823     -0.003377
      8.79292      0.72548     17.55893         0.004200     -0.005401     -0.001427
      5.17994     -0.78114     23.62611         0.006296     -0.003084     -0.003358
      5.02371     -0.56737     22.10824        -0.016390     -0.003823     -0.006893
      5.76824      1.05315     21.67238        -0.024151      0.009387      0.021822
      6.46952     -0.85923     23.95926         0.018602      0.026111     -0.021390
      4.57590     -1.92972     23.97064        -0.008429     -0.021598      0.011856
      4.60522      0.22196     24.29582         0.003580      0.025212     -0.011768
      5.66362     -1.50630     21.42326        -0.009336     -0.014202      0.000574
      3.74203     -0.54206     21.76971        -0.012212     -0.022445     -0.008061
      6.94845      0.84331     21.53504         0.020217     -0.008169     -0.002836
      4.86467      1.85093     21.65449         0.011061     -0.007707      0.007634
 -----------------------------------------------------------------------------------
    total drift:                               -0.056798     -0.048265      0.020835


--------------------------------------------------------------------------------------------------------



  FREE ENERGIE OF THE ION-ELECTRON SYSTEM (eV)
  ---------------------------------------------------
  free  energy   TOTEN  =      -384.80263746 eV

  energy  without entropy=     -384.78787175  energy(sigma->0) =     -384.79525461
 


--------------------------------------------------------------------------------------------------------


    POTLOK:  cpu time   24.1855: real time   23.9440


--------------------------------------------------------------------------------------------------------


 stress matrix after NEB project (eV)
    -13.70469      0.67556      0.36066
      0.67557    -12.74018      0.22363
      0.35919      0.22369      0.49438
  FORCES: max atom, RMS     0.038541    0.014109
  FORCE total and by dimension    0.091439    0.026111
  Stress total and by dimension   18.752250   13.704688
 writing wavefunctions
     LOOP+:  cpu time 5742.9009: real time 3977.3427
    4ORBIT:  cpu time    0.0000: real time    0.0000
 


 total charge     
 
# of ion       s       p       d       tot
------------------------------------------
    1        0.744   1.392   0.000   2.136
    2        0.744   1.392   0.000   2.136
    3        0.744   1.392   0.000   2.136
    4        0.744   1.392   0.000   2.135
    5        0.744   1.392   0.000   2.136
    6        0.744   1.393   0.000   2.136
    7        0.744   1.393   0.000   2.137
    8        0.744   1.392   0.000   2.136
    9        0.744   1.392   0.000   2.136
   10        0.744   1.392   0.000   2.136
   11        0.744   1.393   0.000   2.137
   12        0.744   1.392   0.000   2.136
   13        0.744   1.392   0.000   2.136
   14        0.744   1.392   0.000   2.136
   15        0.744   1.392   0.000   2.136
   16        0.744   1.392   0.000   2.136
   17        1.239   2.818   0.000   4.057
   18        1.239   2.818   0.000   4.057
   19        1.239   2.818   0.000   4.057
   20        1.239   2.818   0.000   4.057
   21        1.239   2.818   0.000   4.057
   22        1.239   2.817   0.000   4.057
   23        1.239   2.817   0.000   4.057
   24        1.239   2.818   0.000   4.057
   25        1.239   2.818   0.000   4.057
   26        1.239   2.817   0.000   4.056
   27        1.239   2.817   0.000   4.056
   28        1.239   2.817   0.000   4.057
   29        1.239   2.818   0.000   4.057
   30        1.239   2.818   0.000   4.057
   31        1.239   2.818   0.000   4.057
   32        1.239   2.818   0.000   4.057
   33        0.814   1.565   0.000   2.378
   34        0.837   1.551   0.000   2.388
   35        0.902   1.729   0.000   2.632
   36        1.759   4.414   0.000   6.173
   37        1.759   4.407   0.000   6.166
   38        1.759   4.414   0.000   6.172
   39        1.759   4.401   0.000   6.160
   40        1.759   4.402   0.000   6.161
   41        1.605   3.553   0.000   5.158
   42        1.605   3.555   0.000   5.159
--------------------------------------------------
tot         46.283 101.347   0.000 147.630
 


 magnetization (x)
 
# of ion       s       p       d       tot
------------------------------------------
    1       -0.000  -0.000   0.000  -0.000
    2       -0.000  -0.000   0.000  -0.000
    3       -0.000  -0.000   0.000  -0.000
    4       -0.000  -0.000   0.000  -0.000
    5       -0.000  -0.000   0.000  -0.000
    6       -0.000  -0.000   0.000  -0.000
    7       -0.000  -0.000   0.000  -0.000
    8       -0.000  -0.000   0.000  -0.000
    9       -0.000  -0.000   0.000  -0.000
   10       -0.000  -0.000   0.000  -0.000
   11       -0.000  -0.000   0.000  -0.000
   12       -0.000   0.000   0.000   0.000
   13       -0.000  -0.000   0.000  -0.000
   14       -0.000  -0.000   0.000  -0.000
   15       -0.000  -0.000   0.000  -0.000
   16       -0.000  -0.000   0.000  -0.000
   17        0.000   0.000   0.000   0.000
   18        0.000   0.000   0.000   0.000
   19        0.000   0.000   0.000   0.000
   20        0.000   0.000   0.000   0.000
   21        0.000   0.000   0.000   0.000
   22        0.000   0.000   0.000   0.000
   23        0.000   0.000   0.000   0.000
   24        0.000   0.000   0.000   0.000
   25        0.000   0.000   0.000   0.000
   26        0.000   0.000   0.000   0.000
   27        0.000   0.000   0.000   0.000
   28        0.000   0.000   0.000   0.000
   29        0.000   0.000   0.000   0.000
   30        0.000   0.000   0.000   0.000
   31        0.000   0.000   0.000   0.000
   32        0.000   0.000   0.000   0.000
   33        0.005   0.014   0.000   0.019
   34        0.034   0.185   0.000   0.219
   35       -0.014  -0.025   0.000  -0.039
   36       -0.000  -0.000   0.000  -0.000
   37        0.000   0.018   0.000   0.019
   38       -0.000  -0.001   0.000  -0.001
   39        0.001   0.048   0.000   0.049
   40        0.001   0.045   0.000   0.046
   41        0.003   0.175   0.000   0.177
   42        0.002   0.167   0.000   0.169
--------------------------------------------------
tot          0.033   0.627   0.000   0.659
 

 total amount of memory used by VASP MPI-rank0  1062325. kBytes
=======================================================================

   base      :      30000. kBytes
   nonlr-proj:      18707. kBytes
   fftplans  :      36020. kBytes
   grid      :     353049. kBytes
   one-center:        258. kBytes
   wavefun   :     624291. kBytes
 
  
  
 General timing and accounting informations for this job:
 ========================================================
  
                  Total CPU time used (sec):     6431.310
                            User time (sec):     6023.119
                          System time (sec):      408.191
                         Elapsed time (sec):     4375.961
  
                   Maximum memory used (kb):     1938216.
                   Average memory used (kb):           0.
  
                          Minor page faults:      1012042
                          Major page faults:           21
                 Voluntary context switches:        58674
