 vasp.5.4.4.18Apr17-6-g9f103f2a35 (build Jun 11 2020 13:42:08) complex          
  
 executed on             LinuxIFC date 2021.02.03  13:03:54
 running on   48 total cores
 distrk:  each k-point on   16 cores,    3 groups
 distr:  one band on NCORES_PER_BAND=   1 cores,   16 groups


--------------------------------------------------------------------------------------------------------


 INCAR:
 POTCAR:    PAW_PBE B 06Sep2000                   
 POTCAR:    PAW_PBE N 08Apr2002                   
 POTCAR:    PAW_PBE C 08Apr2002                   
 POTCAR:    PAW_PBE F 08Apr2002                   
 POTCAR:    PAW_PBE O 08Apr2002                   

 ----------------------------------------------------------------------------- 
|                                                                             |
|           W    W    AA    RRRRR   N    N  II  N    N   GGGG   !!!           |
|           W    W   A  A   R    R  NN   N  II  NN   N  G    G  !!!           |
|           W    W  A    A  R    R  N N  N  II  N N  N  G       !!!           |
|           W WW W  AAAAAA  RRRRR   N  N N  II  N  N N  G  GGG   !            |
|           WW  WW  A    A  R   R   N   NN  II  N   NN  G    G                |
|           W    W  A    A  R    R  N    N  II  N    N   GGGG   !!!           |
|                                                                             |
|      For optimal performance we recommend to set                            |
|        NCORE= 4 - approx SQRT( number of cores)                             |
|      NCORE specifies how many cores store one orbital (NPAR=cpu/NCORE).     |
|      This setting can  greatly improve the performance of VASP for DFT.     |
|      The default,   NCORE=1            might be grossly inefficient         |
|      on modern multi-core architectures or massively parallel machines.     |
|      Do your own testing !!!!                                               |
|      Unfortunately you need to use the default for GW and RPA calculations. |
|      (for HF NCORE is supported but not extensively tested yet)             |
|                                                                             |
 ----------------------------------------------------------------------------- 


 ----------------------------------------------------------------------------- 
|                                                                             |
|           W    W    AA    RRRRR   N    N  II  N    N   GGGG   !!!           |
|           W    W   A  A   R    R  NN   N  II  NN   N  G    G  !!!           |
|           W    W  A    A  R    R  N N  N  II  N N  N  G       !!!           |
|           W WW W  AAAAAA  RRRRR   N  N N  II  N  N N  G  GGG   !            |
|           WW  WW  A    A  R   R   N   NN  II  N   NN  G    G                |
|           W    W  A    A  R    R  N    N  II  N    N   GGGG   !!!           |
|                                                                             |
|      You have enabled k-point parallelism (KPAR>1).                         |
|      This developmental code was originally  written by Paul Kent at ORNL,  |
|      and carefully double checked in Vienna.                                |
|      GW as well as linear response parallelism added by Martijn Marsman     |
|      and Georg Kresse.                                                      |
|      Carefully verify results versus KPAR=1.                                |
|      Report problems to Paul Kent and Vienna.                               |
|                                                                             |
 ----------------------------------------------------------------------------- 

 POTCAR:    PAW_PBE B 06Sep2000                   
   VRHFIN =B: s2p1                                                              
   LEXCH  = PE                                                                  
   EATOM  =    71.1703 eV,    5.2309 Ry                                         
                                                                                
   TITEL  = PAW_PBE B 06Sep2000                                                 
   LULTRA =        F    use ultrasoft PP ?                                      
   IUNSCR =        1    unscreen: 0-lin 1-nonlin 2-no                           
   RPACOR =    1.200    partial core radius                                     
   POMASS =   10.811; ZVAL   =    3.000    mass and valenz                      
   RCORE  =    1.700    outmost cutoff radius                                   
   RWIGS  =    1.710; RWIGS  =    0.905    wigner-seitz radius (au A)           
   ENMAX  =  318.614; ENMIN  =  238.960 eV                                      
   ICORE  =        2    local potential                                         
   LCOR   =        T    correct aug charges                                     
   LPAW   =        T    paw PP                                                  
   EAUG   =  535.514                                                            
   DEXC   =    0.000                                                            
   RMAX   =    1.732    core radius for proj-oper                               
   RAUG   =    1.300    factor for augmentation sphere                          
   RDEP   =    1.757    radius for radial grids                                 
   RDEPT  =    1.436    core radius for aug-charge                              
                                                                                
   Atomic configuration                                                         
    4 entries                                                                   
     n  l   j            E        occ.                                          
     1  0  0.50      -180.5896   2.0000                                         
     2  0  0.50        -9.4431   2.0000                                         
     2  1  0.50        -3.6068   1.0000                                         
     3  2  1.50        -4.0817   0.0000                                         
   Description                                                                  
     l       E           TYP  RCUT    TYP  RCUT                                 
     0     -9.4430752     23  1.500                                             
     0      0.8675899     23  1.500                                             
     1     -3.6067955     23  1.700                                             
     1      6.1086146     23  1.700                                             
     2     -4.0817478      7  1.700                                             
  local pseudopotential read in
  partial core-charges read in
  partial kinetic energy density read in
  atomic valenz-charges read in
  non local Contribution for L=           0  read in
    real space projection operators read in
  non local Contribution for L=           0  read in
    real space projection operators read in
  non local Contribution for L=           1  read in
    real space projection operators read in
  non local Contribution for L=           1  read in
    real space projection operators read in
    PAW grid and wavefunctions read in
 
   number of l-projection  operators is LMAX  =           4
   number of lm-projection operators is LMMAX =           8
 
 POTCAR:    PAW_PBE N 08Apr2002                   
   VRHFIN =N: s2p3                                                              
   LEXCH  = PE                                                                  
   EATOM  =   264.5486 eV,   19.4438 Ry                                         
                                                                                
   TITEL  = PAW_PBE N 08Apr2002                                                 
   LULTRA =        F    use ultrasoft PP ?                                      
   IUNSCR =        1    unscreen: 0-lin 1-nonlin 2-no                           
   RPACOR =    1.200    partial core radius                                     
   POMASS =   14.001; ZVAL   =    5.000    mass and valenz                      
   RCORE  =    1.500    outmost cutoff radius                                   
   RWIGS  =    1.400; RWIGS  =    0.741    wigner-seitz radius (au A)           
   ENMAX  =  400.000; ENMIN  =  300.000 eV                                      
   ICORE  =        2    local potential                                         
   LCOR   =        T    correct aug charges                                     
   LPAW   =        T    paw PP                                                  
   EAUG   =  627.112                                                            
   DEXC   =    0.000                                                            
   RMAX   =    1.529    core radius for proj-oper                               
   RAUG   =    1.300    factor for augmentation sphere                          
   RDEP   =    1.514    radius for radial grids                                 
   RDEPT  =    1.338    core radius for aug-charge                              
                                                                                
   Atomic configuration                                                         
    4 entries                                                                   
     n  l   j            E        occ.                                          
     1  0  0.50      -384.7179   2.0000                                         
     2  0  0.50       -18.5828   2.0000                                         
     2  1  0.50        -7.0898   3.0000                                         
     3  2  1.50        -6.8029   0.0000                                         
   Description                                                                  
     l       E           TYP  RCUT    TYP  RCUT                                 
     0    -18.5828119     23  1.200                                             
     0    -13.5018863     23  1.200                                             
     1     -7.0897853     23  1.500                                             
     1      9.5240782     23  1.500                                             
     2     -6.8029130      7  1.500                                             
  local pseudopotential read in
  partial core-charges read in
  partial kinetic energy density read in
  atomic valenz-charges read in
  non local Contribution for L=           0  read in
    real space projection operators read in
  non local Contribution for L=           0  read in
    real space projection operators read in
  non local Contribution for L=           1  read in
    real space projection operators read in
  non local Contribution for L=           1  read in
    real space projection operators read in
    PAW grid and wavefunctions read in
 
   number of l-projection  operators is LMAX  =           4
   number of lm-projection operators is LMMAX =           8
 
 POTCAR:    PAW_PBE C 08Apr2002                   
   VRHFIN =C: s2p2                                                              
   LEXCH  = PE                                                                  
   EATOM  =   147.1560 eV,   10.8157 Ry                                         
                                                                                
   TITEL  = PAW_PBE C 08Apr2002                                                 
   LULTRA =        F    use ultrasoft PP ?                                      
   IUNSCR =        1    unscreen: 0-lin 1-nonlin 2-no                           
   RPACOR =    1.200    partial core radius                                     
   POMASS =   12.011; ZVAL   =    4.000    mass and valenz                      
   RCORE  =    1.500    outmost cutoff radius                                   
   RWIGS  =    1.630; RWIGS  =    0.863    wigner-seitz radius (au A)           
   ENMAX  =  400.000; ENMIN  =  300.000 eV                                      
   ICORE  =        2    local potential                                         
   LCOR   =        T    correct aug charges                                     
   LPAW   =        T    paw PP                                                  
   EAUG   =  644.873                                                            
   DEXC   =    0.000                                                            
   RMAX   =    1.529    core radius for proj-oper                               
   RAUG   =    1.300    factor for augmentation sphere                          
   RDEP   =    1.501    radius for radial grids                                 
   RDEPT  =    1.300    core radius for aug-charge                              
                                                                                
   Atomic configuration                                                         
    4 entries                                                                   
     n  l   j            E        occ.                                          
     1  0  0.50      -273.3789   2.0000                                         
     2  0  0.50       -13.7508   2.0000                                         
     2  1  0.50        -5.2854   2.0000                                         
     3  2  1.50        -5.4423   0.0000                                         
   Description                                                                  
     l       E           TYP  RCUT    TYP  RCUT                                 
     0    -13.7508458     23  1.200                                             
     0     -8.2022199     23  1.200                                             
     1     -5.2854383     23  1.500                                             
     1     34.0145650     23  1.500                                             
     2     -5.4423304      7  1.500                                             
  local pseudopotential read in
  partial core-charges read in
  partial kinetic energy density read in
  atomic valenz-charges read in
  non local Contribution for L=           0  read in
    real space projection operators read in
  non local Contribution for L=           0  read in
    real space projection operators read in
  non local Contribution for L=           1  read in
    real space projection operators read in
  non local Contribution for L=           1  read in
    real space projection operators read in
    PAW grid and wavefunctions read in
 
   number of l-projection  operators is LMAX  =           4
   number of lm-projection operators is LMMAX =           8
 
 POTCAR:    PAW_PBE F 08Apr2002                   
   VRHFIN =F: s2p5                                                              
   LEXCH  = PE                                                                  
   EATOM  =   659.6475 eV,   48.4827 Ry                                         
                                                                                
   TITEL  = PAW_PBE F 08Apr2002                                                 
   LULTRA =        F    use ultrasoft PP ?                                      
   IUNSCR =        1    unscreen: 0-lin 1-nonlin 2-no                           
   RPACOR =    1.200    partial core radius                                     
   POMASS =   18.998; ZVAL   =    7.000    mass and valenz                      
   RCORE  =    1.520    outmost cutoff radius                                   
   RWIGS  =    1.500; RWIGS  =    0.794    wigner-seitz radius (au A)           
   ENMAX  =  400.000; ENMIN  =  300.000 eV                                      
   ICORE  =        2    local potential                                         
   LCOR   =        T    correct aug charges                                     
   LPAW   =        T    paw PP                                                  
   EAUG   =  613.614                                                            
   RMAX   =    1.555    core radius for proj-oper                               
   RAUG   =    1.300    factor for augmentation sphere                          
   RDEP   =    1.539    radius for radial grids                                 
   RDEPT  =    1.299    core radius for aug-charge                              
                                                                                
   Atomic configuration                                                         
    4 entries                                                                   
     n  l   j            E        occ.                                          
     1  0  0.50      -663.3661   2.0000                                         
     2  0  0.50       -29.8995   2.0000                                         
     2  1  0.50       -11.1114   5.0000                                         
     3  2  1.50       -10.8847   0.0000                                         
   Description                                                                  
     l       E           TYP  RCUT    TYP  RCUT                                 
     0    -29.8995018     23  1.200                                             
     0     -9.5240782     23  1.200                                             
     1    -11.1113914     23  1.520                                             
     1      1.3605826     23  1.520                                             
     2    -10.8846608      7  1.500                                             
  local pseudopotential read in
  partial core-charges read in
  partial kinetic energy density read in
  atomic valenz-charges read in
  non local Contribution for L=           0  read in
    real space projection operators read in
  non local Contribution for L=           0  read in
    real space projection operators read in
  non local Contribution for L=           1  read in
    real space projection operators read in
  non local Contribution for L=           1  read in
    real space projection operators read in
    PAW grid and wavefunctions read in
 
   number of l-projection  operators is LMAX  =           4
   number of lm-projection operators is LMMAX =           8
 
 POTCAR:    PAW_PBE O 08Apr2002                   
   VRHFIN =O: s2p4                                                              
   LEXCH  = PE                                                                  
   EATOM  =   432.3788 eV,   31.7789 Ry                                         
                                                                                
   TITEL  = PAW_PBE O 08Apr2002                                                 
   LULTRA =        F    use ultrasoft PP ?                                      
   IUNSCR =        1    unscreen: 0-lin 1-nonlin 2-no                           
   RPACOR =    1.200    partial core radius                                     
   POMASS =   16.000; ZVAL   =    6.000    mass and valenz                      
   RCORE  =    1.520    outmost cutoff radius                                   
   RWIGS  =    1.550; RWIGS  =    0.820    wigner-seitz radius (au A)           
   ENMAX  =  400.000; ENMIN  =  300.000 eV                                      
   ICORE  =        2    local potential                                         
   LCOR   =        T    correct aug charges                                     
   LPAW   =        T    paw PP                                                  
   EAUG   =  605.392                                                            
   DEXC   =    0.000                                                            
   RMAX   =    1.553    core radius for proj-oper                               
   RAUG   =    1.300    factor for augmentation sphere                          
   RDEP   =    1.550    radius for radial grids                                 
   RDEPT  =    1.329    core radius for aug-charge                              
                                                                                
   Atomic configuration                                                         
    4 entries                                                                   
     n  l   j            E        occ.                                          
     1  0  0.50      -514.6923   2.0000                                         
     2  0  0.50       -23.9615   2.0000                                         
     2  1  0.50        -9.0305   4.0000                                         
     3  2  1.50        -9.5241   0.0000                                         
   Description                                                                  
     l       E           TYP  RCUT    TYP  RCUT                                 
     0    -23.9615318     23  1.200                                             
     0     -9.5240782     23  1.200                                             
     1     -9.0304911     23  1.520                                             
     1      8.1634956     23  1.520                                             
     2     -9.5240782      7  1.500                                             
  local pseudopotential read in
  partial core-charges read in
  partial kinetic energy density read in
  kinetic energy density of atom read in
  atomic valenz-charges read in
  non local Contribution for L=           0  read in
    real space projection operators read in
  non local Contribution for L=           0  read in
    real space projection operators read in
  non local Contribution for L=           1  read in
    real space projection operators read in
  non local Contribution for L=           1  read in
    real space projection operators read in
    PAW grid and wavefunctions read in
 
   number of l-projection  operators is LMAX  =           4
   number of lm-projection operators is LMMAX =           8
 
 Optimization of the real space projectors (new method)

 maximal supplied QI-value         = 22.11
 optimisation between [QCUT,QGAM] = [ 11.94, 23.88] = [ 39.92,159.67] Ry 
 Optimized for a Real-space Cutoff    1.18 Angstroem

   l    n(q)    QCUT    max X(q) W(low)/X(q) W(high)/X(q)  e(spline) 
   0      8    11.939    53.033    0.11E-03    0.34E-03    0.60E-07
   0      8    11.939    34.740    0.11E-03    0.34E-03    0.59E-07
   1      8    11.939    30.949    0.22E-03    0.20E-03    0.17E-06
   1      8    11.939    19.518    0.20E-03    0.18E-03    0.16E-06
 Optimization of the real space projectors (new method)

 maximal supplied QI-value         = 25.13
 optimisation between [QCUT,QGAM] = [ 11.81, 23.88] = [ 39.08,159.64] Ry 
 Optimized for a Real-space Cutoff    1.41 Angstroem

   l    n(q)    QCUT    max X(q) W(low)/X(q) W(high)/X(q)  e(spline) 
   0     10    11.813    79.467    0.48E-04    0.30E-04    0.67E-06
   0     10    11.813    66.151    0.47E-04    0.30E-04    0.67E-06
   1     10    11.813    20.169    0.11E-03    0.17E-03    0.11E-05
   1     10    11.813    14.454    0.11E-03    0.17E-03    0.11E-05
 Optimization of the real space projectors (new method)

 maximal supplied QI-value         = 25.13
 optimisation between [QCUT,QGAM] = [ 11.81, 23.88] = [ 39.08,159.64] Ry 
 Optimized for a Real-space Cutoff    1.18 Angstroem

   l    n(q)    QCUT    max X(q) W(low)/X(q) W(high)/X(q)  e(spline) 
   0      8    11.813   115.676    0.10E-03    0.16E-03    0.35E-06
   0      8    11.813    87.132    0.10E-03    0.16E-03    0.35E-06
   1      8    11.813     4.429    0.16E-03    0.13E-04    0.22E-06
   1      8    11.813     2.733    0.13E-03    0.10E-04    0.18E-06
 Optimization of the real space projectors (new method)

 maximal supplied QI-value         = 24.76
 optimisation between [QCUT,QGAM] = [ 11.88, 24.01] = [ 39.54,161.47] Ry 
 Optimized for a Real-space Cutoff    1.18 Angstroem

   l    n(q)    QCUT    max X(q) W(low)/X(q) W(high)/X(q)  e(spline) 
   0      8    11.883    14.049    0.56E-04    0.86E-04    0.22E-06
   0      8    11.883     8.945    0.81E-04    0.11E-03    0.30E-06
   1      8    11.883     7.086    0.16E-03    0.15E-04    0.31E-06
   1      8    11.883     6.747    0.15E-03    0.14E-04    0.28E-06
 Optimization of the real space projectors (new method)

 maximal supplied QI-value         = 24.76
 optimisation between [QCUT,QGAM] = [ 11.88, 24.01] = [ 39.54,161.47] Ry 
 Optimized for a Real-space Cutoff    1.18 Angstroem

   l    n(q)    QCUT    max X(q) W(low)/X(q) W(high)/X(q)  e(spline) 
   0      8    11.883    20.381    0.86E-04    0.11E-03    0.31E-06
   0      8    11.883    15.268    0.94E-04    0.12E-03    0.33E-06
   1      8    11.883     5.964    0.19E-03    0.18E-04    0.33E-06
   1      8    11.883     5.382    0.17E-03    0.20E-04    0.29E-06
  PAW_PBE B 06Sep2000                   :
 energy of atom  1       EATOM=  -71.1703
 kinetic energy error for atom=    0.0009 (will be added to EATOM!!)
  PAW_PBE N 08Apr2002                   :
 energy of atom  2       EATOM= -264.5486
 kinetic energy error for atom=    0.0116 (will be added to EATOM!!)
  PAW_PBE C 08Apr2002                   :
 energy of atom  3       EATOM= -147.1560
 kinetic energy error for atom=    0.0066 (will be added to EATOM!!)
  PAW_PBE F 08Apr2002                   :
 energy of atom  4       EATOM= -659.6475
 kinetic energy error for atom=    0.0296 (will be added to EATOM!!)
  PAW_PBE O 08Apr2002                   :
 energy of atom  5       EATOM= -432.3788
 kinetic energy error for atom=    0.0194 (will be added to EATOM!!)
 
 
 POSCAR: B N C F O                               
  positions in direct lattice
  velocities in cartesian coordinates

 METAGGA = SCAN     LMAXTAU =  6    LMIXTAU =  F

 exchange correlation table for  LEXCH =        8
   RHO(1)=    0.500       N(1)  =     2000
   RHO(2)=  100.500       N(2)  =     4000

 VTST: version 3.1, (03/28/14)

 CHAIN: initializing optimizer
 
 OPT: Using VASP Conjugate-Gradient optimizer
 CHAIN: Read ICHAIN            0
 
 POSCAR: B N C F O                               
  positions in direct lattice
  velocities in cartesian coordinates
 


--------------------------------------------------------------------------------------------------------


 ion  position               nearest neighbor table
   1  0.167  0.083  0.500-  20 1.45  17 1.45  21 1.45
   2  0.167  0.333  0.500-  17 1.45  18 1.45  22 1.45
   3  0.167  0.583  0.500-  18 1.45  19 1.45  23 1.45
   4  0.167  0.833  0.500-  19 1.45  20 1.45  24 1.45
   5  0.417  0.083  0.500-  24 1.45  25 1.45  21 1.45
   6  0.417  0.333  0.500-  21 1.45  26 1.45  22 1.45
   7  0.417  0.583  0.500-  23 1.45  22 1.45  27 1.45
   8  0.417  0.833  0.500-  24 1.45  28 1.45  23 1.45
   9  0.667  0.083  0.500-  29 1.45  25 1.45  28 1.45
  10  0.667  0.333  0.500-  25 1.45  30 1.45  26 1.45
  11  0.667  0.583  0.500-  27 1.45  31 1.45  26 1.45
  12  0.667  0.833  0.500-  32 1.45  28 1.45  27 1.45
  13  0.917  0.083  0.500-  29 1.45  17 1.45  32 1.45
  14  0.917  0.333  0.500-  29 1.45  30 1.45  18 1.45
  15  0.917  0.583  0.500-  30 1.45  19 1.45  31 1.45
  16  0.917  0.833  0.500-  20 1.45  31 1.45  32 1.45
  17  0.083  0.167  0.500-   2 1.45  13 1.45   1 1.45
  18  0.083  0.417  0.500-   3 1.45   2 1.45  14 1.45
  19  0.083  0.667  0.500-   3 1.45  15 1.45   4 1.45
  20  0.083  0.917  0.500-  16 1.45   1 1.45   4 1.45
  21  0.333  0.167  0.500-   6 1.45   1 1.45   5 1.45
  22  0.333  0.417  0.500-   7 1.45   6 1.45   2 1.45
  23  0.333  0.667  0.500-   7 1.45   8 1.45   3 1.45
  24  0.333  0.917  0.500-   8 1.45   5 1.45   4 1.45
  25  0.583  0.167  0.500-  10 1.45   5 1.45   9 1.45
  26  0.583  0.417  0.500-   6 1.45  11 1.45  10 1.45
  27  0.583  0.667  0.500-  11 1.45   7 1.45  12 1.45
  28  0.583  0.917  0.500-  12 1.45   8 1.45   9 1.45
  29  0.833  0.167  0.500-  14 1.45   9 1.45  13 1.45
  30  0.833  0.417  0.500-  15 1.45  10 1.45  14 1.45
  31  0.833  0.667  0.500-  11 1.45  16 1.45  15 1.45
  32  0.833  0.917  0.500-  12 1.45  13 1.45  16 1.45
  33  0.560  0.472  0.673-  36 1.33  38 1.34  37 1.34  34 1.55
  34  0.532  0.470  0.629-  40 1.33  39 1.33  33 1.55  35 1.75
  35  0.514  0.630  0.618-  42 1.21  41 1.21  34 1.75
  36  0.693  0.595  0.682-  33 1.33
  37  0.566  0.345  0.682-  33 1.34
  38  0.445  0.472  0.692-  33 1.34
  39  0.650  0.478  0.610-  34 1.33
  40  0.404  0.342  0.620-  34 1.33
  41  0.643  0.738  0.613-  35 1.21
  42  0.379  0.590  0.617-  35 1.21
 

IMPORTANT INFORMATION: All symmetrisations will be switched off!
NOSYMM: (Re-)initialisation of all symmetry stuff for point group C_1.

 
 
 KPOINTS: K-Point Grid                            

Automatic generation of k-mesh.
Space group operators:
 irot       det(A)        alpha          n_x          n_y          n_z        tau_x        tau_y        tau_z
    1     1.000000     0.000000     1.000000     0.000000     0.000000     0.000000     0.000000     0.000000
 
 Subroutine IBZKPT returns following result:
 ===========================================
 
 Found     24 irreducible k-points:
 
 Following reciprocal coordinates:
            Coordinates               Weight
  0.125000  0.125000  0.000000     16.000000
  0.250000 -0.125000  0.000000     16.000000
  0.125000 -0.250000  0.000000     16.000000
  0.375000  0.125000  0.000000     16.000000
  0.500000 -0.375000  0.000000     16.000000
  0.125000  0.500000  0.000000     16.000000
 -0.125000 -0.375000  0.000000     16.000000
  0.375000  0.500000  0.000000     16.000000
  0.500000 -0.125000  0.000000     16.000000
 -0.375000  0.125000  0.000000     16.000000
 -0.250000  0.375000  0.000000     16.000000
  0.125000  0.250000  0.000000     16.000000
 -0.125000  0.375000  0.000000     16.000000
 -0.375000  0.250000  0.000000     16.000000
 -0.250000 -0.125000  0.000000     16.000000
 -0.125000  0.125000  0.000000     16.000000
  0.000000  0.125000  0.000000     16.000000
  0.125000  0.000000  0.000000     16.000000
  0.375000  0.375000  0.000000     16.000000
 -0.250000 -0.375000  0.000000     16.000000
  0.375000  0.250000  0.000000     16.000000
 -0.375000  0.375000  0.000000     16.000000
  0.000000  0.375000  0.000000     16.000000
  0.375000  0.000000  0.000000     16.000000
 
 Following cartesian coordinates:
            Coordinates               Weight
  0.024879  0.000000  0.000000     16.000000
  0.012439 -0.021546  0.000000     16.000000
 -0.012439 -0.021546  0.000000     16.000000
  0.049758 -0.014364  0.000000     16.000000
  0.012439 -0.050273  0.000000     16.000000
  0.062197  0.021546  0.000000     16.000000
 -0.049758 -0.014364  0.000000     16.000000
  0.087076  0.007182  0.000000     16.000000
  0.037318 -0.035909  0.000000     16.000000
 -0.024879  0.028727  0.000000     16.000000
  0.012439  0.035909  0.000000     16.000000
  0.037318  0.007182  0.000000     16.000000
  0.024879  0.028727  0.000000     16.000000
 -0.012439  0.035909  0.000000     16.000000
 -0.037318  0.007182  0.000000     16.000000
  0.000000  0.014364  0.000000     16.000000
  0.012439  0.007182  0.000000     16.000000
  0.012439 -0.007182  0.000000     16.000000
  0.074636  0.000000  0.000000     16.000000
 -0.062197 -0.007182  0.000000     16.000000
  0.062197 -0.007182  0.000000     16.000000
  0.000000  0.043091  0.000000     16.000000
  0.037318  0.021546  0.000000     16.000000
  0.037318 -0.021546  0.000000     16.000000
 


--------------------------------------------------------------------------------------------------------




 Dimension of arrays:
   k-points           NKPTS =     24   k-points in BZ     NKDIM =     24   number of bands    NBANDS=    144
   number of dos      NEDOS =   1200   number of ions     NIONS =     42
   non local maximal  LDIM  =      4   non local SUM 2l+1 LMDIM =      8
   total plane-waves  NPLWV = ******
   max r-space proj   IRMAX =   6598   max aug-charges    IRDMAX=   8974
   dimension x,y,z NGX =    80 NGY =   80 NGZ =  270
   dimension x,y,z NGXF=   160 NGYF=  160 NGZF=  540
   support grid    NGXF=   160 NGYF=  160 NGZF=  540
   ions per type =              16  16   3   5   2
   NGX,Y,Z   is equivalent  to a cutoff of  13.24, 13.24, 12.78 a.u.
   NGXF,Y,Z  is equivalent  to a cutoff of  26.47, 26.47, 25.57 a.u.

 SYSTEM =  hBN                                     
 POSCAR =  B N C F O                               

 Startparameter for this run:
   NWRITE =      2    write-flag & timer
   PREC   = accura    normal or accurate (medium, high low for compatibility)
   ISTART =      1    job   : 0-new  1-cont  2-samecut
   ICHARG =      0    charge: 1-file 2-atom 10-const
   ISPIN  =      2    spin polarized calculation?
   LNONCOLLINEAR =      F non collinear calculations
   LSORBIT =      F    spin-orbit coupling
   INIWAV =      1    electr: 0-lowe 1-rand  2-diag
   LASPH  =      T    aspherical Exc in radial PAW
   METAGGA=      F    non-selfconsistent MetaGGA calc.

 Electronic Relaxation 1
   ENCUT  =  550.0 eV  40.42 Ry    6.36 a.u.  19.22 19.22 67.15*2*pi/ulx,y,z
   ENINI  =  550.0     initial cutoff
   ENAUG  =  644.9 eV  augmentation charge cutoff
   NELM   =    100;   NELMIN=  2; NELMDL=  0     # of ELM steps 
   EDIFF  = 0.1E-04   stopping-criterion for ELM
   LREAL  =      T    real-space projection
   NLSPLINE    = F    spline interpolate recip. space projectors
   LCOMPAT=      F    compatible to vasp.4.4
   GGA_COMPAT  = T    GGA compatible to vasp.4.4-vasp.4.6
   LMAXPAW     = -100 max onsite density
   LMAXMIX     =    2 max onsite mixed and CHGCAR
   VOSKOWN=      0    Vosko Wilk Nusair interpolation
   ROPT   =   -0.00025  -0.00025  -0.00025  -0.00025
   ROPT   =   -0.00025
 Ionic relaxation
   EDIFFG = -.5E-01   stopping-criterion for IOM
   NSW    =      0    number of steps for IOM
   NBLOCK =      1;   KBLOCK =      1    inner block; outer block 
   IBRION =     -1    ionic relax: 0-MD 1-quasi-New 2-CG
   NFREE  =      1    steps in history (QN), initial steepest desc. (CG)
   ISIF   =      2    stress and relaxation
   IWAVPR =     10    prediction:  0-non 1-charg 2-wave 3-comb
   ISYM   =      0    0-nonsym 1-usesym 2-fastsym
   LCORR  =      T    Harris-Foulkes like correction to forces

   POTIM  = 0.5000    time-step for ionic-motion
   TEIN   =    0.0    initial temperature
   TEBEG  =    0.0;   TEEND  =   0.0 temperature during run
   SMASS  =  -3.00    Nose mass-parameter (am)
   estimated Nose-frequenzy (Omega)   =  0.10E-29 period in steps =****** mass=  -0.231E-26a.u.
   SCALEE = 1.0000    scale energy and forces
   NPACO  =    256;   APACO  = 16.0  distance and # of slots for P.C.
   PSTRESS=    0.0 pullay stress

  Mass of Ions in am
   POMASS =  10.81 14.00 12.01 19.00 16.00
  Ionic Valenz
   ZVAL   =   3.00  5.00  4.00  7.00  6.00
  Atomic Wigner-Seitz radii
   RWIGS  =  -1.00 -1.00 -1.00 -1.00 -1.00
  virtual crystal weights 
   VCA    =   1.00  1.00  1.00  1.00  1.00
   NELECT =     186.4000    total number of electrons
   NUPDOWN=      -1.0000    fix difference up-down

 DOS related values:
   EMIN   = -10.00;   EMAX   =  5.00  energy-range for DOS
   EFERMI =   0.00
   ISMEAR =     0;   SIGMA  =   0.05  broadening in eV -4-tet -1-fermi 0-gaus

 Electronic relaxation 2 (details)
   IALGO  =     68    algorithm
   LDIAG  =      T    sub-space diagonalisation (order eigenvalues)
   LSUBROT=      F    optimize rotation matrix (better conditioning)
   TURBO    =      0    0=normal 1=particle mesh
   IRESTART =      0    0=no restart 2=restart with 2 vectors
   NREBOOT  =      0    no. of reboots
   NMIN     =      0    reboot dimension
   EREF     =   0.00    reference energy to select bands
   IMIX   =      4    mixing-type and parameters
     AMIX     =   0.40;   BMIX     =  1.00
     AMIX_MAG =   1.60;   BMIX_MAG =  1.00
     AMIN     =   0.10
     WC   =   100.;   INIMIX=   1;  MIXPRE=   1;  MAXMIX= -45

 Intra band minimization:
   WEIMIN = 0.0000     energy-eigenvalue tresh-hold
   EBREAK =  0.17E-07  absolut break condition
   DEPER  =   0.30     relativ break condition  

   TIME   =   0.40     timestep for ELM

  volume/ion in A,a.u.               =      73.11       493.39
  Fermi-wavevector in a.u.,A,eV,Ry     =   0.643392  1.215834  5.632173  0.413953
  Thomas-Fermi vector in A             =   1.710376
 
 Write flags
   LWAVE        =      T    write WAVECAR
   LDOWNSAMPLE  =      F    k-point downsampling of WAVECAR
   LCHARG       =      T    write CHGCAR
   LVTOT        =      F    write LOCPOT, total local potential
   LVHAR        =      T    write LOCPOT, Hartree potential only
   LELF         =      F    write electronic localiz. function (ELF)
   LORBIT       =     11    0 simple, 1 ext, 2 COOP (PROOUT), +10 PAW based schemes


 Dipole corrections
   LMONO  =      F    monopole corrections only (constant potential shift)
   LDIPOL =      F    correct potential (dipole corrections)
   IDIPOL =      0    1-x, 2-y, 3-z, 4-all directions 
   EPSILON=  1.0000000 bulk dielectric constant

 Exchange correlation treatment:
   GGA     =    --    GGA type
   LEXCH   =     8    internal setting for exchange type
   VOSKOWN=      0    Vosko Wilk Nusair interpolation
   LHFCALC =     F    Hartree Fock is set to
   LHFONE  =     F    Hartree Fock one center treatment
   AEXX    =    0.0000 exact exchange contribution

 Linear response parameters
   LEPSILON=     F    determine dielectric tensor
   LRPA    =     F    only Hartree local field effects (RPA)
   LNABLA  =     F    use nabla operator in PAW spheres
   LVEL    =     F    velocity operator in full k-point grid
   LINTERFAST=   F  fast interpolation
   KINTER  =     0    interpolate to denser k-point grid
   CSHIFT  =0.1000    complex shift for real part using Kramers Kronig
   OMEGAMAX=  -1.0    maximum frequency
   DEG_THRESHOLD= 0.2000000E-02 threshold for treating states as degnerate
   RTIME   =   -0.100 relaxation time in fs
  (WPLASMAI=    0.000 imaginary part of plasma frequency in eV, 0.658/RTIME)
   DFIELD  = 0.0000000 0.0000000 0.0000000 field for delta impulse in time
 
 Orbital magnetization related:
   ORBITALMAG=     F  switch on orbital magnetization
   LCHIMAG   =     F  perturbation theory with respect to B field
   DQ        =  0.001000  dq finite difference perturbation B field
   LLRAUG    =     F  two centre corrections for induced B field

 Solvation model:
   LSOL    =     T         switch on solvation model
   EB_K    = 78.400000     relative permittivity of the bulk solvent
   SIGMA_K =  0.600000     width of the dielectric cavity
   NC_K    =  0.002500     cutoff charge density
   TAU     =  0.000000     cavity surface tension
   LAMBDA_D_K    =  3.040000     Debye length in Angstroms
   LRHOB     =     F     write boundcharge  density
   LRHOION     =     F     write ioniccharge density



--------------------------------------------------------------------------------------------------------


 Static calculation
 charge density and potential will be updated during run
 spin polarized calculation
 RMM-DIIS sequential band-by-band and
  variant of blocked Davidson during initial phase
 perform sub-space diagonalisation
    before iterative eigenvector-optimisation
 modified Broyden-mixing scheme, WC =      100.0
 initial mixing is a Kerker type mixing with AMIX =  0.4000 and BMIX =      1.0000
 Hartree-type preconditioning will be used
 using additional bands           50
 real space projection scheme for non local part
 use partial core corrections
 calculate Harris-corrections to forces 
   (improved forces if not selfconsistent)
 use gradient corrections 
 use of overlap-Matrix (Vanderbilt PP)
 Gauss-broadening in eV      SIGMA  =   0.05


--------------------------------------------------------------------------------------------------------


  energy-cutoff  :      550.00
  volume of cell :     3070.74
      direct lattice vectors                 reciprocal lattice vectors
     5.024366704 -8.702497373  0.000000000     0.099515029 -0.057454772  0.000000000
     5.024366704  8.702497373  0.000000000     0.099515029  0.057454772  0.000000000
     0.000000000  0.000000000 35.114664386     0.000000000  0.000000000  0.028478131

  length of vectors
    10.048767154 10.048767154 35.114664386     0.114909929  0.114909929  0.028478131


 
 old parameters found on file WAVECAR:
  energy-cutoff  :      550.00
  volume of cell :     3070.74
      direct lattice vectors                 reciprocal lattice vectors
     5.024366704 -8.702497373  0.000000000     0.099515029 -0.057454772  0.000000000
     5.024366704  8.702497373  0.000000000     0.099515029  0.057454772  0.000000000
     0.000000000  0.000000000 35.114664386     0.000000000  0.000000000  0.028478131

  length of vectors

 
 k-points in units of 2pi/SCALE and weight: K-Point Grid                            
   0.02487876  0.00000000  0.00000000       0.042
   0.01243938 -0.02154554  0.00000000       0.042
  -0.01243938 -0.02154554  0.00000000       0.042
   0.04975751 -0.01436369  0.00000000       0.042
   0.01243938 -0.05027293  0.00000000       0.042
   0.06219689  0.02154554  0.00000000       0.042
  -0.04975751 -0.01436369  0.00000000       0.042
   0.08707565  0.00718185  0.00000000       0.042
   0.03731814 -0.03590923  0.00000000       0.042
  -0.02487876  0.02872739  0.00000000       0.042
   0.01243938  0.03590923  0.00000000       0.042
   0.03731814  0.00718185  0.00000000       0.042
   0.02487876  0.02872739  0.00000000       0.042
  -0.01243938  0.03590923  0.00000000       0.042
  -0.03731814  0.00718185  0.00000000       0.042
   0.00000000  0.01436369  0.00000000       0.042
   0.01243938  0.00718185  0.00000000       0.042
   0.01243938 -0.00718185  0.00000000       0.042
   0.07463627  0.00000000  0.00000000       0.042
  -0.06219689 -0.00718185  0.00000000       0.042
   0.06219689 -0.00718185  0.00000000       0.042
   0.00000000  0.04309108  0.00000000       0.042
   0.03731814  0.02154554  0.00000000       0.042
   0.03731814 -0.02154554  0.00000000       0.042
 
 k-points in reciprocal lattice and weights: K-Point Grid                            
   0.12500000  0.12500000  0.00000000       0.042
   0.25000000 -0.12500000  0.00000000       0.042
   0.12500000 -0.25000000  0.00000000       0.042
   0.37500000  0.12500000  0.00000000       0.042
   0.50000000 -0.37500000  0.00000000       0.042
   0.12500000  0.50000000  0.00000000       0.042
  -0.12500000 -0.37500000  0.00000000       0.042
   0.37500000  0.50000000  0.00000000       0.042
   0.50000000 -0.12500000  0.00000000       0.042
  -0.37500000  0.12500000  0.00000000       0.042
  -0.25000000  0.37500000  0.00000000       0.042
   0.12500000  0.25000000  0.00000000       0.042
  -0.12500000  0.37500000  0.00000000       0.042
  -0.37500000  0.25000000  0.00000000       0.042
  -0.25000000 -0.12500000  0.00000000       0.042
  -0.12500000  0.12500000  0.00000000       0.042
   0.00000000  0.12500000  0.00000000       0.042
   0.12500000  0.00000000  0.00000000       0.042
   0.37500000  0.37500000  0.00000000       0.042
  -0.25000000 -0.37500000  0.00000000       0.042
   0.37500000  0.25000000  0.00000000       0.042
  -0.37500000  0.37500000  0.00000000       0.042
   0.00000000  0.37500000  0.00000000       0.042
   0.37500000  0.00000000  0.00000000       0.042
 
 position of ions in fractional coordinates (direct lattice) 
   0.16669168  0.08337280  0.50001579
   0.16666695  0.33335154  0.50004981
   0.16665270  0.58335237  0.50004711
   0.16669722  0.83338208  0.50001449
   0.41670277  0.08337626  0.50002711
   0.41667068  0.33333676  0.50004069
   0.41666356  0.58336120  0.50004599
   0.41668690  0.83337879  0.50004636
   0.66669212  0.08336981  0.50004653
   0.66669737  0.33334789  0.50005871
   0.66669986  0.58339483  0.50006142
   0.66670390  0.83339080  0.50007319
   0.91669087  0.08337426  0.50003876
   0.91668646  0.33336153  0.50004930
   0.91669695  0.58336033  0.50004921
   0.91670170  0.83337062  0.50004425
   0.08335887  0.16670882  0.50002686
   0.08336519  0.41670935  0.50005064
   0.08336208  0.66671342  0.50002794
   0.08335623  0.91671258  0.50000902
   0.33336566  0.16671501  0.50002359
   0.33336495  0.41671266  0.50008555
   0.33336876  0.66670586  0.50006284
   0.33336928  0.91671818  0.50001608
   0.58336734  0.16671007  0.50004729
   0.58335089  0.41670755  0.50011340
   0.58334163  0.66667751  0.50016128
   0.58335411  0.91669067  0.50006772
   0.83335632  0.16670352  0.50003921
   0.83335364  0.41670653  0.50006301
   0.83335624  0.66670487  0.50006524
   0.83334706  0.91669617  0.50005365
   0.56002578  0.47178262  0.67271222
   0.53214160  0.46985044  0.62933996
   0.51426126  0.62971339  0.61752529
   0.69289198  0.59534479  0.68232655
   0.56567505  0.34529166  0.68207421
   0.44537741  0.47197749  0.69191008
   0.64997086  0.47780712  0.61009362
   0.40367285  0.34211665  0.61988325
   0.64326411  0.73811170  0.61339068
   0.37862648  0.58962017  0.61691834
 
 position of ions in cartesian coordinates  (Angst):
   1.25641563 -0.72508238 17.55788680
   2.51227626  1.45057214 17.55908128
   3.76830050  3.62632783 17.55898646
   5.02476514  5.80182326 17.55784107
   2.51258043 -2.90077304 17.55828424
   3.76831238 -0.72521324 17.55876109
   5.02449107  1.45068576 17.55894727
   6.28078843  3.62626000 17.55895993
   3.76858624 -5.07636087 17.55896607
   5.02459415 -2.90097298 17.55939372
   6.28093414 -0.72496186 17.55948896
   7.53702586  1.45059237 17.55990223
   5.02469393 -7.25193563 17.55869316
   6.28069950 -5.07638369 17.55906334
   7.53683785 -2.90086110 17.55906034
   8.79300508 -0.72518851 17.55888599
   1.25643181  0.72535273 17.55827553
   2.51255789  2.90092662 17.55911024
   3.76865435  5.07661347 17.55831321
   5.02471243  7.25228144 17.55764887
   2.51258865 -1.45027682 17.55816061
   3.76866499  0.72533326 17.56033618
   5.02474160  2.90086519 17.55953888
   6.28089782  5.07659227 17.55789677
   3.76866395 -3.62595878 17.55899280
   5.02466030 -1.45021325 17.56131405
   6.28055455  0.72523022 17.56299545
   7.53677505  2.90086060 17.55971012
   5.02466738 -5.80154419 17.55870890
   6.28076071 -3.62587037 17.55954487
   7.53685713 -1.45028313 17.55962295
   8.79285893  0.72534545 17.55921617
   5.18418377 -0.76793585 23.62206400
   5.03437542 -0.54208868 22.09906138
   5.74774815  1.00472191 21.68419341
   6.47257393 -0.84890417 23.95966792
   4.57703080 -1.91788589 23.95080683
   4.60912746  0.23148713 24.29619039
   5.66637013 -1.49825458 21.42323259
   3.74711993 -0.53569270 21.76699223
   6.94053861  0.82541095 21.53900803
   4.86482624  1.83617204 21.66288052
 


--------------------------------------------------------------------------------------------------------


 k-point  1 :   0.1250 0.1250 0.0000  plane waves:   89921
 k-point  2 :   0.2500-0.1250 0.0000  plane waves:   89921
 k-point  3 :   0.1250-0.2500 0.0000  plane waves:   89921
 k-point  4 :   0.3750 0.1250 0.0000  plane waves:   89970
 k-point  5 :   0.5000-0.3750 0.0000  plane waves:   89970
 k-point  6 :   0.1250 0.5000 0.0000  plane waves:   89970
 k-point  7 :  -0.1250-0.3750 0.0000  plane waves:   89970
 k-point  8 :   0.3750 0.5000 0.0000  plane waves:   89970
 k-point  9 :   0.5000-0.1250 0.0000  plane waves:   89970
 k-point 10 :  -0.3750 0.1250 0.0000  plane waves:   89943
 k-point 11 :  -0.2500 0.3750 0.0000  plane waves:   89943
 k-point 12 :   0.1250 0.2500 0.0000  plane waves:   89943
 k-point 13 :  -0.1250 0.3750 0.0000  plane waves:   89943
 k-point 14 :  -0.3750 0.2500 0.0000  plane waves:   89943
 k-point 15 :  -0.2500-0.1250 0.0000  plane waves:   89943
 k-point 16 :  -0.1250 0.1250 0.0000  plane waves:   89893
 k-point 17 :   0.0000 0.1250 0.0000  plane waves:   89893
 k-point 18 :   0.1250 0.0000 0.0000  plane waves:   89893
 k-point 19 :   0.3750 0.3750 0.0000  plane waves:   89957
 k-point 20 :  -0.2500-0.3750 0.0000  plane waves:   89957
 k-point 21 :   0.3750 0.2500 0.0000  plane waves:   89957
 k-point 22 :  -0.3750 0.3750 0.0000  plane waves:   89980
 k-point 23 :   0.0000 0.3750 0.0000  plane waves:   89980
 k-point 24 :   0.3750 0.0000 0.0000  plane waves:   89980

 maximum and minimum number of plane-waves per node :     89980    89893

 maximum number of plane-waves:     89980
 maximum index in each direction: 
   IXMAX=   19   IYMAX=   19   IZMAX=   67
   IXMIN=  -19   IYMIN=  -19   IZMIN=  -67


 serial   3D FFT for wavefunctions
 parallel 3D FFT for charge:
    minimum data exchange during FFTs selected (reduces bandwidth)


 total amount of memory used by VASP MPI-rank0  1062323. kBytes
=======================================================================

   base      :      30000. kBytes
   nonlr-proj:      18705. kBytes
   fftplans  :      36020. kBytes
   grid      :     353049. kBytes
   one-center:        258. kBytes
   wavefun   :     624291. kBytes
 
     INWAV:  cpu time   22.1833: real time   22.3066
 Broyden mixing: mesh for mixing (old mesh)
   NGX = 39   NGY = 39   NGZ =135
  (NGX  =160   NGY  =160   NGZ  =540)
  gives a total of 205335 points

 charge density for first step will be calculated from the start-wavefunctions


--------------------------------------------------------------------------------------------------------


 Maximum index for non-local projection operator         6375
 Maximum index for augmentation-charges          580 (set IRDMAX)


--------------------------------------------------------------------------------------------------------


 initial charge from wavefunction
 First call to EWALD:  gamma=   0.122
 Maximum number of real-space cells 4x 4x 1
 Maximum number of reciprocal cells 2x 2x 6

    FEWALD:  cpu time    0.0499: real time    0.0478


--------------------------------------- Iteration      1(   1)  ---------------------------------------


    POTLOK:  cpu time   37.5170: real time   37.6024
    SETDIJ:  cpu time    0.5844: real time    0.3878
     EDDAV:  cpu time  359.5421: real time  198.1880
       DOS:  cpu time    0.0797: real time    0.0898
    CHARGE:  cpu time   33.2374: real time   32.3316
    MIXING:  cpu time    0.1774: real time    0.1057
    --------------------------------------------
      LOOP:  cpu time  431.1383: real time  268.7053

 eigenvalue-minimisations  : 16720
 total energy-change (2. order) :-0.3827846E+03  (-0.1995925E-02)
 number of electron     186.3999982 magnetization       0.8396488
 augmentation part       11.4964756 magnetization       0.1667222

 Broyden mixing:
  rms(total) = 0.10031E-01    rms(broyden)= 0.10015E-01
  rms(prec ) = 0.10072E-01
  weight for this iteration     100.00

 Free energy of the ion-electron system (eV)
  ---------------------------------------------------
  alpha Z        PSCENC =        57.55240194
  Ewald energy   TEWEN  =     62243.06876675
  -Hartree energ DENC   =    -70387.04603246
  -exchange      EXHF   =         0.00000000
  -V(xc)+E(xc)   XCENC  =       894.35026103
  PAW double counting   =     20935.85881414   -21032.12109555
  entropy T*S    EENTRO =        -0.01211529
  eigenvalues    EBANDS =     -2882.80323735
  atomic energy  EATOM  =      9975.55785330
  Solvation  Ediel_sol  =      -187.19021722
  ---------------------------------------------------
  free energy    TOTEN  =      -382.78460071 eV

  energy without entropy =     -382.77248542  energy(sigma->0) =     -382.77854306


--------------------------------------------------------------------------------------------------------




--------------------------------------- Iteration      1(   2)  ---------------------------------------


    POTLOK:  cpu time   26.5835: real time   26.6341
    SETDIJ:  cpu time    0.5822: real time    0.3856
    EDDIAG:  cpu time   56.5701: real time   39.7317
  RMM-DIIS:  cpu time  441.7078: real time  275.2649
    ORTHCH:  cpu time    1.5146: real time    0.7602
       DOS:  cpu time    0.0043: real time    0.0021
    CHARGE:  cpu time   33.4979: real time   32.3781
    MIXING:  cpu time    0.1094: real time    0.0593
    --------------------------------------------
      LOOP:  cpu time  560.5698: real time  375.2161

 eigenvalue-minimisations  : 16434
 total energy-change (2. order) : 0.5358621E-04  (-0.2674035E-04)
 number of electron     186.3999982 magnetization       0.8395642
 augmentation part       11.4960805 magnetization       0.1670276

 Broyden mixing:
  rms(total) = 0.62624E-02    rms(broyden)= 0.62604E-02
  rms(prec ) = 0.62922E-02
  weight for this iteration     100.00

 eigenvalues of (default mixing * dielectric matrix)
  average eigenvalue GAMMA=   1.9112
  1.9112

 Free energy of the ion-electron system (eV)
  ---------------------------------------------------
  alpha Z        PSCENC =        57.55240194
  Ewald energy   TEWEN  =     62243.06876675
  -Hartree energ DENC   =    -70386.98250880
  -exchange      EXHF   =         0.00000000
  -V(xc)+E(xc)   XCENC  =       894.35748867
  PAW double counting   =     20948.83288437   -21045.08913757
  entropy T*S    EENTRO =        -0.01213343
  eigenvalues    EBANDS =     -2882.90021702
  atomic energy  EATOM  =      9975.55785330
  Solvation  Ediel_sol  =      -187.16994535
  ---------------------------------------------------
  free energy    TOTEN  =      -382.78454712 eV

  energy without entropy =     -382.77241369  energy(sigma->0) =     -382.77848041


--------------------------------------------------------------------------------------------------------




--------------------------------------- Iteration      1(   3)  ---------------------------------------


    POTLOK:  cpu time   27.0845: real time   27.0935
    SETDIJ:  cpu time    0.5819: real time    0.3853
    EDDIAG:  cpu time   57.0290: real time   39.9621
  RMM-DIIS:  cpu time  449.4327: real time  282.1865
    ORTHCH:  cpu time    1.5144: real time    0.7602
       DOS:  cpu time    0.0048: real time    0.0024
    CHARGE:  cpu time   33.2053: real time   32.2844
    MIXING:  cpu time    0.1050: real time    0.0526
    --------------------------------------------
      LOOP:  cpu time  568.9577: real time  382.7271

 eigenvalue-minimisations  : 17017
 total energy-change (2. order) : 0.5214064E-05  (-0.1482782E-04)
 number of electron     186.3999982 magnetization       0.8396235
 augmentation part       11.4956749 magnetization       0.1649056

 Broyden mixing:
  rms(total) = 0.21077E-02    rms(broyden)= 0.21068E-02
  rms(prec ) = 0.21538E-02
  weight for this iteration     100.00

 eigenvalues of (default mixing * dielectric matrix)
  average eigenvalue GAMMA=   1.5161
  2.4218  0.6104

 Free energy of the ion-electron system (eV)
  ---------------------------------------------------
  alpha Z        PSCENC =        57.55240194
  Ewald energy   TEWEN  =     62243.06876675
  -Hartree energ DENC   =    -70386.82370639
  -exchange      EXHF   =         0.00000000
  -V(xc)+E(xc)   XCENC  =       894.34789635
  PAW double counting   =     20967.78762715   -21064.03558060
  entropy T*S    EENTRO =        -0.01201181
  eigenvalues    EBANDS =     -2883.07759586
  atomic energy  EATOM  =      9975.55785330
  Solvation  Ediel_sol  =      -187.15019274
  ---------------------------------------------------
  free energy    TOTEN  =      -382.78454191 eV

  energy without entropy =     -382.77253010  energy(sigma->0) =     -382.77853600


--------------------------------------------------------------------------------------------------------




--------------------------------------- Iteration      1(   4)  ---------------------------------------


    POTLOK:  cpu time   26.0298: real time   26.0685
    SETDIJ:  cpu time    0.5814: real time    0.3848
    EDDIAG:  cpu time   57.1541: real time   40.0772
  RMM-DIIS:  cpu time  402.6014: real time  251.8800
    ORTHCH:  cpu time    1.5272: real time    0.7664
       DOS:  cpu time    0.0040: real time    0.0020
    CHARGE:  cpu time   33.4137: real time   32.3749
    MIXING:  cpu time    0.0994: real time    0.0498
    --------------------------------------------
      LOOP:  cpu time  521.4111: real time  351.6035

 eigenvalue-minimisations  : 14063
 total energy-change (2. order) :-0.1875815E-03  (-0.3828056E-05)
 number of electron     186.3999982 magnetization       0.8397383
 augmentation part       11.4956842 magnetization       0.1649560

 Broyden mixing:
  rms(total) = 0.95973E-03    rms(broyden)= 0.95949E-03
  rms(prec ) = 0.10418E-02
  weight for this iteration     100.00

 eigenvalues of (default mixing * dielectric matrix)
  average eigenvalue GAMMA=   1.4451
  2.4682  1.1834  0.6837

 Free energy of the ion-electron system (eV)
  ---------------------------------------------------
  alpha Z        PSCENC =        57.55240194
  Ewald energy   TEWEN  =     62243.06876675
  -Hartree energ DENC   =    -70386.78419336
  -exchange      EXHF   =         0.00000000
  -V(xc)+E(xc)   XCENC  =       894.34355171
  PAW double counting   =     20969.27596202   -21065.52332333
  entropy T*S    EENTRO =        -0.01200288
  eigenvalues    EBANDS =     -2883.12549040
  atomic energy  EATOM  =      9975.55785330
  Solvation  Ediel_sol  =      -187.13825525
  ---------------------------------------------------
  free energy    TOTEN  =      -382.78472949 eV

  energy without entropy =     -382.77272661  energy(sigma->0) =     -382.77872805


--------------------------------------------------------------------------------------------------------




--------------------------------------- Iteration      1(   5)  ---------------------------------------


    POTLOK:  cpu time   26.5439: real time   26.5376
    SETDIJ:  cpu time    0.5814: real time    0.3847
    EDDIAG:  cpu time   57.0381: real time   39.9795
  RMM-DIIS:  cpu time  385.4814: real time  237.8803
    ORTHCH:  cpu time    1.5403: real time    0.7732
       DOS:  cpu time    0.0042: real time    0.0021
    CHARGE:  cpu time   33.1431: real time   32.2621
    MIXING:  cpu time    0.1008: real time    0.0505
    --------------------------------------------
      LOOP:  cpu time  504.4332: real time  337.8701

 eigenvalue-minimisations  : 13019
 total energy-change (2. order) :-0.3910254E-04  (-0.1468486E-05)
 number of electron     186.3999982 magnetization       0.8397063
 augmentation part       11.4960234 magnetization       0.1681020

 Broyden mixing:
  rms(total) = 0.19046E-02    rms(broyden)= 0.19026E-02
  rms(prec ) = 0.19605E-02
  weight for this iteration     100.00

 eigenvalues of (default mixing * dielectric matrix)
  average eigenvalue GAMMA=   1.0953
  2.5499  0.8890  0.5867  0.3554

 Free energy of the ion-electron system (eV)
  ---------------------------------------------------
  alpha Z        PSCENC =        57.55240194
  Ewald energy   TEWEN  =     62243.06876675
  -Hartree energ DENC   =    -70386.76012971
  -exchange      EXHF   =         0.00000000
  -V(xc)+E(xc)   XCENC  =       894.34205335
  PAW double counting   =     20969.26321338   -21065.51056936
  entropy T*S    EENTRO =        -0.01217704
  eigenvalues    EBANDS =     -2883.16409428
  atomic energy  EATOM  =      9975.55785330
  Solvation  Ediel_sol  =      -187.12208693
  ---------------------------------------------------
  free energy    TOTEN  =      -382.78476859 eV

  energy without entropy =     -382.77259155  energy(sigma->0) =     -382.77868007


--------------------------------------------------------------------------------------------------------




--------------------------------------- Iteration      1(   6)  ---------------------------------------


    POTLOK:  cpu time   25.5930: real time   25.5838
    SETDIJ:  cpu time    0.5820: real time    0.3854
    EDDIAG:  cpu time   57.2155: real time   40.1453
  RMM-DIIS:  cpu time  384.7636: real time  238.2470
    ORTHCH:  cpu time    1.5334: real time    0.7693
       DOS:  cpu time    0.0044: real time    0.0022
    CHARGE:  cpu time   33.4358: real time   32.5564
    MIXING:  cpu time    0.1400: real time    0.0702
    --------------------------------------------
      LOOP:  cpu time  503.2677: real time  337.7594

 eigenvalue-minimisations  : 12993
 total energy-change (2. order) : 0.7870685E-04  (-0.1516689E-05)
 number of electron     186.3999982 magnetization       0.8396855
 augmentation part       11.4959864 magnetization       0.1674481

 Broyden mixing:
  rms(total) = 0.10828E-02    rms(broyden)= 0.10828E-02
  rms(prec ) = 0.11217E-02
  weight for this iteration     100.00

 eigenvalues of (default mixing * dielectric matrix)
  average eigenvalue GAMMA=   1.1463
  2.5609  1.3381  0.6440  0.5943  0.5943

 Free energy of the ion-electron system (eV)
  ---------------------------------------------------
  alpha Z        PSCENC =        57.55240194
  Ewald energy   TEWEN  =     62243.06876675
  -Hartree energ DENC   =    -70386.75745263
  -exchange      EXHF   =         0.00000000
  -V(xc)+E(xc)   XCENC  =       894.34264535
  PAW double counting   =     20969.44038773   -21065.68777744
  entropy T*S    EENTRO =        -0.01214356
  eigenvalues    EBANDS =     -2883.16371860
  atomic energy  EATOM  =      9975.55785330
  Solvation  Ediel_sol  =      -187.12565274
  ---------------------------------------------------
  free energy    TOTEN  =      -382.78468988 eV

  energy without entropy =     -382.77254632  energy(sigma->0) =     -382.77861810


--------------------------------------------------------------------------------------------------------




--------------------------------------- Iteration      1(   7)  ---------------------------------------


    POTLOK:  cpu time   25.0154: real time   25.0689
    SETDIJ:  cpu time    0.5823: real time    0.3857
    EDDIAG:  cpu time   57.0352: real time   39.9722
  RMM-DIIS:  cpu time  376.4411: real time  232.3068
    ORTHCH:  cpu time    1.5343: real time    0.7729
       DOS:  cpu time    0.0043: real time    0.0022
    CHARGE:  cpu time   33.1744: real time   32.3270
    MIXING:  cpu time    0.1133: real time    0.0568
    --------------------------------------------
      LOOP:  cpu time  493.9004: real time  330.8924

 eigenvalue-minimisations  : 12444
 total energy-change (2. order) : 0.1430791E-04  (-0.6924879E-06)
 number of electron     186.3999982 magnetization       0.8397112
 augmentation part       11.4958959 magnetization       0.1658735

 Broyden mixing:
  rms(total) = 0.32976E-03    rms(broyden)= 0.32672E-03
  rms(prec ) = 0.35465E-03
  weight for this iteration     100.00

 eigenvalues of (default mixing * dielectric matrix)
  average eigenvalue GAMMA=   1.1308
  2.6118  1.5914  0.8183  0.6302  0.5667  0.5667

 Free energy of the ion-electron system (eV)
  ---------------------------------------------------
  alpha Z        PSCENC =        57.55240194
  Ewald energy   TEWEN  =     62243.06876675
  -Hartree energ DENC   =    -70386.75519888
  -exchange      EXHF   =         0.00000000
  -V(xc)+E(xc)   XCENC  =       894.34243296
  PAW double counting   =     20969.45739981   -21065.70504385
  entropy T*S    EENTRO =        -0.01205618
  eigenvalues    EBANDS =     -2883.16272303
  atomic energy  EATOM  =      9975.55785330
  Solvation  Ediel_sol  =      -187.12850841
  ---------------------------------------------------
  free energy    TOTEN  =      -382.78467558 eV

  energy without entropy =     -382.77261940  energy(sigma->0) =     -382.77864749


--------------------------------------------------------------------------------------------------------




--------------------------------------- Iteration      1(   8)  ---------------------------------------


    POTLOK:  cpu time   24.2067: real time   24.2456
    SETDIJ:  cpu time    0.5812: real time    0.3846
    EDDIAG:  cpu time   57.2610: real time   40.1881
  RMM-DIIS:  cpu time  375.0170: real time  232.0372
    ORTHCH:  cpu time    1.5623: real time    0.7839
       DOS:  cpu time    0.0039: real time    0.0020
    --------------------------------------------
      LOOP:  cpu time  458.6319: real time  297.6412

 eigenvalue-minimisations  : 12507
 total energy-change (2. order) :-0.8707086E-05  (-0.8420766E-06)
 number of electron     186.3999982 magnetization       0.8397112
 augmentation part       11.4958959 magnetization       0.1658735

 Free energy of the ion-electron system (eV)
  ---------------------------------------------------
  alpha Z        PSCENC =        57.55240194
  Ewald energy   TEWEN  =     62243.06876675
  -Hartree energ DENC   =    -70386.75972177
  -exchange      EXHF   =         0.00000000
  -V(xc)+E(xc)   XCENC  =       894.34275149
  PAW double counting   =     20969.55739966   -21065.80510067
  entropy T*S    EENTRO =        -0.01207773
  eigenvalues    EBANDS =     -2883.16107033
  atomic energy  EATOM  =      9975.55785330
  Solvation  Ediel_sol  =      -187.12588694
  ---------------------------------------------------
  free energy    TOTEN  =      -382.78468428 eV

  energy without entropy =     -382.77260655  energy(sigma->0) =     -382.77864542


--------------------------------------------------------------------------------------------------------




 average (electrostatic) potential at core
  the test charge radii are     0.7672  0.7089  0.6991  0.7167  0.7215
  (the norm of the test charge is              1.0000)
       1 -39.1842       2 -39.1872       3 -39.1850       4 -39.1826       5 -39.1849
       6 -39.1918       7 -39.1942       8 -39.1858       9 -39.1843      10 -39.1880
      11 -39.1942      12 -39.1905      13 -39.1835      14 -39.1832      15 -39.1851
      16 -39.1850      17 -76.7955      18 -76.7954      19 -76.7940      20 -76.7930
      21 -76.7983      22 -76.8061      23 -76.8010      24 -76.7939      25 -76.7968
      26 -76.8066      27 -76.8122      28 -76.7981      29 -76.7927      30 -76.7961
      31 -76.8003      32 -76.7972      33 -68.0550      34 -66.8942      35 -65.5105
      36 -92.3601      37 -92.3186      38 -92.3625      39 -92.5356      40 -92.5191
      41 -85.9213      42 -85.9053
 
 
 
 E-fermi :  -6.8805     XC(G=0):  -1.5978     alpha+bet : -1.2818


 spin component 1

 k-point     1 :       0.1250    0.1250    0.0000
  band No.  band energies     occupation 
      1     -36.2120      1.00000
      2     -35.4481      1.00000
      3     -33.9987      1.00000
      4     -33.7427      1.00000
      5     -33.7143      1.00000
      6     -30.2864      1.00000
      7     -28.6562      1.00000
      8     -25.3524      1.00000
      9     -24.6007      1.00000
     10     -24.5963      1.00000
     11     -24.1720      1.00000
     12     -24.1710      1.00000
     13     -23.7731      1.00000
     14     -23.7688      1.00000
     15     -22.9260      1.00000
     16     -22.6351      1.00000
     17     -22.6323      1.00000
     18     -22.3933      1.00000
     19     -22.3923      1.00000
     20     -22.2432      1.00000
     21     -22.1681      1.00000
     22     -22.1652      1.00000
     23     -21.9766      1.00000
     24     -21.4770      1.00000
     25     -18.6356      1.00000
     26     -16.9628      1.00000
     27     -16.7387      1.00000
     28     -16.5601      1.00000
     29     -15.9108      1.00000
     30     -15.8689      1.00000
     31     -15.7516      1.00000
     32     -15.7509      1.00000
     33     -15.6878      1.00000
     34     -15.0220      1.00000
     35     -15.0210      1.00000
     36     -14.9548      1.00000
     37     -14.5455      1.00000
     38     -14.5429      1.00000
     39     -14.1873      1.00000
     40     -14.0086      1.00000
     41     -13.5073      1.00000
     42     -13.1422      1.00000
     43     -13.1265      1.00000
     44     -13.1250      1.00000
     45     -13.0127      1.00000
     46     -12.9408      1.00000
     47     -12.9401      1.00000
     48     -12.8019      1.00000
     49     -12.7927      1.00000
     50     -12.5778      1.00000
     51     -12.4393      1.00000
     52     -12.2725      1.00000
     53     -12.2691      1.00000
     54     -12.1562      1.00000
     55     -12.1025      1.00000
     56     -12.0978      1.00000
     57     -12.0973      1.00000
     58     -12.0154      1.00000
     59     -11.9146      1.00000
     60     -11.6976      1.00000
     61     -11.5257      1.00000
     62     -11.2635      1.00000
     63     -11.2005      1.00000
     64     -11.0425      1.00000
     65     -11.0420      1.00000
     66     -11.0141      1.00000
     67     -11.0127      1.00000
     68     -10.9085      1.00000
     69     -10.8988      1.00000
     70     -10.7624      1.00000
     71     -10.3222      1.00000
     72     -10.3211      1.00000
     73     -10.2522      1.00000
     74     -10.2507      1.00000
     75     -10.0131      1.00000
     76     -10.0120      1.00000
     77      -9.7754      1.00000
     78      -9.7680      1.00000
     79      -9.4373      1.00000
     80      -9.4356      1.00000
     81      -9.0575      1.00000
     82      -8.9561      1.00000
     83      -8.5848      1.00000
     84      -8.3961      1.00000
     85      -8.2610      1.00000
     86      -8.1622      1.00000
     87      -8.1589      1.00000
     88      -7.9568      1.00000
     89      -7.7840      1.00000
     90      -7.7827      1.00000
     91      -7.5530      1.00000
     92      -7.4583      1.00000
     93      -7.4551      1.00000
     94      -7.1609      1.00000
     95      -1.4635      0.00000
     96      -1.1970      0.00000
     97      -0.9551      0.00000
     98      -0.9521      0.00000
     99      -0.9100      0.00000
    100      -0.8898      0.00000
    101      -0.6955      0.00000
    102      -0.6880      0.00000
    103      -0.2746      0.00000
    104      -0.1215      0.00000
    105       0.0537      0.00000
    106       0.0594      0.00000
    107       0.1056      0.00000
    108       0.1476      0.00000
    109       0.1944      0.00000
    110       0.3180      0.00000
    111       0.5068      0.00000
    112       0.6148      0.00000
    113       0.6956      0.00000
    114       0.8468      0.00000
    115       0.8882      0.00000
    116       0.9137      0.00000
    117       1.0316      0.00000
    118       1.0885      0.00000
    119       1.1139      0.00000
    120       1.1234      0.00000
    121       1.1883      0.00000
    122       1.3488      0.00000
    123       1.3810      0.00000
    124       1.4338      0.00000
    125       1.4699      0.00000
    126       1.5551      0.00000
    127       1.6080      0.00000
    128       1.6283      0.00000
    129       1.6610      0.00000
    130       1.7229      0.00000
    131       1.7701      0.00000
    132       1.8272      0.00000
    133       1.8518      0.00000
    134       1.8758      0.00000
    135       1.9126      0.00000
    136       1.9634      0.00000
    137       2.0281      0.00000
    138       2.0758      0.00000
    139       2.1237      0.00000
    140       2.1579      0.00000
    141       2.2230      0.00000
    142       2.5977      0.00000
    143       2.8097      0.00000
    144       3.7345      0.00000

 k-point     2 :       0.2500   -0.1250    0.0000
  band No.  band energies     occupation 
      1     -36.2120      1.00000
      2     -35.4481      1.00000
      3     -33.9987      1.00000
      4     -33.7427      1.00000
      5     -33.7143      1.00000
      6     -30.2864      1.00000
      7     -28.6562      1.00000
      8     -25.3524      1.00000
      9     -24.6006      1.00000
     10     -24.5963      1.00000
     11     -24.1718      1.00000
     12     -24.1712      1.00000
     13     -23.7730      1.00000
     14     -23.7689      1.00000
     15     -22.9260      1.00000
     16     -22.6351      1.00000
     17     -22.6325      1.00000
     18     -22.3932      1.00000
     19     -22.3924      1.00000
     20     -22.2433      1.00000
     21     -22.1680      1.00000
     22     -22.1653      1.00000
     23     -21.9766      1.00000
     24     -21.4770      1.00000
     25     -18.6356      1.00000
     26     -16.9628      1.00000
     27     -16.7387      1.00000
     28     -16.5601      1.00000
     29     -15.9109      1.00000
     30     -15.8689      1.00000
     31     -15.7515      1.00000
     32     -15.7510      1.00000
     33     -15.6878      1.00000
     34     -15.0219      1.00000
     35     -15.0211      1.00000
     36     -14.9547      1.00000
     37     -14.5455      1.00000
     38     -14.5430      1.00000
     39     -14.1873      1.00000
     40     -14.0084      1.00000
     41     -13.5075      1.00000
     42     -13.1423      1.00000
     43     -13.1261      1.00000
     44     -13.1250      1.00000
     45     -13.0128      1.00000
     46     -12.9408      1.00000
     47     -12.9401      1.00000
     48     -12.8019      1.00000
     49     -12.7927      1.00000
     50     -12.5778      1.00000
     51     -12.4393      1.00000
     52     -12.2723      1.00000
     53     -12.2691      1.00000
     54     -12.1562      1.00000
     55     -12.1027      1.00000
     56     -12.0980      1.00000
     57     -12.0975      1.00000
     58     -12.0154      1.00000
     59     -11.9145      1.00000
     60     -11.6976      1.00000
     61     -11.5257      1.00000
     62     -11.2633      1.00000
     63     -11.2005      1.00000
     64     -11.0425      1.00000
     65     -11.0421      1.00000
     66     -11.0140      1.00000
     67     -11.0127      1.00000
     68     -10.9084      1.00000
     69     -10.8987      1.00000
     70     -10.7625      1.00000
     71     -10.3218      1.00000
     72     -10.3213      1.00000
     73     -10.2524      1.00000
     74     -10.2508      1.00000
     75     -10.0128      1.00000
     76     -10.0118      1.00000
     77      -9.7754      1.00000
     78      -9.7681      1.00000
     79      -9.4375      1.00000
     80      -9.4356      1.00000
     81      -9.0575      1.00000
     82      -8.9562      1.00000
     83      -8.5849      1.00000
     84      -8.3956      1.00000
     85      -8.2615      1.00000
     86      -8.1620      1.00000
     87      -8.1587      1.00000
     88      -7.9570      1.00000
     89      -7.7836      1.00000
     90      -7.7831      1.00000
     91      -7.5529      1.00000
     92      -7.4581      1.00000
     93      -7.4553      1.00000
     94      -7.1610      1.00000
     95      -1.4647      0.00000
     96      -1.1948      0.00000
     97      -0.9567      0.00000
     98      -0.9519      0.00000
     99      -0.9100      0.00000
    100      -0.8900      0.00000
    101      -0.6958      0.00000
    102      -0.6876      0.00000
    103      -0.2725      0.00000
    104      -0.1214      0.00000
    105       0.0532      0.00000
    106       0.0621      0.00000
    107       0.1077      0.00000
    108       0.1466      0.00000
    109       0.1909      0.00000
    110       0.3171      0.00000
    111       0.5030      0.00000
    112       0.6145      0.00000
    113       0.6939      0.00000
    114       0.8370      0.00000
    115       0.8825      0.00000
    116       0.9170      0.00000
    117       1.0316      0.00000
    118       1.1024      0.00000
    119       1.1084      0.00000
    120       1.1240      0.00000
    121       1.1943      0.00000
    122       1.3515      0.00000
    123       1.3718      0.00000
    124       1.4316      0.00000
    125       1.4716      0.00000
    126       1.5560      0.00000
    127       1.6126      0.00000
    128       1.6336      0.00000
    129       1.6592      0.00000
    130       1.7218      0.00000
    131       1.7613      0.00000
    132       1.7979      0.00000
    133       1.8483      0.00000
    134       1.8660      0.00000
    135       1.8991      0.00000
    136       1.9288      0.00000
    137       2.0020      0.00000
    138       2.0288      0.00000
    139       2.1064      0.00000
    140       2.1807      0.00000
    141       2.4119      0.00000
    142       2.5790      0.00000
    143       2.6334      0.00000
    144       3.6860      0.00000

 k-point     3 :       0.1250   -0.2500    0.0000
  band No.  band energies     occupation 
      1     -36.2120      1.00000
      2     -35.4481      1.00000
      3     -33.9987      1.00000
      4     -33.7427      1.00000
      5     -33.7143      1.00000
      6     -30.2864      1.00000
      7     -28.6562      1.00000
      8     -25.3524      1.00000
      9     -24.6011      1.00000
     10     -24.5959      1.00000
     11     -24.1720      1.00000
     12     -24.1710      1.00000
     13     -23.7735      1.00000
     14     -23.7685      1.00000
     15     -22.9261      1.00000
     16     -22.6354      1.00000
     17     -22.6321      1.00000
     18     -22.3932      1.00000
     19     -22.3924      1.00000
     20     -22.2431      1.00000
     21     -22.1684      1.00000
     22     -22.1650      1.00000
     23     -21.9766      1.00000
     24     -21.4770      1.00000
     25     -18.6356      1.00000
     26     -16.9628      1.00000
     27     -16.7387      1.00000
     28     -16.5601      1.00000
     29     -15.9107      1.00000
     30     -15.8689      1.00000
     31     -15.7515      1.00000
     32     -15.7511      1.00000
     33     -15.6878      1.00000
     34     -15.0221      1.00000
     35     -15.0209      1.00000
     36     -14.9549      1.00000
     37     -14.5456      1.00000
     38     -14.5425      1.00000
     39     -14.1873      1.00000
     40     -14.0086      1.00000
     41     -13.5072      1.00000
     42     -13.1422      1.00000
     43     -13.1265      1.00000
     44     -13.1250      1.00000
     45     -13.0128      1.00000
     46     -12.9408      1.00000
     47     -12.9400      1.00000
     48     -12.8019      1.00000
     49     -12.7927      1.00000
     50     -12.5778      1.00000
     51     -12.4393      1.00000
     52     -12.2730      1.00000
     53     -12.2690      1.00000
     54     -12.1562      1.00000
     55     -12.1024      1.00000
     56     -12.0977      1.00000
     57     -12.0971      1.00000
     58     -12.0153      1.00000
     59     -11.9145      1.00000
     60     -11.6976      1.00000
     61     -11.5257      1.00000
     62     -11.2637      1.00000
     63     -11.2005      1.00000
     64     -11.0423      1.00000
     65     -11.0419      1.00000
     66     -11.0143      1.00000
     67     -11.0127      1.00000
     68     -10.9084      1.00000
     69     -10.8982      1.00000
     70     -10.7633      1.00000
     71     -10.3220      1.00000
     72     -10.3214      1.00000
     73     -10.2521      1.00000
     74     -10.2505      1.00000
     75     -10.0131      1.00000
     76     -10.0126      1.00000
     77      -9.7751      1.00000
     78      -9.7676      1.00000
     79      -9.4373      1.00000
     80      -9.4353      1.00000
     81      -9.0574      1.00000
     82      -8.9561      1.00000
     83      -8.5861      1.00000
     84      -8.3965      1.00000
     85      -8.2606      1.00000
     86      -8.1614      1.00000
     87      -8.1583      1.00000
     88      -7.9571      1.00000
     89      -7.7840      1.00000
     90      -7.7827      1.00000
     91      -7.5530      1.00000
     92      -7.4586      1.00000
     93      -7.4549      1.00000
     94      -7.1609      1.00000
     95      -1.4639      0.00000
     96      -1.1939      0.00000
     97      -0.9552      0.00000
     98      -0.9536      0.00000
     99      -0.9098      0.00000
    100      -0.8898      0.00000
    101      -0.6960      0.00000
    102      -0.6876      0.00000
    103      -0.2676      0.00000
    104      -0.1217      0.00000
    105       0.0500      0.00000
    106       0.0624      0.00000
    107       0.1307      0.00000
    108       0.1406      0.00000
    109       0.1891      0.00000
    110       0.3221      0.00000
    111       0.4419      0.00000
    112       0.6133      0.00000
    113       0.6895      0.00000
    114       0.8551      0.00000
    115       0.8844      0.00000
    116       0.9149      0.00000
[...]
    3       -0.000  -0.000   0.000  -0.000
    4       -0.000  -0.000   0.000  -0.000
    5       -0.000  -0.000   0.000  -0.000
    6       -0.000  -0.000   0.000  -0.000
    7       -0.000  -0.000   0.000  -0.000
    8       -0.000  -0.000   0.000  -0.000
    9       -0.000  -0.000   0.000  -0.000
   10       -0.000  -0.000   0.000  -0.000
   11       -0.000  -0.000   0.000  -0.000
   12        0.000   0.000   0.000   0.000
   13       -0.000  -0.000   0.000  -0.000
   14       -0.000  -0.000   0.000  -0.000
   15       -0.000  -0.000   0.000  -0.000
   16       -0.000  -0.000   0.000  -0.000
   17        0.000   0.000   0.000   0.000
   18        0.000   0.000   0.000   0.000
   19        0.000   0.000   0.000   0.000
   20        0.000   0.000   0.000   0.000
   21        0.000   0.000   0.000   0.000
   22        0.000   0.000   0.000   0.000
   23        0.000   0.000   0.000   0.000
   24        0.000   0.000   0.000   0.000
   25        0.000   0.000   0.000   0.000
   26        0.000   0.000   0.000   0.000
   27        0.000   0.000   0.000   0.000
   28        0.000  -0.000   0.000  -0.000
   29        0.000   0.000   0.000   0.000
   30        0.000   0.000   0.000   0.000
   31        0.000   0.000   0.000   0.000
   32        0.000   0.000   0.000   0.000
   33        0.004   0.013   0.000   0.017
   34        0.029   0.156   0.000   0.184
   35       -0.013  -0.022   0.000  -0.035
   36       -0.000   0.001   0.000   0.001
   37        0.000   0.016   0.000   0.016
   38       -0.000  -0.001   0.000  -0.001
   39        0.001   0.040   0.000   0.041
   40        0.001   0.038   0.000   0.039
   41        0.003   0.195   0.000   0.198
   42        0.003   0.187   0.000   0.189
--------------------------------------------------
tot          0.027   0.623   0.000   0.650
 
    CHARGE:  cpu time    3.8028: real time    3.5206
    FORLOC:  cpu time    0.2946: real time    0.2075
    FORNL :  cpu time   27.4485: real time   13.8502
    STRESS:  cpu time  641.2132: real time  591.4297
    FORCOR:  cpu time    2.3175: real time    2.3414
    FORHAR:  cpu time    0.3011: real time    0.3270
    MIXING:  cpu time    0.0490: real time    0.0490
    OFIELD:  cpu time    0.0003: real time    0.0164

  FORCE on cell =-STRESS in cart. coord.  units (eV):
  Direction    XX          YY          ZZ          XY          YZ          ZX
  --------------------------------------------------------------------------------------
  Alpha Z    57.55240    57.55240    57.55240
  Ewald   65450.28111 65429.28722-68636.51394   -68.64534  -290.18020  -137.27606
  Hartree 65911.58900 66095.08084-61619.87692    58.43791  -301.42185   -96.54243
  E(xc)    -832.21325  -831.97132  -837.73122     0.11598    -0.26761    -0.00599
  Local  ************************127788.06109   -18.33670   606.30390   228.39037
  n-local  -489.91338  -486.86578  -480.49786     1.94535     0.08938     0.40544
  augment   118.99916   122.44038   129.41934     1.90009    -1.85210     0.41322
  Kinetic  3265.50718  3307.80721  3599.71373    25.12776   -12.43869     4.97928
  Fock        0.00000     0.00000     0.00000     0.00000     0.00000     0.00000
  -------------------------------------------------------------------------------------
  Total     -13.69184   -12.84328     0.12661     0.54504     0.23285     0.36384
  in kB      -7.14379    -6.70105     0.06606     0.28438     0.12149     0.18984
  external pressure =       -4.59 kB  Pullay stress =        0.00 kB


 VOLUME and BASIS-vectors are now :
 -----------------------------------------------------------------------------
  energy-cutoff  :      550.00
  volume of cell :     3070.74
      direct lattice vectors                 reciprocal lattice vectors
     5.024366704 -8.702497373  0.000000000     0.099515029 -0.057454772  0.000000000
     5.024366704  8.702497373  0.000000000     0.099515029  0.057454772  0.000000000
     0.000000000  0.000000000 35.114664386     0.000000000  0.000000000  0.028478131

  length of vectors
    10.048767154 10.048767154 35.114664386     0.114909929  0.114909929  0.028478131


 FORCES acting on ions
    electron-ion (+dipol)            ewald-force                    non-local-force                 convergence-correction
 -----------------------------------------------------------------------------------------------
   0.818E+01 0.153E+01 0.123E+03   -.823E+01 -.149E+01 -.123E+03   0.365E-02 0.153E-03 -.773E-03   0.271E-04 0.135E-04 0.701E-03
   0.127E+02 -.645E+01 0.130E+03   -.127E+02 0.650E+01 -.129E+03   0.110E-01 -.348E-02 0.169E-02   0.886E-04 0.316E-05 0.788E-03
   0.357E+01 -.842E+01 0.125E+03   -.353E+01 0.837E+01 -.124E+03   0.105E-01 -.652E-02 0.131E-02   0.553E-04 -.655E-04 0.797E-03
   -.836E+00 -.326E+00 0.118E+03   0.802E+00 0.302E+00 -.118E+03   -.468E-03 -.832E-03 -.121E-02   -.461E-05 -.438E-04 0.709E-03
   0.769E+01 0.565E+01 0.125E+03   -.773E+01 -.568E+01 -.125E+03   0.144E-02 0.362E-02 0.225E-04   0.124E-04 -.134E-04 0.725E-03
   0.134E+02 0.449E+01 0.148E+03   -.134E+02 -.443E+01 -.148E+03   0.115E-01 0.648E-02 -.711E-03   0.740E-04 0.561E-04 0.829E-03
   0.359E+01 -.123E+02 0.150E+03   -.357E+01 0.124E+02 -.150E+03   0.642E-02 -.916E-02 -.114E-02   0.418E-04 -.682E-05 0.951E-03
   -.181E+01 -.110E+02 0.127E+03   0.178E+01 0.110E+02 -.126E+03   -.242E-02 -.594E-02 0.117E-02   -.248E-04 -.928E-04 0.828E-03
   -.296E+01 0.782E+00 0.121E+03   0.293E+01 -.874E+00 -.121E+03   -.367E-02 0.111E-03 0.465E-03   -.409E-04 -.362E-04 0.768E-03
   0.132E+01 0.152E+02 0.136E+03   -.127E+01 -.152E+02 -.136E+03   0.158E-02 0.131E-01 0.210E-02   0.132E-04 0.520E-04 0.785E-03
   -.938E+01 0.608E+01 0.153E+03   0.947E+01 -.603E+01 -.153E+03   -.899E-02 0.285E-03 0.844E-03   -.222E-04 0.777E-04 0.910E-03
   -.133E+02 -.798E+01 0.138E+03   0.133E+02 0.796E+01 -.137E+03   -.147E-01 -.619E-02 0.304E-02   -.850E-04 -.126E-04 0.904E-03
   -.296E+01 -.221E+01 0.120E+03   0.290E+01 0.220E+01 -.119E+03   -.184E-02 -.283E-02 -.367E-04   -.432E-04 0.104E-04 0.742E-03
   0.116E+01 0.327E+01 0.120E+03   -.113E+01 -.331E+01 -.119E+03   0.291E-02 0.221E-02 0.792E-03   0.129E-04 -.242E-05 0.739E-03
   -.819E+01 0.874E+01 0.127E+03   0.822E+01 -.872E+01 -.127E+03   -.747E-03 0.682E-02 0.129E-02   -.183E-04 0.286E-04 0.761E-03
   -.122E+02 0.302E+01 0.127E+03   0.122E+02 -.295E+01 -.127E+03   -.492E-02 0.321E-02 0.106E-02   -.765E-04 0.390E-04 0.770E-03
   0.127E+02 -.385E+01 0.205E+03   -.127E+02 0.390E+01 -.204E+03   0.978E-02 0.267E-02 0.857E-02   0.535E-04 0.316E-04 0.122E-02
   0.115E+02 -.867E+01 0.206E+03   -.114E+02 0.864E+01 -.205E+03   0.186E-02 -.240E-02 -.249E-02   0.119E-03 -.455E-04 0.131E-02
   -.480E+01 -.646E+00 0.201E+03   0.482E+01 0.594E+00 -.200E+03   -.113E-01 -.765E-02 0.719E-02   0.100E-04 -.695E-04 0.125E-02
   -.341E+01 0.399E+01 0.200E+03   0.332E+01 -.394E+01 -.199E+03   -.229E-02 0.848E-03 0.156E-01   -.493E-04 0.677E-05 0.117E-02
   0.224E+02 0.942E+01 0.220E+03   -.225E+02 -.938E+01 -.219E+03   0.198E-01 0.115E-01 0.124E-01   0.957E-04 0.377E-04 0.123E-02
   0.225E+02 -.107E+02 0.243E+03   -.225E+02 0.109E+02 -.242E+03   0.259E-01 -.806E-02 -.817E-02   0.174E-03 0.567E-04 0.150E-02
   0.378E+01 -.248E+02 0.224E+03   -.380E+01 0.248E+02 -.223E+03   0.440E-02 -.293E-01 -.744E-02   0.550E-04 -.148E-03 0.151E-02
   0.410E+01 -.436E+01 0.200E+03   -.417E+01 0.426E+01 -.200E+03   0.131E-02 -.624E-02 0.139E-01   -.101E-04 -.126E-03 0.124E-02
   0.600E+01 0.151E+02 0.211E+03   -.603E+01 -.152E+02 -.210E+03   0.498E-02 0.861E-02 -.263E-02   -.189E-05 -.476E-07 0.127E-02
   0.456E+01 0.193E+02 0.252E+03   -.445E+01 -.192E+02 -.251E+03   0.519E-03 0.255E-01 -.265E-01   0.572E-04 0.136E-03 0.147E-02
   -.143E+02 -.108E+02 0.253E+03   0.144E+02 0.109E+02 -.252E+03   -.206E-01 -.134E-01 -.544E-01   -.546E-04 0.534E-04 0.169E-02
   -.121E+02 -.145E+02 0.213E+03   0.120E+02 0.143E+02 -.212E+03   -.456E-02 -.125E-01 -.101E-01   -.121E-03 -.120E-03 0.145E-02
   -.314E+01 0.124E+01 0.198E+03   0.310E+01 -.134E+01 -.197E+03   -.115E-02 0.480E-03 0.379E-02   -.542E-04 -.133E-04 0.126E-02
   -.530E+01 0.193E+02 0.212E+03   0.538E+01 -.193E+02 -.211E+03   -.566E-02 0.646E-02 -.107E-01   0.271E-06 0.577E-04 0.129E-02
   -.235E+02 0.138E+02 0.228E+03   0.236E+02 -.137E+02 -.227E+03   -.206E-01 0.172E-01 -.878E-02   -.105E-03 0.110E-03 0.139E-02
   -.209E+02 -.376E+01 0.213E+03   0.208E+02 0.377E+01 -.212E+03   -.170E-01 0.491E-02 -.137E-02   -.174E-03 0.371E-04 0.137E-02
   0.208E+01 0.197E+02 -.434E+03   -.276E+01 -.183E+02 0.427E+03   0.824E+00 -.113E+01 0.828E+01   0.142E-03 -.307E-04 -.217E-03
   -.125E+02 -.443E+02 -.311E+03   0.178E+02 0.525E+02 0.320E+03   -.499E+01 -.762E+01 -.669E+01   0.281E-03 0.238E-03 0.887E-03
   -.372E+02 -.996E+02 -.286E+03   0.369E+02 0.990E+02 0.289E+03   0.621E+00 0.122E+01 -.577E-01   0.174E-03 0.705E-04 0.847E-03
   -.511E+03 0.794E+02 -.951E+03   0.570E+03 -.830E+02 0.969E+03   -.576E+02 0.385E+01 -.159E+02   -.398E-03 0.145E-03 -.411E-03
   0.234E+03 0.484E+03 -.925E+03   -.260E+03 -.535E+03 0.943E+03   0.263E+02 0.501E+02 -.152E+02   0.400E-03 0.318E-03 -.162E-03
   0.230E+03 -.352E+03 -.109E+04   -.257E+03 0.397E+03 0.112E+04   0.256E+02 -.441E+02 -.310E+02   0.616E-03 -.482E-03 -.790E-03
   -.206E+03 0.396E+03 -.266E+03   0.236E+03 -.438E+03 0.239E+03   -.285E+02 0.424E+02 0.311E+02   -.205E-03 0.120E-02 0.240E-02
   0.525E+03 0.280E+02 -.404E+03   -.584E+03 -.258E+02 0.392E+03   0.579E+02 -.899E+00 0.158E+02   0.137E-02 0.330E-03 0.191E-02
   -.423E+03 -.114E+03 -.401E+03   0.482E+03 0.105E+03 0.397E+03   -.562E+02 0.869E+01 0.687E+01   0.228E-03 -.123E-03 0.151E-02
   0.194E+03 -.405E+03 -.447E+03   -.238E+03 0.446E+03 0.449E+03   0.421E+02 -.392E+02 0.998E+00   -.109E-03 0.117E-03 0.134E-02
 -----------------------------------------------------------------------------------------------
   -.596E+01 -.134E+02 0.580E+01   -.568E-13 0.000E+00 0.568E-12   0.592E+01 0.133E+02 -.585E+01   0.250E-02 0.180E-02 0.416E-01
 
 
 POSITION                                       TOTAL-FORCE (eV/Angst)
 -----------------------------------------------------------------------------------
      1.25642     -0.72508     17.55789        -0.003625      0.001744      0.000890
      2.51228      1.45057     17.55908        -0.000067      0.006321      0.001760
      3.76830      3.62633     17.55899         0.010070     -0.002315      0.001635
      5.02477      5.80182     17.55784         0.000386      0.001573      0.001075
      2.51258     -2.90077     17.55828        -0.002326     -0.000093      0.000185
      3.76831     -0.72521     17.55876         0.002155      0.001322     -0.001137
      5.02449      1.45069     17.55895        -0.001003      0.007781      0.002772
      6.28079      3.62626     17.55896         0.001807      0.001672      0.001841
      3.76859     -5.07636     17.55897         0.004057     -0.002658      0.002183
      5.02459     -2.90097     17.55939         0.005719      0.000813      0.006367
      6.28093     -0.72496     17.55949         0.001880     -0.020141      0.005996
      7.53703      1.45059     17.55990         0.005457      0.004446      0.008798
      5.02469     -7.25194     17.55869        -0.000173      0.003110      0.000574
      6.28070     -5.07638     17.55906         0.001304      0.000240      0.000528
      7.53684     -2.90086     17.55906         0.003594      0.002382      0.001733
      8.79301     -0.72519     17.55889         0.004148      0.005520      0.001275
      1.25643      0.72535     17.55828        -0.000220     -0.001564      0.000906
      2.51256      2.90093     17.55911        -0.005578      0.000168     -0.000338
      3.76865      5.07661     17.55831        -0.003185      0.000509      0.000697
      5.02471      7.25228     17.55765         0.001345     -0.003278      0.001600
      2.51259     -1.45028     17.55816        -0.002793     -0.001600      0.001030
      3.76866      0.72533     17.56034        -0.000989     -0.003977     -0.004115
      5.02474      2.90087     17.55954        -0.006579      0.003933     -0.001962
      6.28090      5.07659     17.55790        -0.002478      0.000509      0.001425
      3.76866     -3.62596     17.55899        -0.002935      0.001182     -0.001228
      5.02466     -1.45021     17.56131         0.002014      0.004328     -0.005097
      6.28055      0.72523     17.56300         0.001472      0.007797     -0.007976
      7.53678      2.90086     17.55971         0.001039      0.000729     -0.002278
      5.02467     -5.80154     17.55871        -0.001128      0.000012      0.000386
      6.28076     -3.62587     17.55954        -0.001940     -0.001883     -0.001775
      7.53686     -1.45028     17.55962        -0.004917      0.002092     -0.002155
      8.79286      0.72535     17.55922         0.000030     -0.002477     -0.000342
      5.18418     -0.76794     23.62206         0.018877      0.004961     -0.039531
      5.03438     -0.54209     22.09906         0.008016      0.019157      0.023239
      5.74775      1.00472     21.68419         0.000205     -0.028304      0.012510
      6.47257     -0.84890     23.95967         0.007969      0.010515     -0.018438
      4.57703     -1.91789     23.95081        -0.001966     -0.009430     -0.001359
      4.60913      0.23149     24.29619        -0.008635      0.019700     -0.004071
      5.66637     -1.49825     21.42323        -0.001530     -0.024283      0.001033
      3.74712     -0.53569     21.76699        -0.021706     -0.011426     -0.002823
      6.94054      0.82541     21.53901         0.016285     -0.014250      0.000988
      4.86483      1.83617     21.66288        -0.024057      0.015164      0.013201
 -----------------------------------------------------------------------------------
    total drift:                               -0.041702     -0.033563     -0.000398


--------------------------------------------------------------------------------------------------------



  FREE ENERGIE OF THE ION-ELECTRON SYSTEM (eV)
  ---------------------------------------------------
  free  energy   TOTEN  =      -382.78468428 eV

  energy  without entropy=     -382.77260655  energy(sigma->0) =     -382.77864542
 


--------------------------------------------------------------------------------------------------------


    POTLOK:  cpu time   23.5768: real time   23.4430


--------------------------------------------------------------------------------------------------------


 stress matrix after NEB project (eV)
    -13.69184      0.54519      0.36384
      0.54504    -12.84328      0.23263
      0.36245      0.23285      0.12661
  FORCES: max atom, RMS     0.044087    0.014687
  FORCE total and by dimension    0.095182    0.039531
  Stress total and by dimension   18.798900   13.691837
 writing wavefunctions
     LOOP+:  cpu time 4929.0402: real time 3430.5445
    4ORBIT:  cpu time    0.0000: real time    0.0000
 


 total charge     
 
# of ion       s       p       d       tot
------------------------------------------
    1        0.743   1.391   0.000   2.134
    2        0.743   1.391   0.000   2.134
    3        0.743   1.391   0.000   2.134
    4        0.743   1.391   0.000   2.134
    5        0.743   1.391   0.000   2.134
    6        0.743   1.391   0.000   2.135
    7        0.743   1.392   0.000   2.135
    8        0.743   1.391   0.000   2.134
    9        0.743   1.391   0.000   2.134
   10        0.743   1.391   0.000   2.134
   11        0.743   1.392   0.000   2.135
   12        0.743   1.391   0.000   2.134
   13        0.743   1.391   0.000   2.134
   14        0.743   1.391   0.000   2.134
   15        0.743   1.391   0.000   2.134
   16        0.743   1.391   0.000   2.134
   17        1.240   2.814   0.000   4.054
   18        1.240   2.814   0.000   4.054
   19        1.240   2.814   0.000   4.054
   20        1.240   2.814   0.000   4.054
   21        1.240   2.814   0.000   4.054
   22        1.240   2.814   0.000   4.054
   23        1.240   2.814   0.000   4.054
   24        1.240   2.814   0.000   4.054
   25        1.240   2.814   0.000   4.054
   26        1.240   2.814   0.000   4.054
   27        1.240   2.814   0.000   4.054
   28        1.240   2.814   0.000   4.054
   29        1.240   2.814   0.000   4.054
   30        1.240   2.814   0.000   4.054
   31        1.240   2.814   0.000   4.054
   32        1.240   2.814   0.000   4.054
   33        0.814   1.564   0.000   2.378
   34        0.836   1.554   0.000   2.389
   35        0.897   1.730   0.000   2.626
   36        1.759   4.414   0.000   6.172
   37        1.759   4.408   0.000   6.167
   38        1.759   4.414   0.000   6.172
   39        1.759   4.402   0.000   6.161
   40        1.759   4.403   0.000   6.162
   41        1.604   3.544   0.000   5.148
   42        1.604   3.547   0.000   5.151
--------------------------------------------------
tot         46.283 101.257   0.000 147.540
 


 magnetization (x)
 
# of ion       s       p       d       tot
------------------------------------------
    1       -0.000  -0.000   0.000  -0.000
    2       -0.000  -0.000   0.000  -0.000
    3       -0.000  -0.000   0.000  -0.000
    4       -0.000  -0.000   0.000  -0.000
    5       -0.000  -0.000   0.000  -0.000
    6       -0.000  -0.000   0.000  -0.000
    7       -0.000  -0.000   0.000  -0.000
    8       -0.000  -0.000   0.000  -0.000
    9       -0.000  -0.000   0.000  -0.000
   10       -0.000  -0.000   0.000  -0.000
   11       -0.000  -0.000   0.000  -0.000
   12        0.000   0.000   0.000   0.000
   13       -0.000  -0.000   0.000  -0.000
   14       -0.000  -0.000   0.000  -0.000
   15       -0.000  -0.000   0.000  -0.000
   16       -0.000  -0.000   0.000  -0.000
   17        0.000   0.000   0.000   0.000
   18        0.000   0.000   0.000   0.000
   19        0.000   0.000   0.000   0.000
   20        0.000   0.000   0.000   0.000
   21        0.000   0.000   0.000   0.000
   22        0.000   0.000   0.000   0.000
   23        0.000   0.000   0.000   0.000
   24        0.000   0.000   0.000   0.000
   25        0.000   0.000   0.000   0.000
   26        0.000   0.000   0.000   0.000
   27        0.000   0.000   0.000   0.000
   28        0.000  -0.000   0.000  -0.000
   29        0.000   0.000   0.000   0.000
   30        0.000   0.000   0.000   0.000
   31        0.000   0.000   0.000   0.000
   32        0.000   0.000   0.000   0.000
   33        0.004   0.013   0.000   0.017
   34        0.029   0.156   0.000   0.184
   35       -0.013  -0.022   0.000  -0.035
   36       -0.000   0.001   0.000   0.001
   37        0.000   0.016   0.000   0.016
   38       -0.000  -0.001   0.000  -0.001
   39        0.001   0.040   0.000   0.041
   40        0.001   0.038   0.000   0.039
   41        0.003   0.195   0.000   0.198
   42        0.003   0.187   0.000   0.189
--------------------------------------------------
tot          0.027   0.623   0.000   0.650
 

 total amount of memory used by VASP MPI-rank0  1062323. kBytes
=======================================================================

   base      :      30000. kBytes
   nonlr-proj:      18705. kBytes
   fftplans  :      36020. kBytes
   grid      :     353049. kBytes
   one-center:        258. kBytes
   wavefun   :     624291. kBytes
 
  
  
 General timing and accounting informations for this job:
 ========================================================
  
                  Total CPU time used (sec):     5618.962
                            User time (sec):     5216.201
                          System time (sec):      402.762
                         Elapsed time (sec):     3825.516
  
                   Maximum memory used (kb):     1915220.
                   Average memory used (kb):           0.
  
                          Minor page faults:      5023256
                          Major page faults:           25
                 Voluntary context switches:        58940
