 vasp.5.4.4.18Apr17-6-g9f103f2a35 (build May 01 2020 14:57:12) complex          
  
 executed on             LinuxIFC date 2020.10.04  18:47:26
 running on   48 total cores
 distrk:  each k-point on   12 cores,    4 groups
 distr:  one band on NCORES_PER_BAND=   1 cores,   12 groups


--------------------------------------------------------------------------------------------------------


 INCAR:
 POTCAR:    PAW_PBE B 06Sep2000                   
 POTCAR:    PAW_PBE N 08Apr2002                   
 POTCAR:    PAW_PBE C 08Apr2002                   
 POTCAR:    PAW_PBE F 08Apr2002                   
 POTCAR:    PAW_PBE O 08Apr2002                   

 ----------------------------------------------------------------------------- 
|                                                                             |
|           W    W    AA    RRRRR   N    N  II  N    N   GGGG   !!!           |
|           W    W   A  A   R    R  NN   N  II  NN   N  G    G  !!!           |
|           W    W  A    A  R    R  N N  N  II  N N  N  G       !!!           |
|           W WW W  AAAAAA  RRRRR   N  N N  II  N  N N  G  GGG   !            |
|           WW  WW  A    A  R   R   N   NN  II  N   NN  G    G                |
|           W    W  A    A  R    R  N    N  II  N    N   GGGG   !!!           |
|                                                                             |
|      For optimal performance we recommend to set                            |
|        NCORE= 4 - approx SQRT( number of cores)                             |
|      NCORE specifies how many cores store one orbital (NPAR=cpu/NCORE).     |
|      This setting can  greatly improve the performance of VASP for DFT.     |
|      The default,   NCORE=1            might be grossly inefficient         |
|      on modern multi-core architectures or massively parallel machines.     |
|      Do your own testing !!!!                                               |
|      Unfortunately you need to use the default for GW and RPA calculations. |
|      (for HF NCORE is supported but not extensively tested yet)             |
|                                                                             |
 ----------------------------------------------------------------------------- 


 ----------------------------------------------------------------------------- 
|                                                                             |
|           W    W    AA    RRRRR   N    N  II  N    N   GGGG   !!!           |
|           W    W   A  A   R    R  NN   N  II  NN   N  G    G  !!!           |
|           W    W  A    A  R    R  N N  N  II  N N  N  G       !!!           |
|           W WW W  AAAAAA  RRRRR   N  N N  II  N  N N  G  GGG   !            |
|           WW  WW  A    A  R   R   N   NN  II  N   NN  G    G                |
|           W    W  A    A  R    R  N    N  II  N    N   GGGG   !!!           |
|                                                                             |
|      You have enabled k-point parallelism (KPAR>1).                         |
|      This developmental code was originally  written by Paul Kent at ORNL,  |
|      and carefully double checked in Vienna.                                |
|      GW as well as linear response parallelism added by Martijn Marsman     |
|      and Georg Kresse.                                                      |
|      Carefully verify results versus KPAR=1.                                |
|      Report problems to Paul Kent and Vienna.                               |
|                                                                             |
 ----------------------------------------------------------------------------- 

 POTCAR:    PAW_PBE B 06Sep2000                   
   VRHFIN =B: s2p1                                                              
   LEXCH  = PE                                                                  
   EATOM  =    71.1703 eV,    5.2309 Ry                                         
                                                                                
   TITEL  = PAW_PBE B 06Sep2000                                                 
   LULTRA =        F    use ultrasoft PP ?                                      
   IUNSCR =        1    unscreen: 0-lin 1-nonlin 2-no                           
   RPACOR =    1.200    partial core radius                                     
   POMASS =   10.811; ZVAL   =    3.000    mass and valenz                      
   RCORE  =    1.700    outmost cutoff radius                                   
   RWIGS  =    1.710; RWIGS  =    0.905    wigner-seitz radius (au A)           
   ENMAX  =  318.614; ENMIN  =  238.960 eV                                      
   ICORE  =        2    local potential                                         
   LCOR   =        T    correct aug charges                                     
   LPAW   =        T    paw PP                                                  
   EAUG   =  535.514                                                            
   DEXC   =    0.000                                                            
   RMAX   =    1.732    core radius for proj-oper                               
   RAUG   =    1.300    factor for augmentation sphere                          
   RDEP   =    1.757    radius for radial grids                                 
   RDEPT  =    1.436    core radius for aug-charge                              
                                                                                
   Atomic configuration                                                         
    4 entries                                                                   
     n  l   j            E        occ.                                          
     1  0  0.50      -180.5896   2.0000                                         
     2  0  0.50        -9.4431   2.0000                                         
     2  1  0.50        -3.6068   1.0000                                         
     3  2  1.50        -4.0817   0.0000                                         
   Description                                                                  
     l       E           TYP  RCUT    TYP  RCUT                                 
     0     -9.4430752     23  1.500                                             
     0      0.8675899     23  1.500                                             
     1     -3.6067955     23  1.700                                             
     1      6.1086146     23  1.700                                             
     2     -4.0817478      7  1.700                                             
  local pseudopotential read in
  partial core-charges read in
  partial kinetic energy density read in
  atomic valenz-charges read in
  non local Contribution for L=           0  read in
    real space projection operators read in
  non local Contribution for L=           0  read in
    real space projection operators read in
  non local Contribution for L=           1  read in
    real space projection operators read in
  non local Contribution for L=           1  read in
    real space projection operators read in
    PAW grid and wavefunctions read in
 
   number of l-projection  operators is LMAX  =           4
   number of lm-projection operators is LMMAX =           8
 
 POTCAR:    PAW_PBE N 08Apr2002                   
   VRHFIN =N: s2p3                                                              
   LEXCH  = PE                                                                  
   EATOM  =   264.5486 eV,   19.4438 Ry                                         
                                                                                
   TITEL  = PAW_PBE N 08Apr2002                                                 
   LULTRA =        F    use ultrasoft PP ?                                      
   IUNSCR =        1    unscreen: 0-lin 1-nonlin 2-no                           
   RPACOR =    1.200    partial core radius                                     
   POMASS =   14.001; ZVAL   =    5.000    mass and valenz                      
   RCORE  =    1.500    outmost cutoff radius                                   
   RWIGS  =    1.400; RWIGS  =    0.741    wigner-seitz radius (au A)           
   ENMAX  =  400.000; ENMIN  =  300.000 eV                                      
   ICORE  =        2    local potential                                         
   LCOR   =        T    correct aug charges                                     
   LPAW   =        T    paw PP                                                  
   EAUG   =  627.112                                                            
   DEXC   =    0.000                                                            
   RMAX   =    1.529    core radius for proj-oper                               
   RAUG   =    1.300    factor for augmentation sphere                          
   RDEP   =    1.514    radius for radial grids                                 
   RDEPT  =    1.338    core radius for aug-charge                              
                                                                                
   Atomic configuration                                                         
    4 entries                                                                   
     n  l   j            E        occ.                                          
     1  0  0.50      -384.7179   2.0000                                         
     2  0  0.50       -18.5828   2.0000                                         
     2  1  0.50        -7.0898   3.0000                                         
     3  2  1.50        -6.8029   0.0000                                         
   Description                                                                  
     l       E           TYP  RCUT    TYP  RCUT                                 
     0    -18.5828119     23  1.200                                             
     0    -13.5018863     23  1.200                                             
     1     -7.0897853     23  1.500                                             
     1      9.5240782     23  1.500                                             
     2     -6.8029130      7  1.500                                             
  local pseudopotential read in
  partial core-charges read in
  partial kinetic energy density read in
  atomic valenz-charges read in
  non local Contribution for L=           0  read in
    real space projection operators read in
  non local Contribution for L=           0  read in
    real space projection operators read in
  non local Contribution for L=           1  read in
    real space projection operators read in
  non local Contribution for L=           1  read in
    real space projection operators read in
    PAW grid and wavefunctions read in
 
   number of l-projection  operators is LMAX  =           4
   number of lm-projection operators is LMMAX =           8
 
 POTCAR:    PAW_PBE C 08Apr2002                   
   VRHFIN =C: s2p2                                                              
   LEXCH  = PE                                                                  
   EATOM  =   147.1560 eV,   10.8157 Ry                                         
                                                                                
   TITEL  = PAW_PBE C 08Apr2002                                                 
   LULTRA =        F    use ultrasoft PP ?                                      
   IUNSCR =        1    unscreen: 0-lin 1-nonlin 2-no                           
   RPACOR =    1.200    partial core radius                                     
   POMASS =   12.011; ZVAL   =    4.000    mass and valenz                      
   RCORE  =    1.500    outmost cutoff radius                                   
   RWIGS  =    1.630; RWIGS  =    0.863    wigner-seitz radius (au A)           
   ENMAX  =  400.000; ENMIN  =  300.000 eV                                      
   ICORE  =        2    local potential                                         
   LCOR   =        T    correct aug charges                                     
   LPAW   =        T    paw PP                                                  
   EAUG   =  644.873                                                            
   DEXC   =    0.000                                                            
   RMAX   =    1.529    core radius for proj-oper                               
   RAUG   =    1.300    factor for augmentation sphere                          
   RDEP   =    1.501    radius for radial grids                                 
   RDEPT  =    1.300    core radius for aug-charge                              
                                                                                
   Atomic configuration                                                         
    4 entries                                                                   
     n  l   j            E        occ.                                          
     1  0  0.50      -273.3789   2.0000                                         
     2  0  0.50       -13.7508   2.0000                                         
     2  1  0.50        -5.2854   2.0000                                         
     3  2  1.50        -5.4423   0.0000                                         
   Description                                                                  
     l       E           TYP  RCUT    TYP  RCUT                                 
     0    -13.7508458     23  1.200                                             
     0     -8.2022199     23  1.200                                             
     1     -5.2854383     23  1.500                                             
     1     34.0145650     23  1.500                                             
     2     -5.4423304      7  1.500                                             
  local pseudopotential read in
  partial core-charges read in
  partial kinetic energy density read in
  atomic valenz-charges read in
  non local Contribution for L=           0  read in
    real space projection operators read in
  non local Contribution for L=           0  read in
    real space projection operators read in
  non local Contribution for L=           1  read in
    real space projection operators read in
  non local Contribution for L=           1  read in
    real space projection operators read in
    PAW grid and wavefunctions read in
 
   number of l-projection  operators is LMAX  =           4
   number of lm-projection operators is LMMAX =           8
 
 POTCAR:    PAW_PBE F 08Apr2002                   
   VRHFIN =F: s2p5                                                              
   LEXCH  = PE                                                                  
   EATOM  =   659.6475 eV,   48.4827 Ry                                         
                                                                                
   TITEL  = PAW_PBE F 08Apr2002                                                 
   LULTRA =        F    use ultrasoft PP ?                                      
   IUNSCR =        1    unscreen: 0-lin 1-nonlin 2-no                           
   RPACOR =    1.200    partial core radius                                     
   POMASS =   18.998; ZVAL   =    7.000    mass and valenz                      
   RCORE  =    1.520    outmost cutoff radius                                   
   RWIGS  =    1.500; RWIGS  =    0.794    wigner-seitz radius (au A)           
   ENMAX  =  400.000; ENMIN  =  300.000 eV                                      
   ICORE  =        2    local potential                                         
   LCOR   =        T    correct aug charges                                     
   LPAW   =        T    paw PP                                                  
   EAUG   =  613.614                                                            
   RMAX   =    1.555    core radius for proj-oper                               
   RAUG   =    1.300    factor for augmentation sphere                          
   RDEP   =    1.539    radius for radial grids                                 
   RDEPT  =    1.299    core radius for aug-charge                              
                                                                                
   Atomic configuration                                                         
    4 entries                                                                   
     n  l   j            E        occ.                                          
     1  0  0.50      -663.3661   2.0000                                         
     2  0  0.50       -29.8995   2.0000                                         
     2  1  0.50       -11.1114   5.0000                                         
     3  2  1.50       -10.8847   0.0000                                         
   Description                                                                  
     l       E           TYP  RCUT    TYP  RCUT                                 
     0    -29.8995018     23  1.200                                             
     0     -9.5240782     23  1.200                                             
     1    -11.1113914     23  1.520                                             
     1      1.3605826     23  1.520                                             
     2    -10.8846608      7  1.500                                             
  local pseudopotential read in
  partial core-charges read in
  partial kinetic energy density read in
  atomic valenz-charges read in
  non local Contribution for L=           0  read in
    real space projection operators read in
  non local Contribution for L=           0  read in
    real space projection operators read in
  non local Contribution for L=           1  read in
    real space projection operators read in
  non local Contribution for L=           1  read in
    real space projection operators read in
    PAW grid and wavefunctions read in
 
   number of l-projection  operators is LMAX  =           4
   number of lm-projection operators is LMMAX =           8
 
 POTCAR:    PAW_PBE O 08Apr2002                   
   VRHFIN =O: s2p4                                                              
   LEXCH  = PE                                                                  
   EATOM  =   432.3788 eV,   31.7789 Ry                                         
                                                                                
   TITEL  = PAW_PBE O 08Apr2002                                                 
   LULTRA =        F    use ultrasoft PP ?                                      
   IUNSCR =        1    unscreen: 0-lin 1-nonlin 2-no                           
   RPACOR =    1.200    partial core radius                                     
   POMASS =   16.000; ZVAL   =    6.000    mass and valenz                      
   RCORE  =    1.520    outmost cutoff radius                                   
   RWIGS  =    1.550; RWIGS  =    0.820    wigner-seitz radius (au A)           
   ENMAX  =  400.000; ENMIN  =  300.000 eV                                      
   ICORE  =        2    local potential                                         
   LCOR   =        T    correct aug charges                                     
   LPAW   =        T    paw PP                                                  
   EAUG   =  605.392                                                            
   DEXC   =    0.000                                                            
   RMAX   =    1.553    core radius for proj-oper                               
   RAUG   =    1.300    factor for augmentation sphere                          
   RDEP   =    1.550    radius for radial grids                                 
   RDEPT  =    1.329    core radius for aug-charge                              
                                                                                
   Atomic configuration                                                         
    4 entries                                                                   
     n  l   j            E        occ.                                          
     1  0  0.50      -514.6923   2.0000                                         
     2  0  0.50       -23.9615   2.0000                                         
     2  1  0.50        -9.0305   4.0000                                         
     3  2  1.50        -9.5241   0.0000                                         
   Description                                                                  
     l       E           TYP  RCUT    TYP  RCUT                                 
     0    -23.9615318     23  1.200                                             
     0     -9.5240782     23  1.200                                             
     1     -9.0304911     23  1.520                                             
     1      8.1634956     23  1.520                                             
     2     -9.5240782      7  1.500                                             
  local pseudopotential read in
  partial core-charges read in
  partial kinetic energy density read in
  kinetic energy density of atom read in
  atomic valenz-charges read in
  non local Contribution for L=           0  read in
    real space projection operators read in
  non local Contribution for L=           0  read in
    real space projection operators read in
  non local Contribution for L=           1  read in
    real space projection operators read in
  non local Contribution for L=           1  read in
    real space projection operators read in
    PAW grid and wavefunctions read in
 
   number of l-projection  operators is LMAX  =           4
   number of lm-projection operators is LMMAX =           8
 
 Optimization of the real space projectors (new method)

 maximal supplied QI-value         = 22.11
 optimisation between [QCUT,QGAM] = [ 11.94, 23.88] = [ 39.92,159.67] Ry 
 Optimized for a Real-space Cutoff    1.18 Angstroem

   l    n(q)    QCUT    max X(q) W(low)/X(q) W(high)/X(q)  e(spline) 
   0      8    11.939    53.033    0.11E-03    0.34E-03    0.60E-07
   0      8    11.939    34.740    0.11E-03    0.34E-03    0.59E-07
   1      8    11.939    30.949    0.22E-03    0.20E-03    0.17E-06
   1      8    11.939    19.518    0.20E-03    0.18E-03    0.16E-06
 Optimization of the real space projectors (new method)

 maximal supplied QI-value         = 25.13
 optimisation between [QCUT,QGAM] = [ 11.81, 23.88] = [ 39.08,159.64] Ry 
 Optimized for a Real-space Cutoff    1.41 Angstroem

   l    n(q)    QCUT    max X(q) W(low)/X(q) W(high)/X(q)  e(spline) 
   0     10    11.813    79.467    0.48E-04    0.30E-04    0.67E-06
   0     10    11.813    66.151    0.47E-04    0.30E-04    0.67E-06
   1     10    11.813    20.169    0.11E-03    0.17E-03    0.11E-05
   1     10    11.813    14.454    0.11E-03    0.17E-03    0.11E-05
 Optimization of the real space projectors (new method)

 maximal supplied QI-value         = 25.13
 optimisation between [QCUT,QGAM] = [ 11.81, 23.88] = [ 39.08,159.64] Ry 
 Optimized for a Real-space Cutoff    1.18 Angstroem

   l    n(q)    QCUT    max X(q) W(low)/X(q) W(high)/X(q)  e(spline) 
   0      8    11.813   115.676    0.10E-03    0.16E-03    0.35E-06
   0      8    11.813    87.132    0.10E-03    0.16E-03    0.35E-06
   1      8    11.813     4.429    0.16E-03    0.13E-04    0.22E-06
   1      8    11.813     2.733    0.13E-03    0.10E-04    0.18E-06
 Optimization of the real space projectors (new method)

 maximal supplied QI-value         = 24.76
 optimisation between [QCUT,QGAM] = [ 11.88, 24.01] = [ 39.54,161.47] Ry 
 Optimized for a Real-space Cutoff    1.18 Angstroem

   l    n(q)    QCUT    max X(q) W(low)/X(q) W(high)/X(q)  e(spline) 
   0      8    11.883    14.049    0.56E-04    0.86E-04    0.22E-06
   0      8    11.883     8.945    0.81E-04    0.11E-03    0.30E-06
   1      8    11.883     7.086    0.16E-03    0.15E-04    0.31E-06
   1      8    11.883     6.747    0.15E-03    0.14E-04    0.28E-06
 Optimization of the real space projectors (new method)

 maximal supplied QI-value         = 24.76
 optimisation between [QCUT,QGAM] = [ 11.88, 24.01] = [ 39.54,161.47] Ry 
 Optimized for a Real-space Cutoff    1.18 Angstroem

   l    n(q)    QCUT    max X(q) W(low)/X(q) W(high)/X(q)  e(spline) 
   0      8    11.883    20.381    0.86E-04    0.11E-03    0.31E-06
   0      8    11.883    15.268    0.94E-04    0.12E-03    0.33E-06
   1      8    11.883     5.964    0.19E-03    0.18E-04    0.33E-06
   1      8    11.883     5.382    0.17E-03    0.20E-04    0.29E-06
  PAW_PBE B 06Sep2000                   :
 energy of atom  1       EATOM=  -71.1703
 kinetic energy error for atom=    0.0009 (will be added to EATOM!!)
  PAW_PBE N 08Apr2002                   :
 energy of atom  2       EATOM= -264.5486
 kinetic energy error for atom=    0.0116 (will be added to EATOM!!)
  PAW_PBE C 08Apr2002                   :
 energy of atom  3       EATOM= -147.1560
 kinetic energy error for atom=    0.0066 (will be added to EATOM!!)
  PAW_PBE F 08Apr2002                   :
 energy of atom  4       EATOM= -659.6475
 kinetic energy error for atom=    0.0296 (will be added to EATOM!!)
  PAW_PBE O 08Apr2002                   :
 energy of atom  5       EATOM= -432.3788
 kinetic energy error for atom=    0.0194 (will be added to EATOM!!)
 
 
 POSCAR: B N C F O                               
  positions in direct lattice
  velocities in cartesian coordinates

 METAGGA = SCAN     LMAXTAU =  6    LMIXTAU =  F

 exchange correlation table for  LEXCH =        8
   RHO(1)=    0.500       N(1)  =     2000
   RHO(2)=  100.500       N(2)  =     4000
 


--------------------------------------------------------------------------------------------------------


 ion  position               nearest neighbor table
   1  0.167  0.083  0.500-  20 1.45  17 1.45  21 1.45
   2  0.167  0.333  0.500-  17 1.45  18 1.45  22 1.45
   3  0.167  0.583  0.500-  19 1.45  18 1.45  23 1.45
   4  0.167  0.833  0.500-  20 1.45  19 1.45  24 1.45
   5  0.417  0.083  0.500-  24 1.45  25 1.45  21 1.45
   6  0.417  0.333  0.500-  21 1.45  26 1.45  22 1.45
   7  0.417  0.583  0.500-  23 1.45  22 1.45  27 1.45
   8  0.417  0.833  0.500-  24 1.45  28 1.45  23 1.45
   9  0.667  0.083  0.500-  29 1.45  25 1.45  28 1.45
  10  0.667  0.333  0.500-  30 1.45  25 1.45  26 1.45
  11  0.667  0.583  0.500-  31 1.45  26 1.45  27 1.45
  12  0.667  0.833  0.500-  32 1.45  28 1.45  27 1.45
  13  0.917  0.083  0.500-  29 1.45  17 1.45  32 1.45
  14  0.917  0.333  0.500-  29 1.45  18 1.45  30 1.45
  15  0.917  0.583  0.500-  19 1.45  30 1.45  31 1.45
  16  0.917  0.833  0.500-  20 1.45  32 1.45  31 1.45
  17  0.083  0.167  0.500-   2 1.45   1 1.45  13 1.45
  18  0.083  0.417  0.500-   2 1.45   3 1.45  14 1.45
  19  0.083  0.667  0.500-  15 1.45   3 1.45   4 1.45
  20  0.083  0.917  0.500-  16 1.45   1 1.45   4 1.45
  21  0.333  0.167  0.500-   6 1.45   5 1.45   1 1.45
  22  0.333  0.417  0.500-   7 1.45   6 1.45   2 1.45
  23  0.333  0.667  0.500-   7 1.45   8 1.45   3 1.45
  24  0.333  0.917  0.500-   8 1.45   5 1.45   4 1.45
  25  0.583  0.167  0.500-  10 1.45   5 1.45   9 1.45
  26  0.583  0.417  0.500-  11 1.45   6 1.45  10 1.45
  27  0.583  0.667  0.500-   7 1.45  11 1.45  12 1.45
  28  0.583  0.917  0.500-  12 1.45   8 1.45   9 1.45
  29  0.833  0.167  0.500-   9 1.45  13 1.45  14 1.45
  30  0.833  0.417  0.500-  10 1.45  15 1.45  14 1.45
  31  0.833  0.667  0.500-  11 1.45  16 1.45  15 1.45
  32  0.833  0.917  0.500-  12 1.45  16 1.45  13 1.45
  33  0.559  0.470  0.673-  36 1.34  37 1.34  38 1.34  34 1.54
  34  0.531  0.474  0.630-  40 1.36  39 1.36  33 1.54  35 1.55
  35  0.514  0.613  0.618-  42 1.25  41 1.25  34 1.55
  36  0.691  0.594  0.683-  33 1.34
  37  0.566  0.344  0.682-  33 1.34
  38  0.444  0.468  0.693-  33 1.34
  39  0.651  0.476  0.612-  34 1.36
  40  0.401  0.340  0.621-  34 1.36
  41  0.635  0.736  0.611-  35 1.25
  42  0.382  0.593  0.615-  35 1.25
 

IMPORTANT INFORMATION: All symmetrisations will be switched off!
NOSYMM: (Re-)initialisation of all symmetry stuff for point group C_1.

 
 
 KPOINTS: K-Point Grid                            

Automatic generation of k-mesh.
Space group operators:
 irot       det(A)        alpha          n_x          n_y          n_z        tau_x        tau_y        tau_z
    1     1.000000     0.000000     1.000000     0.000000     0.000000     0.000000     0.000000     0.000000
 
 Subroutine IBZKPT returns following result:
 ===========================================
 
 Found     24 irreducible k-points:
 
 Following reciprocal coordinates:
            Coordinates               Weight
  0.125000  0.125000  0.000000     16.000000
  0.250000 -0.125000  0.000000     16.000000
  0.125000 -0.250000  0.000000     16.000000
  0.375000  0.125000  0.000000     16.000000
  0.500000 -0.375000  0.000000     16.000000
  0.125000  0.500000  0.000000     16.000000
 -0.125000 -0.375000  0.000000     16.000000
  0.375000  0.500000  0.000000     16.000000
  0.500000 -0.125000  0.000000     16.000000
 -0.375000  0.125000  0.000000     16.000000
 -0.250000  0.375000  0.000000     16.000000
  0.125000  0.250000  0.000000     16.000000
 -0.125000  0.375000  0.000000     16.000000
 -0.375000  0.250000  0.000000     16.000000
 -0.250000 -0.125000  0.000000     16.000000
 -0.125000  0.125000  0.000000     16.000000
  0.000000  0.125000  0.000000     16.000000
  0.125000  0.000000  0.000000     16.000000
  0.375000  0.375000  0.000000     16.000000
 -0.250000 -0.375000  0.000000     16.000000
  0.375000  0.250000  0.000000     16.000000
 -0.375000  0.375000  0.000000     16.000000
  0.000000  0.375000  0.000000     16.000000
  0.375000  0.000000  0.000000     16.000000
 
 Following cartesian coordinates:
            Coordinates               Weight
  0.024879  0.000000  0.000000     16.000000
  0.012439 -0.021546  0.000000     16.000000
 -0.012439 -0.021546  0.000000     16.000000
  0.049758 -0.014364  0.000000     16.000000
  0.012439 -0.050273  0.000000     16.000000
  0.062197  0.021546  0.000000     16.000000
 -0.049758 -0.014364  0.000000     16.000000
  0.087076  0.007182  0.000000     16.000000
  0.037318 -0.035909  0.000000     16.000000
 -0.024879  0.028727  0.000000     16.000000
  0.012439  0.035909  0.000000     16.000000
  0.037318  0.007182  0.000000     16.000000
  0.024879  0.028727  0.000000     16.000000
 -0.012439  0.035909  0.000000     16.000000
 -0.037318  0.007182  0.000000     16.000000
  0.000000  0.014364  0.000000     16.000000
  0.012439  0.007182  0.000000     16.000000
  0.012439 -0.007182  0.000000     16.000000
  0.074636  0.000000  0.000000     16.000000
 -0.062197 -0.007182  0.000000     16.000000
  0.062197 -0.007182  0.000000     16.000000
  0.000000  0.043091  0.000000     16.000000
  0.037318  0.021546  0.000000     16.000000
  0.037318 -0.021546  0.000000     16.000000
 


--------------------------------------------------------------------------------------------------------




 Dimension of arrays:
   k-points           NKPTS =     24   k-points in BZ     NKDIM =     24   number of bands    NBANDS=    144
   number of dos      NEDOS =   1200   number of ions     NIONS =     42
   non local maximal  LDIM  =      4   non local SUM 2l+1 LMDIM =      8
   total plane-waves  NPLWV = ******
   max r-space proj   IRMAX =   6598   max aug-charges    IRDMAX=   8974
   dimension x,y,z NGX =    80 NGY =   80 NGZ =  270
   dimension x,y,z NGXF=   160 NGYF=  160 NGZF=  540
   support grid    NGXF=   160 NGYF=  160 NGZF=  540
   ions per type =              16  16   3   5   2
   NGX,Y,Z   is equivalent  to a cutoff of  13.24, 13.24, 12.78 a.u.
   NGXF,Y,Z  is equivalent  to a cutoff of  26.47, 26.47, 25.57 a.u.

 SYSTEM =  SiC                                     
 POSCAR =  B N C F O                               

 Startparameter for this run:
   NWRITE =      2    write-flag & timer
   PREC   = accura    normal or accurate (medium, high low for compatibility)
   ISTART =      1    job   : 0-new  1-cont  2-samecut
   ICHARG =      0    charge: 1-file 2-atom 10-const
   ISPIN  =      2    spin polarized calculation?
   LNONCOLLINEAR =      F non collinear calculations
   LSORBIT =      F    spin-orbit coupling
   INIWAV =      1    electr: 0-lowe 1-rand  2-diag
   LASPH  =      T    aspherical Exc in radial PAW
   METAGGA=      F    non-selfconsistent MetaGGA calc.

 Electronic Relaxation 1
   ENCUT  =  550.0 eV  40.42 Ry    6.36 a.u.  19.22 19.22 67.15*2*pi/ulx,y,z
   ENINI  =  550.0     initial cutoff
   ENAUG  =  644.9 eV  augmentation charge cutoff
   NELM   =    100;   NELMIN=  2; NELMDL=  0     # of ELM steps 
   EDIFF  = 0.1E-04   stopping-criterion for ELM
   LREAL  =      T    real-space projection
   NLSPLINE    = F    spline interpolate recip. space projectors
   LCOMPAT=      F    compatible to vasp.4.4
   GGA_COMPAT  = T    GGA compatible to vasp.4.4-vasp.4.6
   LMAXPAW     = -100 max onsite density
   LMAXMIX     =    2 max onsite mixed and CHGCAR
   VOSKOWN=      0    Vosko Wilk Nusair interpolation
   ROPT   =   -0.00025  -0.00025  -0.00025  -0.00025
   ROPT   =   -0.00025
 Ionic relaxation
   EDIFFG = -.2E-01   stopping-criterion for IOM
   NSW    =    500    number of steps for IOM
   NBLOCK =      1;   KBLOCK =    500    inner block; outer block 
   IBRION =      2    ionic relax: 0-MD 1-quasi-New 2-CG
   NFREE  =      1    steps in history (QN), initial steepest desc. (CG)
   ISIF   =      2    stress and relaxation
   IWAVPR =     11    prediction:  0-non 1-charg 2-wave 3-comb
   ISYM   =      0    0-nonsym 1-usesym 2-fastsym
   LCORR  =      T    Harris-Foulkes like correction to forces

   POTIM  = 0.5000    time-step for ionic-motion
   TEIN   =    0.0    initial temperature
   TEBEG  =    0.0;   TEEND  =   0.0 temperature during run
   SMASS  =  -3.00    Nose mass-parameter (am)
   estimated Nose-frequenzy (Omega)   =  0.10E-29 period in steps =****** mass=  -0.231E-26a.u.
   SCALEE = 1.0000    scale energy and forces
   NPACO  =    256;   APACO  = 16.0  distance and # of slots for P.C.
   PSTRESS=    0.0 pullay stress

  Mass of Ions in am
   POMASS =  10.81 14.00 12.01 19.00 16.00
  Ionic Valenz
   ZVAL   =   3.00  5.00  4.00  7.00  6.00
  Atomic Wigner-Seitz radii
   RWIGS  =  -1.00 -1.00 -1.00 -1.00 -1.00
  virtual crystal weights 
   VCA    =   1.00  1.00  1.00  1.00  1.00
   NELECT =     186.7000    total number of electrons
   NUPDOWN=      -1.0000    fix difference up-down

 DOS related values:
   EMIN   =  10.00;   EMAX   =-10.00  energy-range for DOS
   EFERMI =   0.00
   ISMEAR =     0;   SIGMA  =   0.05  broadening in eV -4-tet -1-fermi 0-gaus

 Electronic relaxation 2 (details)
   IALGO  =     68    algorithm
   LDIAG  =      T    sub-space diagonalisation (order eigenvalues)
   LSUBROT=      F    optimize rotation matrix (better conditioning)
   TURBO    =      0    0=normal 1=particle mesh
   IRESTART =      0    0=no restart 2=restart with 2 vectors
   NREBOOT  =      0    no. of reboots
   NMIN     =      0    reboot dimension
   EREF     =   0.00    reference energy to select bands
   IMIX   =      4    mixing-type and parameters
     AMIX     =   0.40;   BMIX     =  1.00
     AMIX_MAG =   1.60;   BMIX_MAG =  1.00
     AMIN     =   0.10
     WC   =   100.;   INIMIX=   1;  MIXPRE=   1;  MAXMIX= -45

 Intra band minimization:
   WEIMIN = 0.0010     energy-eigenvalue tresh-hold
   EBREAK =  0.17E-07  absolut break condition
   DEPER  =   0.30     relativ break condition  

   TIME   =   0.40     timestep for ELM

  volume/ion in A,a.u.               =      73.11       493.39
  Fermi-wavevector in a.u.,A,eV,Ry     =   0.643737  1.216486  5.638215  0.414397
  Thomas-Fermi vector in A             =   1.710835
 
 Write flags
   LWAVE        =      T    write WAVECAR
   LDOWNSAMPLE  =      F    k-point downsampling of WAVECAR
   LCHARG       =      F    write CHGCAR
   LVTOT        =      F    write LOCPOT, total local potential
   LVHAR        =      T    write LOCPOT, Hartree potential only
   LELF         =      F    write electronic localiz. function (ELF)
   LORBIT       =     11    0 simple, 1 ext, 2 COOP (PROOUT), +10 PAW based schemes


 Dipole corrections
   LMONO  =      F    monopole corrections only (constant potential shift)
   LDIPOL =      F    correct potential (dipole corrections)
   IDIPOL =      0    1-x, 2-y, 3-z, 4-all directions 
   EPSILON=  1.0000000 bulk dielectric constant

 Exchange correlation treatment:
   GGA     =    --    GGA type
   LEXCH   =     8    internal setting for exchange type
   VOSKOWN=      0    Vosko Wilk Nusair interpolation
   LHFCALC =     F    Hartree Fock is set to
   LHFONE  =     F    Hartree Fock one center treatment
   AEXX    =    0.0000 exact exchange contribution

 Linear response parameters
   LEPSILON=     F    determine dielectric tensor
   LRPA    =     F    only Hartree local field effects (RPA)
   LNABLA  =     F    use nabla operator in PAW spheres
   LVEL    =     F    velocity operator in full k-point grid
   LINTERFAST=   F  fast interpolation
   KINTER  =     0    interpolate to denser k-point grid
   CSHIFT  =0.1000    complex shift for real part using Kramers Kronig
   OMEGAMAX=  -1.0    maximum frequency
   DEG_THRESHOLD= 0.2000000E-02 threshold for treating states as degnerate
   RTIME   =   -0.100 relaxation time in fs
  (WPLASMAI=    0.000 imaginary part of plasma frequency in eV, 0.658/RTIME)
   DFIELD  = 0.0000000 0.0000000 0.0000000 field for delta impulse in time
 
 Orbital magnetization related:
   ORBITALMAG=     F  switch on orbital magnetization
   LCHIMAG   =     F  perturbation theory with respect to B field
   DQ        =  0.001000  dq finite difference perturbation B field
   LLRAUG    =     F  two centre corrections for induced B field

 Solvation model:
   LSOL    =     T         switch on solvation model
   EB_K    = 78.400000     relative permittivity of the bulk solvent
   SIGMA_K =  0.600000     width of the dielectric cavity
   NC_K    =  0.002500     cutoff charge density
   TAU     =  0.000000     cavity surface tension
   LAMBDA_D_K    =  3.040000     Debye length in Angstroms
   LRHOB     =     F     write boundcharge  density
   LRHOION     =     F     write ioniccharge density



--------------------------------------------------------------------------------------------------------


 conjugate gradient relaxation of ions
   using selective dynamics as specified on POSCAR
 charge density and potential will be updated during run
 spin polarized calculation
 RMM-DIIS sequential band-by-band and
  variant of blocked Davidson during initial phase
 perform sub-space diagonalisation
    before iterative eigenvector-optimisation
 modified Broyden-mixing scheme, WC =      100.0
 initial mixing is a Kerker type mixing with AMIX =  0.4000 and BMIX =      1.0000
 Hartree-type preconditioning will be used
 using additional bands           50
 real space projection scheme for non local part
 use partial core corrections
 calculate Harris-corrections to forces 
   (improved forces if not selfconsistent)
 use gradient corrections 
 use of overlap-Matrix (Vanderbilt PP)
 Gauss-broadening in eV      SIGMA  =   0.05


--------------------------------------------------------------------------------------------------------


  energy-cutoff  :      550.00
  volume of cell :     3070.74
      direct lattice vectors                 reciprocal lattice vectors
     5.024366704 -8.702497373  0.000000000     0.099515029 -0.057454772  0.000000000
     5.024366704  8.702497373  0.000000000     0.099515029  0.057454772  0.000000000
     0.000000000  0.000000000 35.114664386     0.000000000  0.000000000  0.028478131

  length of vectors
    10.048767154 10.048767154 35.114664386     0.114909929  0.114909929  0.028478131


 
 old parameters found on file WAVECAR:
  energy-cutoff  :      550.00
  volume of cell :     3070.74
      direct lattice vectors                 reciprocal lattice vectors
     5.024366704 -8.702497373  0.000000000     0.099515029 -0.057454772  0.000000000
     5.024366704  8.702497373  0.000000000     0.099515029  0.057454772  0.000000000
     0.000000000  0.000000000 35.114664386     0.000000000  0.000000000  0.028478131

  length of vectors

 
 k-points in units of 2pi/SCALE and weight: K-Point Grid                            
   0.02487876  0.00000000  0.00000000       0.042
   0.01243938 -0.02154554  0.00000000       0.042
  -0.01243938 -0.02154554  0.00000000       0.042
   0.04975751 -0.01436369  0.00000000       0.042
   0.01243938 -0.05027293  0.00000000       0.042
   0.06219689  0.02154554  0.00000000       0.042
  -0.04975751 -0.01436369  0.00000000       0.042
   0.08707565  0.00718185  0.00000000       0.042
   0.03731814 -0.03590923  0.00000000       0.042
  -0.02487876  0.02872739  0.00000000       0.042
   0.01243938  0.03590923  0.00000000       0.042
   0.03731814  0.00718185  0.00000000       0.042
   0.02487876  0.02872739  0.00000000       0.042
  -0.01243938  0.03590923  0.00000000       0.042
  -0.03731814  0.00718185  0.00000000       0.042
   0.00000000  0.01436369  0.00000000       0.042
   0.01243938  0.00718185  0.00000000       0.042
   0.01243938 -0.00718185  0.00000000       0.042
   0.07463627  0.00000000  0.00000000       0.042
  -0.06219689 -0.00718185  0.00000000       0.042
   0.06219689 -0.00718185  0.00000000       0.042
   0.00000000  0.04309108  0.00000000       0.042
   0.03731814  0.02154554  0.00000000       0.042
   0.03731814 -0.02154554  0.00000000       0.042
 
 k-points in reciprocal lattice and weights: K-Point Grid                            
   0.12500000  0.12500000  0.00000000       0.042
   0.25000000 -0.12500000  0.00000000       0.042
   0.12500000 -0.25000000  0.00000000       0.042
   0.37500000  0.12500000  0.00000000       0.042
   0.50000000 -0.37500000  0.00000000       0.042
   0.12500000  0.50000000  0.00000000       0.042
  -0.12500000 -0.37500000  0.00000000       0.042
   0.37500000  0.50000000  0.00000000       0.042
   0.50000000 -0.12500000  0.00000000       0.042
  -0.37500000  0.12500000  0.00000000       0.042
  -0.25000000  0.37500000  0.00000000       0.042
   0.12500000  0.25000000  0.00000000       0.042
  -0.12500000  0.37500000  0.00000000       0.042
  -0.37500000  0.25000000  0.00000000       0.042
  -0.25000000 -0.12500000  0.00000000       0.042
  -0.12500000  0.12500000  0.00000000       0.042
   0.00000000  0.12500000  0.00000000       0.042
   0.12500000  0.00000000  0.00000000       0.042
   0.37500000  0.37500000  0.00000000       0.042
  -0.25000000 -0.37500000  0.00000000       0.042
   0.37500000  0.25000000  0.00000000       0.042
  -0.37500000  0.37500000  0.00000000       0.042
   0.00000000  0.37500000  0.00000000       0.042
   0.37500000  0.00000000  0.00000000       0.042
 
 position of ions in fractional coordinates (direct lattice) 
   0.16663877  0.08333262  0.50005542
   0.16662418  0.33332880  0.50006919
   0.16663751  0.58333979  0.50006062
   0.16665145  0.83334329  0.50004282
   0.41665037  0.08333207  0.50005752
   0.41663608  0.33331354  0.50006596
   0.41662912  0.58335155  0.50007691
   0.41665177  0.83335324  0.50006955
   0.66666334  0.08334771  0.50007304
   0.66666421  0.33332874  0.50009096
   0.66667832  0.58335229  0.50009975
   0.66666441  0.83336831  0.50011549
   0.91664654  0.08334665  0.50007129
   0.91664896  0.33333413  0.50006688
   0.91666214  0.58334089  0.50006918
   0.91666121  0.83335279  0.50007733
   0.08331681  0.16667662  0.50005461
   0.08331968  0.41667654  0.50005411
   0.08331807  0.66667593  0.50004022
   0.08331660  0.91667505  0.50004044
   0.33331652  0.16667450  0.50005469
   0.33332850  0.41668387  0.50008808
   0.33331793  0.66667700  0.50006253
   0.33331883  0.91667536  0.50003627
   0.58331844  0.16667629  0.50006612
   0.58331240  0.41668145  0.50012012
   0.58330312  0.66665781  0.50015243
   0.58331873  0.91666956  0.50007875
   0.83331769  0.16667555  0.50006008
   0.83331480  0.41667527  0.50007224
   0.83331464  0.66667430  0.50008298
   0.83330895  0.91666933  0.50008240
   0.55878070  0.47024601  0.67311826
   0.53078809  0.47415827  0.63017026
   0.51436933  0.61252670  0.61751904
   0.69135385  0.59435949  0.68345793
   0.56635233  0.34438802  0.68217063
   0.44350400  0.46790855  0.69302789
   0.65081537  0.47572794  0.61168886
   0.40121349  0.34000670  0.62142610
   0.63502372  0.73643371  0.61138463
   0.38188065  0.59253617  0.61461368
 
 position of ions in cartesian coordinates  (Angst):
   1.25594792 -0.72497154 17.55927840
   2.51194712  1.45074649 17.55976170
   3.76816097  3.62635057 17.55946096
   5.02434027  5.80188403 17.55883578
   2.51209514 -2.90070165 17.55935203
   3.76802190 -0.72511411 17.55964836
   5.02426959  1.45090152 17.56003300
   6.28048354  3.62634349 17.55977432
   3.76833055 -5.07630280 17.55989688
   5.02433131 -2.90085103 17.56052619
   6.28061219 -0.72514455 17.56083501
   7.53671444  1.45074024 17.56138770
   5.02433251 -7.25179010 17.55983565
   6.28037345 -5.07629580 17.55968049
   7.53656527 -2.90072735 17.55976133
   8.79271209 -0.72499128 17.56004748
   1.25605865  0.72543854 17.55924991
   2.51216436  2.90103728 17.55923223
   3.76824489  5.07667024 17.55874462
   5.02432476  7.25229979 17.55875240
   2.51213825 -1.45020168 17.55925261
   3.76833721  0.72539992 17.56042507
   5.02434121  2.90105642 17.55952778
   6.28042921  5.07665864 17.55860582
   3.76824851 -3.62582722 17.55965382
   5.02433582 -1.45010537 17.56155028
   6.28026211  0.72539395 17.56268457
   7.53649120  2.90098476 17.56009747
   5.02433277 -5.80145150 17.55944185
   6.28040848 -3.62580438 17.55986873
   7.53649446 -1.45018713 17.56024614
   8.79253261  0.72544357 17.56022553
   5.17020755 -0.77047289 23.63632188
   5.04921907 -0.49282086 22.12821717
   5.66193889  0.85421424 21.68397367
   6.45989532 -0.84409320 23.99939597
   4.57589350 -1.93164388 23.95419265
   4.57927090  0.21238052 24.33544193
   5.66016671 -1.52369793 21.47924890
   3.72416205 -0.53265191 21.82116890
   6.89070503  0.88252014 21.46856602
   4.89582741  1.83322908 21.58195293
 


--------------------------------------------------------------------------------------------------------


 k-point  1 :   0.1250 0.1250 0.0000  plane waves:   89921
 k-point  2 :   0.2500-0.1250 0.0000  plane waves:   89921
 k-point  3 :   0.1250-0.2500 0.0000  plane waves:   89921
 k-point  4 :   0.3750 0.1250 0.0000  plane waves:   89970
 k-point  5 :   0.5000-0.3750 0.0000  plane waves:   89970
 k-point  6 :   0.1250 0.5000 0.0000  plane waves:   89970
 k-point  7 :  -0.1250-0.3750 0.0000  plane waves:   89970
 k-point  8 :   0.3750 0.5000 0.0000  plane waves:   89970
 k-point  9 :   0.5000-0.1250 0.0000  plane waves:   89970
 k-point 10 :  -0.3750 0.1250 0.0000  plane waves:   89943
 k-point 11 :  -0.2500 0.3750 0.0000  plane waves:   89943
 k-point 12 :   0.1250 0.2500 0.0000  plane waves:   89943
 k-point 13 :  -0.1250 0.3750 0.0000  plane waves:   89943
 k-point 14 :  -0.3750 0.2500 0.0000  plane waves:   89943
 k-point 15 :  -0.2500-0.1250 0.0000  plane waves:   89943
 k-point 16 :  -0.1250 0.1250 0.0000  plane waves:   89893
 k-point 17 :   0.0000 0.1250 0.0000  plane waves:   89893
 k-point 18 :   0.1250 0.0000 0.0000  plane waves:   89893
 k-point 19 :   0.3750 0.3750 0.0000  plane waves:   89957
 k-point 20 :  -0.2500-0.3750 0.0000  plane waves:   89957
 k-point 21 :   0.3750 0.2500 0.0000  plane waves:   89957
 k-point 22 :  -0.3750 0.3750 0.0000  plane waves:   89980
 k-point 23 :   0.0000 0.3750 0.0000  plane waves:   89980
 k-point 24 :   0.3750 0.0000 0.0000  plane waves:   89980

 maximum and minimum number of plane-waves per node :     89980    89893

 maximum number of plane-waves:     89980
 maximum index in each direction: 
   IXMAX=   19   IYMAX=   19   IZMAX=   67
   IXMIN=  -19   IYMIN=  -19   IZMIN=  -67


 serial   3D FFT for wavefunctions
 parallel 3D FFT for charge:
    minimum data exchange during FFTs selected (reduces bandwidth)


 total amount of memory used by VASP MPI-rank0  1323186. kBytes
=======================================================================

   base      :      30000. kBytes
   nonlr-proj:      18700. kBytes
   fftplans  :      47149. kBytes
   grid      :     394654. kBytes
   one-center:        258. kBytes
   wavefun   :     832425. kBytes
 
     INWAV:  cpu time   23.3815: real time   24.1114
 Broyden mixing: mesh for mixing (old mesh)
   NGX = 39   NGY = 39   NGZ =135
  (NGX  =160   NGY  =160   NGZ  =540)
  gives a total of 205335 points

 charge density for first step will be calculated from the start-wavefunctions


--------------------------------------------------------------------------------------------------------


 Maximum index for non-local projection operator         6375
 Maximum index for augmentation-charges          735 (set IRDMAX)


--------------------------------------------------------------------------------------------------------


 initial charge from wavefunction
 First call to EWALD:  gamma=   0.122
 Maximum number of real-space cells 4x 4x 1
 Maximum number of reciprocal cells 2x 2x 6

    FEWALD:  cpu time    0.0459: real time    0.0230


--------------------------------------- Iteration      1(   1)  ---------------------------------------


    POTLOK:  cpu time   55.9001: real time   55.8604
    SETDIJ:  cpu time    0.8497: real time    0.5144
     EDDAV:  cpu time  276.9331: real time  153.5447
       DOS:  cpu time    0.0063: real time    0.0031
    CHARGE:  cpu time   33.1946: real time   32.3171
    MIXING:  cpu time    0.1349: real time    0.0676
    --------------------------------------------
      LOOP:  cpu time  367.0189: real time  242.3075

 eigenvalue-minimisations  : 10632
 total energy-change (2. order) :-0.3849363E+03  (-0.1399314E-05)
 number of electron     186.6999998 magnetization      -0.4379893
 augmentation part       11.5045526 magnetization      -0.1156488

 Broyden mixing:
  rms(total) = 0.64737E-02    rms(broyden)= 0.64674E-02
  rms(prec ) = 0.67233E-02
  weight for this iteration     100.00

 Free energy of the ion-electron system (eV)
  ---------------------------------------------------
  alpha Z        PSCENC =        57.55240194
  Ewald energy   TEWEN  =     62187.66271298
  -Hartree energ DENC   =    -70517.55497082
  -exchange      EXHF   =         0.00000000
  -V(xc)+E(xc)   XCENC  =       895.18213234
  PAW double counting   =     20931.56600553   -21027.88746665
  entropy T*S    EENTRO =        -0.02049502
  eigenvalues    EBANDS =     -2860.10646710
  atomic energy  EATOM  =      9975.55785330
  Solvation  Ediel_sol  =       -26.88801262
  ---------------------------------------------------
  free energy    TOTEN  =      -384.93630611 eV

  energy without entropy =     -384.91581110  energy(sigma->0) =     -384.92605861


--------------------------------------------------------------------------------------------------------




--------------------------------------- Iteration      1(   2)  ---------------------------------------


    POTLOK:  cpu time   41.3992: real time   41.4789
    SETDIJ:  cpu time    0.6320: real time    0.4074
    EDDIAG:  cpu time   55.8555: real time   40.6306
  RMM-DIIS:  cpu time  342.6797: real time  209.7024
    ORTHCH:  cpu time    1.5625: real time    0.7843
       DOS:  cpu time    0.0050: real time    0.0025
    CHARGE:  cpu time   33.1644: real time   32.2919
    MIXING:  cpu time    0.1324: real time    0.0664
    --------------------------------------------
      LOOP:  cpu time  475.4307: real time  325.3643

 eigenvalue-minimisations  : 11190
 total energy-change (2. order) : 0.5033314E-03  (-0.3508858E-04)
 number of electron     186.6999998 magnetization      -0.4382008
 augmentation part       11.5017560 magnetization      -0.0965813

 Broyden mixing:
  rms(total) = 0.17873E-01    rms(broyden)= 0.17858E-01
  rms(prec ) = 0.18315E-01
  weight for this iteration     100.00

 eigenvalues of (default mixing * dielectric matrix)
  average eigenvalue GAMMA=   0.2513
  0.2513

 Free energy of the ion-electron system (eV)
  ---------------------------------------------------
  alpha Z        PSCENC =        57.55240194
  Ewald energy   TEWEN  =     62187.66271298
  -Hartree energ DENC   =    -70517.55265995
  -exchange      EXHF   =         0.00000000
  -V(xc)+E(xc)   XCENC  =       895.18834073
  PAW double counting   =     20931.53800353   -21027.85941527
  entropy T*S    EENTRO =        -0.01987486
  eigenvalues    EBANDS =     -2860.09930011
  atomic energy  EATOM  =      9975.55785330
  Solvation  Ediel_sol  =       -26.90386506
  ---------------------------------------------------
  free energy    TOTEN  =      -384.93580278 eV

  energy without entropy =     -384.91592792  energy(sigma->0) =     -384.92586535


--------------------------------------------------------------------------------------------------------




--------------------------------------- Iteration      1(   3)  ---------------------------------------


    POTLOK:  cpu time   41.8604: real time   41.9442
    SETDIJ:  cpu time    0.5757: real time    0.3791
    EDDIAG:  cpu time   55.8324: real time   40.6188
  RMM-DIIS:  cpu time  344.9804: real time  211.4249
    ORTHCH:  cpu time    1.5555: real time    0.7807
       DOS:  cpu time    0.0272: real time    0.0137
    CHARGE:  cpu time   33.3715: real time   32.5272
    MIXING:  cpu time    0.1325: real time    0.0664
    --------------------------------------------
      LOOP:  cpu time  478.3356: real time  327.7550

 eigenvalue-minimisations  : 11393
 total energy-change (2. order) :-0.3001938E-03  (-0.3648756E-04)
 number of electron     186.6999998 magnetization      -0.4382494
 augmentation part       11.5029812 magnetization      -0.1050129

 Broyden mixing:
  rms(total) = 0.59041E-02    rms(broyden)= 0.59012E-02
  rms(prec ) = 0.60844E-02
  weight for this iteration     100.00

 eigenvalues of (default mixing * dielectric matrix)
  average eigenvalue GAMMA=   0.3239
  0.3239  0.3239

 Free energy of the ion-electron system (eV)
  ---------------------------------------------------
  alpha Z        PSCENC =        57.55240194
  Ewald energy   TEWEN  =     62187.66271298
  -Hartree energ DENC   =    -70517.54347759
  -exchange      EXHF   =         0.00000000
  -V(xc)+E(xc)   XCENC  =       895.17667926
  PAW double counting   =     20931.53021324   -21027.85183025
  entropy T*S    EENTRO =        -0.02014709
  eigenvalues    EBANDS =     -2860.10403115
  atomic energy  EATOM  =      9975.55785330
  Solvation  Ediel_sol  =       -26.89647762
  ---------------------------------------------------
  free energy    TOTEN  =      -384.93610298 eV

  energy without entropy =     -384.91595589  energy(sigma->0) =     -384.92602943


--------------------------------------------------------------------------------------------------------




--------------------------------------- Iteration      1(   4)  ---------------------------------------


    POTLOK:  cpu time   39.2360: real time   39.3054
    SETDIJ:  cpu time    0.7268: real time    0.4543
    EDDIAG:  cpu time   55.8842: real time   40.6537
  RMM-DIIS:  cpu time  323.9972: real time  197.8222
    ORTHCH:  cpu time    1.5573: real time    0.7813
       DOS:  cpu time    0.0299: real time    0.0150
    CHARGE:  cpu time   33.1237: real time   32.2816
    MIXING:  cpu time    0.1330: real time    0.0667
    --------------------------------------------
      LOOP:  cpu time  454.6883: real time  311.3802

 eigenvalue-minimisations  : 10367
 total energy-change (2. order) :-0.6193166E-04  (-0.7322578E-05)
 number of electron     186.6999998 magnetization      -0.4382055
 augmentation part       11.5037746 magnetization      -0.1103160

 Broyden mixing:
  rms(total) = 0.34069E-03    rms(broyden)= 0.21816E-03
  rms(prec ) = 0.26131E-03
  weight for this iteration     100.00
  WARNING: grid for Broyden might be to small

 eigenvalues of (default mixing * dielectric matrix)
  average eigenvalue GAMMA=   0.6419
  1.1960  0.3648  0.3648

 Free energy of the ion-electron system (eV)
  ---------------------------------------------------
  alpha Z        PSCENC =        57.55240194
  Ewald energy   TEWEN  =     62187.66271298
  -Hartree energ DENC   =    -70517.54243641
  -exchange      EXHF   =         0.00000000
  -V(xc)+E(xc)   XCENC  =       895.18033939
  PAW double counting   =     20931.54388393   -21027.86536682
  entropy T*S    EENTRO =        -0.02032036
  eigenvalues    EBANDS =     -2860.11002392
  atomic energy  EATOM  =      9975.55785330
  Solvation  Ediel_sol  =       -26.89520892
  ---------------------------------------------------
  free energy    TOTEN  =      -384.93616491 eV

  energy without entropy =     -384.91584455  energy(sigma->0) =     -384.92600473


--------------------------------------------------------------------------------------------------------




--------------------------------------- Iteration      1(   5)  ---------------------------------------


    POTLOK:  cpu time   38.6856: real time   38.7663
    SETDIJ:  cpu time    0.8991: real time    0.5413
    EDDIAG:  cpu time   55.8464: real time   40.6314
  RMM-DIIS:  cpu time  321.6072: real time  196.4347
    ORTHCH:  cpu time    1.5583: real time    0.7820
       DOS:  cpu time    0.0341: real time    0.0171
    CHARGE:  cpu time   33.1891: real time   32.3143
    MIXING:  cpu time    0.1390: real time    0.0696
    --------------------------------------------
      LOOP:  cpu time  451.9588: real time  309.5567

 eigenvalue-minimisations  : 10347
 total energy-change (2. order) :-0.8516981E-04  (-0.9339577E-05)
 number of electron     186.6999998 magnetization      -0.4382230
 augmentation part       11.5035925 magnetization      -0.1087549

 Broyden mixing:
  rms(total) = 0.11163E-02    rms(broyden)= 0.11161E-02
  rms(prec ) = 0.11526E-02
  weight for this iteration     100.00

 eigenvalues of (default mixing * dielectric matrix)
  average eigenvalue GAMMA=   0.5540
  0.7600  0.7600  0.3480  0.3480

 Free energy of the ion-electron system (eV)
  ---------------------------------------------------
  alpha Z        PSCENC =        57.55240194
  Ewald energy   TEWEN  =     62187.66271298
  -Hartree energ DENC   =    -70517.53681306
  -exchange      EXHF   =         0.00000000
  -V(xc)+E(xc)   XCENC  =       895.18307953
  PAW double counting   =     20931.54404138   -21027.86553364
  entropy T*S    EENTRO =        -0.02026964
  eigenvalues    EBANDS =     -2860.11410995
  atomic energy  EATOM  =      9975.55785330
  Solvation  Ediel_sol  =       -26.89961292
  ---------------------------------------------------
  free energy    TOTEN  =      -384.93625008 eV

  energy without entropy =     -384.91598044  energy(sigma->0) =     -384.92611526


--------------------------------------------------------------------------------------------------------




--------------------------------------- Iteration      1(   6)  ---------------------------------------


    POTLOK:  cpu time   35.9021: real time   35.9806
    SETDIJ:  cpu time    0.5745: real time    0.3779
    EDDIAG:  cpu time   55.8935: real time   40.6540
  RMM-DIIS:  cpu time  299.9992: real time  184.4576
    ORTHCH:  cpu time    1.5588: real time    0.7820
       DOS:  cpu time    0.0247: real time    0.0124
    CHARGE:  cpu time   33.1879: real time   32.3482
    MIXING:  cpu time    0.1609: real time    0.0839
    --------------------------------------------
      LOOP:  cpu time  427.3014: real time  294.6966

 eigenvalue-minimisations  :  9388
 total energy-change (2. order) :-0.1044789E-04  (-0.5210897E-06)
 number of electron     186.6999998 magnetization      -0.4382252
 augmentation part       11.5036570 magnetization      -0.1092758

 Broyden mixing:
  rms(total) = 0.53559E-03    rms(broyden)= 0.53521E-03
  rms(prec ) = 0.55045E-03
  weight for this iteration     100.00

 eigenvalues of (default mixing * dielectric matrix)
  average eigenvalue GAMMA=   0.5545
  0.7910  0.7910  0.3538  0.3538  0.4829

 Free energy of the ion-electron system (eV)
  ---------------------------------------------------
  alpha Z        PSCENC =        57.55240194
  Ewald energy   TEWEN  =     62187.66271298
  -Hartree energ DENC   =    -70517.53701930
  -exchange      EXHF   =         0.00000000
  -V(xc)+E(xc)   XCENC  =       895.18241923
  PAW double counting   =     20931.54657547   -21027.86807922
  entropy T*S    EENTRO =        -0.02028629
  eigenvalues    EBANDS =     -2860.11436657
  atomic energy  EATOM  =      9975.55785330
  Solvation  Ediel_sol  =       -26.89847207
  ---------------------------------------------------
  free energy    TOTEN  =      -384.93626053 eV

  energy without entropy =     -384.91597423  energy(sigma->0) =     -384.92611738


--------------------------------------------------------------------------------------------------------




--------------------------------------- Iteration      1(   7)  ---------------------------------------


    POTLOK:  cpu time   34.8998: real time   34.9677
    SETDIJ:  cpu time    0.8509: real time    0.5168
    EDDIAG:  cpu time   55.8034: real time   40.6496
  RMM-DIIS:  cpu time  302.1640: real time  184.7531
    ORTHCH:  cpu time    1.5613: real time    0.7833
       DOS:  cpu time    0.0183: real time    0.0091
    --------------------------------------------
      LOOP:  cpu time  395.2975: real time  261.6796

 eigenvalue-minimisations  :  9396
 total energy-change (2. order) :-0.6974749E-05  (-0.4121457E-06)
 number of electron     186.6999998 magnetization      -0.4382252
 augmentation part       11.5036570 magnetization      -0.1092758

 Free energy of the ion-electron system (eV)
  ---------------------------------------------------
  alpha Z        PSCENC =        57.55240194
  Ewald energy   TEWEN  =     62187.66271298
  -Hartree energ DENC   =    -70517.53588276
  -exchange      EXHF   =         0.00000000
  -V(xc)+E(xc)   XCENC  =       895.18254222
  PAW double counting   =     20931.54741930   -21027.86893328
  entropy T*S    EENTRO =        -0.02028439
  eigenvalues    EBANDS =     -2860.11580794
  atomic energy  EATOM  =      9975.55785330
  Solvation  Ediel_sol  =       -26.89828887
  ---------------------------------------------------
  free energy    TOTEN  =      -384.93626750 eV

  energy without entropy =     -384.91598311  energy(sigma->0) =     -384.92612531


--------------------------------------------------------------------------------------------------------




 average (electrostatic) potential at core
  the test charge radii are     0.7672  0.7089  0.6991  0.7167  0.7215
  (the norm of the test charge is              1.0000)
       1 -39.2477       2 -39.2499       3 -39.2475       4 -39.2460       5 -39.2479
       6 -39.2536       7 -39.2531       8 -39.2476       9 -39.2470      10 -39.2506
      11 -39.2537      12 -39.2500      13 -39.2467      14 -39.2469      15 -39.2481
      16 -39.2480      17 -76.8662      18 -76.8664      19 -76.8646      20 -76.8647
      21 -76.8687      22 -76.8748      23 -76.8694      24 -76.8646      25 -76.8670
      26 -76.8752      27 -76.8761      28 -76.8672      29 -76.8639      30 -76.8673
      31 -76.8694      32 -76.8669      33 -67.6348      34 -65.9813      35 -64.5798
      36 -92.1034      37 -92.0772      38 -92.1076      39 -91.7162      40 -91.7180
      41 -84.9545      42 -84.9526
 
 
 
 E-fermi :  -6.9644     XC(G=0):  -1.6079     alpha+bet : -1.2823


 spin component 1

 k-point     1 :       0.1250    0.1250    0.0000
  band No.  band energies     occupation 
      1     -35.8439      1.00000
      2     -34.4494      1.00000
      3     -33.5209      1.00000
      4     -33.4514      1.00000
      5     -32.9224      1.00000
      6     -29.0925      1.00000
      7     -26.6306      1.00000
      8     -25.4128      1.00000
      9     -24.6607      1.00000
     10     -24.6579      1.00000
     11     -24.2326      1.00000
     12     -24.2324      1.00000
     13     -23.8336      1.00000
     14     -23.8309      1.00000
     15     -22.9879      1.00000
     16     -22.6966      1.00000
     17     -22.6949      1.00000
     18     -22.4552      1.00000
     19     -22.4551      1.00000
     20     -22.3057      1.00000
     21     -22.2301      1.00000
     22     -22.2283      1.00000
     23     -22.0393      1.00000
     24     -21.1896      1.00000
     25     -18.4761      1.00000
     26     -16.7111      1.00000
     27     -16.2030      1.00000
     28     -16.1736      1.00000
     29     -15.9704      1.00000
     30     -15.8110      1.00000
     31     -15.8109      1.00000
     32     -15.4818      1.00000
     33     -15.0823      1.00000
     34     -15.0815      1.00000
     35     -15.0154      1.00000
     36     -14.9726      1.00000
     37     -14.6057      1.00000
     38     -14.6041      1.00000
     39     -14.0696      1.00000
     40     -13.5681      1.00000
     41     -13.1879      1.00000
     42     -13.1866      1.00000
     43     -13.1602      1.00000
     44     -13.0019      1.00000
     45     -13.0014      1.00000
     46     -12.5826      1.00000
     47     -12.5528      1.00000
     48     -12.4730      1.00000
     49     -12.3336      1.00000
     50     -12.3314      1.00000
     51     -12.1642      1.00000
     52     -12.1596      1.00000
     53     -12.1594      1.00000
     54     -11.9681      1.00000
     55     -11.9347      1.00000
     56     -11.8096      1.00000
     57     -11.7711      1.00000
     58     -11.5162      1.00000
     59     -11.3439      1.00000
     60     -11.3262      1.00000
     61     -11.1052      1.00000
     62     -11.1051      1.00000
     63     -11.0812      1.00000
     64     -11.0758      1.00000
     65     -11.0717      1.00000
     66     -11.0152      1.00000
     67     -10.9477      1.00000
     68     -10.9420      1.00000
     69     -10.8997      1.00000
     70     -10.3708      1.00000
     71     -10.3687      1.00000
     72     -10.3151      1.00000
     73     -10.3141      1.00000
     74     -10.0765      1.00000
     75     -10.0756      1.00000
     76     -10.0749      1.00000
     77      -9.8216      1.00000
     78      -9.8179      1.00000
     79      -9.5006      1.00000
     80      -9.4991      1.00000
     81      -8.6377      1.00000
     82      -8.4599      1.00000
     83      -8.3250      1.00000
     84      -8.2145      1.00000
     85      -8.2121      1.00000
     86      -7.9090      1.00000
     87      -7.8373      1.00000
     88      -7.8295      1.00000
     89      -7.6071      1.00000
     90      -7.5272      1.00000
     91      -7.5102      1.00000
     92      -7.5016      1.00000
     93      -7.2157      1.00000
     94      -6.9700      0.56309
     95      -1.7186      0.00000
     96      -1.2355      0.00000
     97      -0.9948      0.00000
     98      -0.9925      0.00000
     99      -0.9521      0.00000
    100      -0.8656      0.00000
    101      -0.7371      0.00000
    102      -0.7310      0.00000
    103      -0.2634      0.00000
    104      -0.1189      0.00000
    105       0.0120      0.00000
    106       0.0176      0.00000
    107       0.1008      0.00000
    108       0.1692      0.00000
    109       0.2044      0.00000
    110       0.3635      0.00000
    111       0.5270      0.00000
    112       0.5725      0.00000
    113       0.7245      0.00000
    114       0.8773      0.00000
    115       0.9276      0.00000
    116       1.0353      0.00000
    117       1.1060      0.00000
    118       1.1145      0.00000
    119       1.1218      0.00000
    120       1.1445      0.00000
    121       1.3328      0.00000
    122       1.3563      0.00000
    123       1.4014      0.00000
    124       1.4430      0.00000
    125       1.5539      0.00000
    126       1.6071      0.00000
    127       1.6257      0.00000
    128       1.6555      0.00000
    129       1.6922      0.00000
    130       1.7313      0.00000
    131       1.7745      0.00000
    132       1.7964      0.00000
    133       1.8457      0.00000
    134       1.8730      0.00000
    135       1.8939      0.00000
    136       1.9257      0.00000
    137       1.9661      0.00000
    138       2.0209      0.00000
    139       2.0533      0.00000
    140       2.1138      0.00000
    141       2.1525      0.00000
    142       2.1939      0.00000
    143       2.2456      0.00000
    144       2.4973      0.00000

 k-point     2 :       0.2500   -0.1250    0.0000
  band No.  band energies     occupation 
      1     -35.8439      1.00000
      2     -34.4494      1.00000
      3     -33.5209      1.00000
      4     -33.4514      1.00000
      5     -32.9224      1.00000
      6     -29.0925      1.00000
      7     -26.6306      1.00000
      8     -25.4128      1.00000
      9     -24.6608      1.00000
     10     -24.6578      1.00000
     11     -24.2327      1.00000
     12     -24.2323      1.00000
     13     -23.8337      1.00000
     14     -23.8308      1.00000
     15     -22.9879      1.00000
     16     -22.6966      1.00000
     17     -22.6949      1.00000
     18     -22.4552      1.00000
     19     -22.4551      1.00000
     20     -22.3057      1.00000
     21     -22.2301      1.00000
     22     -22.2283      1.00000
     23     -22.0393      1.00000
     24     -21.1896      1.00000
     25     -18.4761      1.00000
     26     -16.7111      1.00000
     27     -16.2030      1.00000
     28     -16.1736      1.00000
     29     -15.9704      1.00000
     30     -15.8111      1.00000
     31     -15.8109      1.00000
     32     -15.4818      1.00000
     33     -15.0822      1.00000
     34     -15.0816      1.00000
     35     -15.0154      1.00000
     36     -14.9726      1.00000
     37     -14.6058      1.00000
     38     -14.6039      1.00000
     39     -14.0696      1.00000
     40     -13.5681      1.00000
     41     -13.1877      1.00000
     42     -13.1868      1.00000
     43     -13.1603      1.00000
     44     -13.0019      1.00000
     45     -13.0014      1.00000
     46     -12.5826      1.00000
     47     -12.5528      1.00000
     48     -12.4730      1.00000
     49     -12.3336      1.00000
     50     -12.3315      1.00000
     51     -12.1641      1.00000
     52     -12.1597      1.00000
     53     -12.1593      1.00000
     54     -11.9676      1.00000
     55     -11.9352      1.00000
     56     -11.8096      1.00000
     57     -11.7711      1.00000
     58     -11.5162      1.00000
     59     -11.3439      1.00000
     60     -11.3263      1.00000
     61     -11.1052      1.00000
     62     -11.1050      1.00000
     63     -11.0814      1.00000
     64     -11.0752      1.00000
     65     -11.0722      1.00000
     66     -11.0151      1.00000
     67     -10.9482      1.00000
     68     -10.9414      1.00000
     69     -10.8997      1.00000
     70     -10.3711      1.00000
     71     -10.3687      1.00000
     72     -10.3152      1.00000
     73     -10.3139      1.00000
     74     -10.0763      1.00000
     75     -10.0757      1.00000
     76     -10.0747      1.00000
     77      -9.8219      1.00000
     78      -9.8178      1.00000
     79      -9.5007      1.00000
     80      -9.4990      1.00000
     81      -8.6378      1.00000
     82      -8.4600      1.00000
     83      -8.3250      1.00000
     84      -8.2145      1.00000
     85      -8.2121      1.00000
     86      -7.9093      1.00000
     87      -7.8375      1.00000
     88      -7.8287      1.00000
     89      -7.6076      1.00000
     90      -7.5268      1.00000
     91      -7.5098      1.00000
     92      -7.5020      1.00000
     93      -7.2158      1.00000
     94      -6.9700      0.56261
     95      -1.7190      0.00000
     96      -1.2349      0.00000
     97      -0.9960      0.00000
     98      -0.9921      0.00000
     99      -0.9524      0.00000
    100      -0.8648      0.00000
    101      -0.7376      0.00000
    102      -0.7304      0.00000
    103      -0.2607      0.00000
    104      -0.1187      0.00000
    105       0.0115      0.00000
    106       0.0194      0.00000
    107       0.1017      0.00000
    108       0.1689      0.00000
    109       0.1973      0.00000
    110       0.3646      0.00000
    111       0.5245      0.00000
    112       0.5724      0.00000
    113       0.7235      0.00000
    114       0.8767      0.00000
    115       0.9263      0.00000
    116       1.0350      0.00000
    117       1.0992      0.00000
    118       1.1175      0.00000
    119       1.1233      0.00000
    120       1.1430      0.00000
    121       1.3341      0.00000
    122       1.3599      0.00000
    123       1.3986      0.00000
    124       1.4411      0.00000
    125       1.5489      0.00000
    126       1.6105      0.00000
    127       1.6332      0.00000
    128       1.6552      0.00000
    129       1.6965      0.00000
    130       1.7255      0.00000
    131       1.7704      0.00000
    132       1.8021      0.00000
    133       1.8474      0.00000
    134       1.8699      0.00000
    135       1.8936      0.00000
    136       1.9284      0.00000
    137       1.9594      0.00000
    138       2.0225      0.00000
    139       2.0561      0.00000
    140       2.1137      0.00000
    141       2.1461      0.00000
    142       2.2007      0.00000
    143       2.2419      0.00000
    144       2.5042      0.00000

 k-point     3 :       0.1250   -0.2500    0.0000
  band No.  band energies     occupation 
      1     -35.8439      1.00000
      2     -34.4494      1.00000
      3     -33.5209      1.00000
      4     -33.4514      1.00000
      5     -32.9224      1.00000
      6     -29.0925      1.00000
      7     -26.6306      1.00000
      8     -25.4128      1.00000
      9     -24.6608      1.00000
     10     -24.6578      1.00000
     11     -24.2327      1.00000
     12     -24.2323      1.00000
     13     -23.8337      1.00000
     14     -23.8308      1.00000
     15     -22.9879      1.00000
     16     -22.6966      1.00000
     17     -22.6949      1.00000
     18     -22.4552      1.00000
     19     -22.4551      1.00000
     20     -22.3057      1.00000
     21     -22.2301      1.00000
     22     -22.2283      1.00000
     23     -22.0393      1.00000
     24     -21.1896      1.00000
     25     -18.4761      1.00000
     26     -16.7111      1.00000
     27     -16.2030      1.00000
     28     -16.1736      1.00000
     29     -15.9704      1.00000
     30     -15.8110      1.00000
     31     -15.8109      1.00000
     32     -15.4818      1.00000
     33     -15.0823      1.00000
     34     -15.0816      1.00000
     35     -15.0153      1.00000
     36     -14.9726      1.00000
     37     -14.6058      1.00000
     38     -14.6040      1.00000
     39     -14.0696      1.00000
     40     -13.5681      1.00000
     41     -13.1879      1.00000
     42     -13.1867      1.00000
     43     -13.1602      1.00000
     44     -13.0019      1.00000
     45     -13.0014      1.00000
     46     -12.5826      1.00000
     47     -12.5528      1.00000
     48     -12.4730      1.00000
     49     -12.3336      1.00000
     50     -12.3314      1.00000
     51     -12.1642      1.00000
     52     -12.1597      1.00000
     53     -12.1593      1.00000
     54     -11.9680      1.00000
     55     -11.9349      1.00000
     56     -11.8094      1.00000
     57     -11.7712      1.00000
     58     -11.5162      1.00000
     59     -11.3439      1.00000
     60     -11.3262      1.00000
     61     -11.1052      1.00000
     62     -11.1051      1.00000
     63     -11.0812      1.00000
     64     -11.0755      1.00000
     65     -11.0721      1.00000
     66     -11.0151      1.00000
     67     -10.9468      1.00000
     68     -10.9427      1.00000
     69     -10.8997      1.00000
     70     -10.3710      1.00000
     71     -10.3698      1.00000
     72     -10.3153      1.00000
     73     -10.3140      1.00000
     74     -10.0762      1.00000
     75     -10.0756      1.00000
     76     -10.0738      1.00000
     77      -9.8220      1.00000
     78      -9.8178      1.00000
     79      -9.5008      1.00000
     80      -9.4990      1.00000
     81      -8.6372      1.00000
     82      -8.4599      1.00000
     83      -8.3251      1.00000
     84      -8.2168      1.00000
     85      -8.2115      1.00000
     86      -7.9043      1.00000
     87      -7.8375      1.00000
     88      -7.8340      1.00000
     89      -7.6058      1.00000
     90      -7.5212      1.00000
     91      -7.5103      1.00000
     92      -7.5073      1.00000
     93      -7.2157      1.00000
     94      -6.9700      0.56318
     95      -1.7175      0.00000
     96      -1.2362      0.00000
     97      -0.9944      0.00000
     98      -0.9925      0.00000
     99      -0.9519      0.00000
    100      -0.8630      0.00000
    101      -0.7373      0.00000
    102      -0.7307      0.00000
    103      -0.2547      0.00000
    104      -0.1183      0.00000
    105       0.0091      0.00000
    106       0.0188      0.00000
    107       0.1336      0.00000
    108       0.1493      0.00000
    109       0.1923      0.00000
    110       0.3945      0.00000
    111       0.4441      0.00000
    112       0.5715      0.00000
    113       0.7225      0.00000
    114       0.8680      0.00000
    115       0.9397      0.00000
    116       0.9755      0.00000
    117       1.0847      0.00000
    118       1.1207      0.00000
    119       1.1263      0.00000
    120       1.2209      0.00000
    121       1.3358      0.00000
    122       1.3569      0.00000
    123       1.3982      0.00000
    124       1.4431      0.00000
    125       1.5446      0.00000
    126       1.6101      0.00000
    127       1.6550      0.00000
    128       1.6641      0.00000
    129       1.7054      0.00000
    130       1.7528      0.00000
    131       1.7785      0.00000
    132       1.8057      0.00000
    133       1.8483      0.00000
    134       1.8589      0.00000
    135       1.8861      0.00000
    136       1.9233      0.00000
    137       1.9941      0.00000
    138       2.0179      0.00000
    139       2.0363      0.00000
    140       2.1178      0.00000
    141       2.1375      0.00000
    142       2.1948      0.00000
    143       2.2453      0.00000
    144       2.5127      0.00000

 k-point     4 :       0.3750    0.1250    0.0000
  band No.  band energies     occupation 
      1     -35.8439      1.00000
      2     -34.4494      1.00000
      3     -33.5209      1.00000
      4     -33.4514      1.00000
      5     -32.9224      1.00000
      6     -29.0925      1.00000
      7     -26.6306      1.00000
      8     -25.2201      1.00000
      9     -25.0678      1.00000
     10     -24.7688      1.00000
     11     -24.3359      1.00000
     12     -23.7942      1.00000
     13     -23.5390      1.00000
     14     -23.4259      1.00000
     15     -23.2098      1.00000
     16     -23.1922      1.00000
     17     -22.9130      1.00000
     18     -22.6239      1.00000
     19     -22.5721      1.00000
     20     -22.2525      1.00000
     21     -22.2391      1.00000
     22     -21.9742      1.00000
     23     -21.8282      1.00000
     24     -21.1896      1.00000
     25     -18.4761      1.00000
     26     -16.7111      1.00000
     27     -16.2030      1.00000
     28     -16.1736      1.00000
     29     -15.7435      1.00000
     30     -15.5456      1.00000
     31     -15.4818      1.00000
     32     -15.4220      1.00000
     33     -15.4038      1.00000
[...]
   13        0.000   0.000   0.000   0.000
   14        0.000   0.000   0.000   0.000
   15        0.000   0.000   0.000   0.000
   16        0.000   0.000   0.000   0.000
   17       -0.000  -0.000   0.000  -0.000
   18       -0.000  -0.000   0.000  -0.000
   19       -0.000  -0.000   0.000  -0.000
   20       -0.000  -0.000   0.000  -0.000
   21       -0.000  -0.000   0.000  -0.000
   22       -0.000  -0.000   0.000  -0.000
   23       -0.000  -0.000   0.000  -0.000
   24       -0.000  -0.000   0.000  -0.000
   25       -0.000  -0.000   0.000  -0.000
   26       -0.000  -0.000   0.000  -0.000
   27       -0.000  -0.000   0.000  -0.000
   28       -0.000  -0.000   0.000  -0.000
   29       -0.000  -0.000   0.000  -0.000
   30       -0.000  -0.000   0.000  -0.000
   31       -0.000  -0.000   0.000  -0.000
   32       -0.000  -0.000   0.000  -0.000
   33        0.000   0.000   0.000   0.000
   34        0.001   0.002   0.000   0.003
   35        0.003   0.014   0.000   0.016
   36       -0.000  -0.000   0.000  -0.000
   37        0.000   0.000   0.000   0.000
   38       -0.000  -0.000   0.000  -0.000
   39       -0.000  -0.004   0.000  -0.004
   40       -0.000  -0.005   0.000  -0.005
   41       -0.002  -0.187   0.000  -0.190
   42       -0.002  -0.185   0.000  -0.188
--------------------------------------------------
tot         -0.001  -0.367   0.000  -0.369
 
    CHARGE:  cpu time    3.8969: real time    3.6532
    FORLOC:  cpu time    0.3443: real time    0.2632
    FORNL :  cpu time   27.3221: real time   13.7755
    STRESS:  cpu time  675.9931: real time  626.3781
    FORCOR:  cpu time    3.2833: real time    3.2900
    FORHAR:  cpu time    0.4204: real time    0.4213
    MIXING:  cpu time    0.0682: real time    0.0683
    OFIELD:  cpu time    0.0001: real time    0.0001

  FORCE on cell =-STRESS in cart. coord.  units (eV):
  Direction    XX          YY          ZZ          XY          YZ          ZX
  --------------------------------------------------------------------------------------
  Alpha Z    57.55240    57.55240    57.55240
  Ewald   65327.75785 65415.89764-68548.39369    -8.48619  -350.96060  -152.45060
  Hartree 65988.71849 66206.81393-61670.53279    72.94797  -339.35964  -108.72364
  E(xc)    -833.24654  -832.69030  -838.74901     0.27986    -0.50894    -0.10727
  Local  ************************127752.94036   -86.01473   705.47419   257.29183
  n-local  -488.76462  -488.67172  -480.96682     0.27376     1.75528     0.91136
  augment   119.14250   122.61422   129.33840     1.83417    -2.29843     0.14716
  Kinetic  3273.31029  3307.49435  3598.84219    19.35013   -13.84360     3.25618
  Fock        0.00000     0.00000     0.00000     0.00000     0.00000     0.00000
  -------------------------------------------------------------------------------------
  Total     -13.39811   -13.12427     0.03105     0.18497     0.25826     0.32502
  in kB      -6.99053    -6.84766     0.01620     0.09651     0.13475     0.16958
  external pressure =       -4.61 kB  Pullay stress =        0.00 kB


 VOLUME and BASIS-vectors are now :
 -----------------------------------------------------------------------------
  energy-cutoff  :      550.00
  volume of cell :     3070.74
      direct lattice vectors                 reciprocal lattice vectors
     5.024366704 -8.702497373  0.000000000     0.099515029 -0.057454772  0.000000000
     5.024366704  8.702497373  0.000000000     0.099515029  0.057454772  0.000000000
     0.000000000  0.000000000 35.114664386     0.000000000  0.000000000  0.028478131

  length of vectors
    10.048767154 10.048767154 35.114664386     0.114909929  0.114909929  0.028478131


 FORCES acting on ions
    electron-ion (+dipol)            ewald-force                    non-local-force                 convergence-correction
 -----------------------------------------------------------------------------------------------
   0.820E+01 0.160E+01 0.124E+03   -.820E+01 -.154E+01 -.123E+03   0.486E-02 -.890E-03 -.825E-03   0.665E-04 -.428E-04 0.345E-03
   0.130E+02 -.632E+01 0.131E+03   -.129E+02 0.636E+01 -.129E+03   0.984E-02 -.595E-02 0.158E-02   -.958E-04 0.884E-06 0.369E-03
   0.392E+01 -.878E+01 0.126E+03   -.379E+01 0.862E+01 -.124E+03   0.328E-02 -.452E-02 -.225E-03   -.884E-04 0.552E-04 0.306E-03
   -.776E+00 -.573E+00 0.119E+03   0.748E+00 0.489E+00 -.118E+03   0.175E-03 -.196E-03 -.110E-02   0.882E-04 0.552E-05 0.317E-03
   0.756E+01 0.545E+01 0.126E+03   -.757E+01 -.551E+01 -.124E+03   0.293E-02 0.365E-02 -.834E-03   0.258E-04 0.270E-04 0.404E-03
   0.135E+02 0.489E+01 0.148E+03   -.134E+02 -.476E+01 -.147E+03   0.919E-02 0.447E-02 0.536E-04   -.132E-03 -.117E-03 0.430E-03
   0.385E+01 -.121E+02 0.152E+03   -.373E+01 0.122E+02 -.150E+03   0.203E-02 -.105E-01 -.125E-02   -.146E-03 0.323E-04 0.284E-03
   -.195E+01 -.115E+02 0.128E+03   0.190E+01 0.113E+02 -.126E+03   -.228E-02 -.517E-02 0.749E-03   0.482E-04 0.176E-03 0.325E-03
   -.322E+01 0.553E+00 0.122E+03   0.310E+01 -.692E+00 -.121E+03   -.353E-02 0.129E-02 -.117E-03   0.885E-04 0.117E-03 0.371E-03
   0.128E+01 0.151E+02 0.136E+03   -.124E+01 -.150E+02 -.135E+03   0.187E-03 0.110E-01 0.198E-02   -.751E-04 -.102E-03 0.404E-03
   -.938E+01 0.664E+01 0.154E+03   0.943E+01 -.645E+01 -.152E+03   -.867E-02 0.594E-02 0.992E-03   -.958E-04 -.165E-03 0.268E-03
   -.138E+02 -.783E+01 0.139E+03   0.137E+02 0.781E+01 -.137E+03   -.105E-01 -.590E-02 0.279E-02   0.124E-03 0.127E-03 0.233E-03
   -.309E+01 -.215E+01 0.120E+03   0.295E+01 0.213E+01 -.119E+03   -.855E-03 -.349E-02 -.241E-03   0.120E-03 0.754E-04 0.309E-03
   0.126E+01 0.312E+01 0.120E+03   -.122E+01 -.316E+01 -.119E+03   0.235E-02 0.183E-02 -.342E-03   -.464E-04 0.130E-04 0.348E-03
   -.805E+01 0.863E+01 0.128E+03   0.805E+01 -.856E+01 -.126E+03   -.274E-02 0.489E-02 0.275E-03   -.360E-04 -.131E-03 0.304E-03
   -.123E+02 0.323E+01 0.127E+03   0.122E+02 -.310E+01 -.126E+03   -.493E-02 -.650E-04 0.107E-02   0.159E-03 -.719E-04 0.246E-03
   0.128E+02 -.367E+01 0.206E+03   -.128E+02 0.373E+01 -.204E+03   0.654E-02 0.214E-02 0.828E-02   0.574E-04 -.121E-04 0.677E-03
   0.120E+02 -.892E+01 0.207E+03   -.117E+02 0.882E+01 -.205E+03   -.171E-02 -.707E-02 0.496E-02   -.163E-03 0.525E-04 0.690E-03
   -.451E+01 -.111E+01 0.202E+03   0.457E+01 0.970E+00 -.200E+03   -.626E-02 -.154E-02 0.946E-02   -.939E-05 -.537E-04 0.626E-03
   -.339E+01 0.397E+01 0.201E+03   0.325E+01 -.390E+01 -.199E+03   0.770E-05 0.386E-02 0.942E-02   0.250E-03 -.746E-04 0.604E-03
   0.224E+02 0.950E+01 0.221E+03   -.223E+02 -.942E+01 -.219E+03   0.166E-01 0.917E-02 0.100E-01   -.217E-04 -.112E-03 0.797E-03
   0.231E+02 -.101E+02 0.245E+03   -.228E+02 0.103E+02 -.243E+03   0.170E-01 -.780E-02 0.698E-02   -.245E-03 -.852E-04 0.849E-03
   0.405E+01 -.254E+02 0.227E+03   -.392E+01 0.251E+02 -.224E+03   -.834E-03 -.218E-01 0.984E-02   -.118E-03 0.183E-03 0.565E-03
   0.398E+01 -.495E+01 0.202E+03   -.405E+01 0.467E+01 -.200E+03   0.597E-02 -.196E-02 0.109E-01   0.120E-03 0.163E-03 0.745E-03
   0.572E+01 0.148E+02 0.212E+03   -.577E+01 -.148E+02 -.210E+03   0.759E-02 0.526E-02 0.685E-02   0.745E-05 0.591E-04 0.817E-03
   0.460E+01 0.199E+02 0.253E+03   -.445E+01 -.196E+02 -.250E+03   0.120E-02 0.146E-01 -.244E-02   -.247E-03 -.257E-03 0.813E-03
   -.145E+02 -.989E+01 0.257E+03   0.145E+02 0.101E+02 -.254E+03   -.183E-01 -.104E-01 -.112E-01   -.135E-03 0.246E-05 0.392E-03
   -.127E+02 -.149E+02 0.215E+03   0.124E+02 0.146E+02 -.213E+03   0.699E-03 -.871E-02 0.304E-02   0.171E-03 0.313E-03 0.712E-03
   -.334E+01 0.109E+01 0.199E+03   0.320E+01 -.122E+01 -.197E+03   0.550E-03 0.715E-03 0.441E-02   0.930E-04 0.141E-03 0.679E-03
   -.520E+01 0.190E+02 0.213E+03   0.526E+01 -.189E+02 -.211E+03   -.642E-02 0.515E-02 0.165E-03   -.134E-03 -.138E-03 0.706E-03
   -.235E+02 0.142E+02 0.229E+03   0.234E+02 -.139E+02 -.226E+03   -.180E-01 0.923E-02 0.312E-02   0.229E-04 -.276E-03 0.536E-03
   -.214E+02 -.341E+01 0.214E+03   0.211E+02 0.348E+01 -.212E+03   -.627E-02 0.259E-02 0.430E-03   0.301E-03 0.119E-03 0.545E-03
   -.228E+00 0.166E+02 -.437E+03   -.523E+00 -.147E+02 0.428E+03   0.852E+00 -.159E+01 0.984E+01   -.649E-03 -.683E-03 -.841E-03
   -.953E+01 -.373E+02 -.310E+03   0.150E+02 0.466E+02 0.316E+03   -.515E+01 -.860E+01 -.443E+01   -.720E-03 -.737E-03 -.955E-03
   -.268E+02 -.773E+02 -.290E+03   0.261E+02 0.758E+02 0.292E+03   0.131E+01 0.270E+01 -.494E+00   -.873E-03 -.622E-03 -.796E-03
   -.511E+03 0.704E+02 -.957E+03   0.568E+03 -.733E+02 0.974E+03   -.558E+02 0.331E+01 -.164E+02   0.565E-03 -.560E-03 -.428E-03
   0.230E+03 0.490E+03 -.922E+03   -.256E+03 -.541E+03 0.937E+03   0.255E+02 0.501E+02 -.142E+02   -.937E-03 -.982E-03 -.237E-02
   0.233E+03 -.349E+03 -.109E+04   -.259E+03 0.392E+03 0.112E+04   0.254E+02 -.420E+02 -.309E+02   -.127E-02 0.823E-04 -.408E-03
   -.203E+03 0.405E+03 -.276E+03   0.229E+03 -.446E+03 0.253E+03   -.245E+02 0.409E+02 0.269E+02   -.138E-02 -.445E-03 -.108E-02
   0.529E+03 0.324E+02 -.414E+03   -.583E+03 -.324E+02 0.404E+03   0.534E+02 0.122E+01 0.134E+02   -.781E-04 -.103E-02 -.127E-02
   -.416E+03 -.134E+03 -.389E+03   0.469E+03 0.137E+03 0.383E+03   -.509E+02 -.159E+01 0.931E+01   0.713E-03 -.120E-02 -.168E-02
   0.177E+03 -.412E+03 -.431E+03   -.209E+03 0.455E+03 0.430E+03   0.315E+02 -.409E+02 0.451E+01   -.124E-02 0.918E-04 -.928E-03
 -----------------------------------------------------------------------------------------------
   -.158E+01 -.349E+01 0.239E+01   0.000E+00 0.114E-12 0.000E+00   0.159E+01 0.347E+01 -.241E+01   -.591E-02 -.605E-02 0.526E-02
 
 
 POSITION                                       TOTAL-FORCE (eV/Angst)
 -----------------------------------------------------------------------------------
      1.25596     -0.72496     17.55936         0.000695     -0.000229      0.001107
      2.51191      1.45078     17.56020         0.002411     -0.001265      0.000682
      3.76816      3.62635     17.55967         0.001330     -0.001131      0.000489
      5.02431      5.80191     17.55909         0.000171     -0.000525      0.001603
      2.51209     -2.90071     17.55955         0.000049      0.000610      0.000664
      3.76802     -0.72509     17.56013         0.001618      0.001230     -0.000174
      5.02424      1.45092     17.56021         0.001121     -0.001078     -0.000592
      6.28046      3.62636     17.56017        -0.000760     -0.001741      0.000056
      3.76830     -5.07629     17.56022        -0.001517     -0.000239      0.000730
      5.02431     -2.90085     17.56076        -0.000054      0.002498      0.000780
      6.28063     -0.72509     17.56106        -0.001261      0.001613     -0.000699
      7.53670      1.45079     17.56174        -0.002630     -0.001202     -0.000741
      5.02431     -7.25180     17.56005        -0.001089     -0.000663      0.000954
      6.28036     -5.07630     17.55982         0.000207      0.000051      0.001302
      7.53655     -2.90072     17.56008        -0.000216      0.001995      0.000679
      8.79267     -0.72497     17.56043        -0.001397      0.000927      0.000634
      1.25605      0.72545     17.55935        -0.001292     -0.000081      0.001723
      2.51217      2.90105     17.55948        -0.002113      0.001072      0.001791
      3.76822      5.07667     17.55897         0.000048      0.000947      0.001853
      5.02430      7.25234     17.55900         0.000590     -0.000757      0.001308
      2.51215     -1.45020     17.55931        -0.002348     -0.000727      0.001794
      3.76831      0.72543     17.56088        -0.002363     -0.000344      0.003261
      5.02433      2.90106     17.55948        -0.001071      0.002814      0.002236
      6.28040      5.07667     17.55893        -0.000251      0.001642      0.001883
      3.76823     -3.62583     17.55979         0.000173     -0.000459      0.001774
      5.02435     -1.45007     17.56177        -0.000956     -0.002535      0.002667
      6.28025      0.72545     17.56239         0.000858     -0.000493      0.002524
      7.53646      2.90102     17.56045         0.001905      0.001795      0.003158
      5.02430     -5.80145     17.55956         0.001045      0.000264      0.001433
      6.28039     -3.62580     17.56008         0.000051     -0.001408      0.001321
      7.53647     -1.45017     17.56045         0.001870     -0.002001      0.002645
      8.79249      0.72546     17.56053         0.002795     -0.000089      0.002560
      5.17067     -0.76953     23.63494         0.003388      0.005851      0.006375
      5.04901     -0.49284     22.12702         0.002020      0.001892      0.001852
      5.66117      0.85261     21.68399        -0.004333     -0.003590     -0.016271
      6.45942     -0.84083     24.00048         0.008818     -0.003036     -0.007834
      4.57584     -1.93113     23.95035         0.004581      0.002704     -0.006878
      4.58139      0.21308     24.33527        -0.016173      0.007093     -0.006541
      5.66131     -1.52335     21.47830        -0.007542     -0.000669     -0.003535
      3.72350     -0.53257     21.82100         0.002337     -0.008789     -0.004442
      6.88966      0.87883     21.46718         0.009342     -0.007661     -0.009324
      4.89582      1.83216     21.58268        -0.000055      0.005715      0.005193
 -----------------------------------------------------------------------------------
    total drift:                                0.008265     -0.026005     -0.016446


--------------------------------------------------------------------------------------------------------



  FREE ENERGIE OF THE ION-ELECTRON SYSTEM (eV)
  ---------------------------------------------------
  free  energy   TOTEN  =      -384.93648669 eV

  energy  without entropy=     -384.91618058  energy(sigma->0) =     -384.92633363
 
 d Force = 0.4169406E-04[ 0.226E-04, 0.608E-04]  d Energy = 0.4812733E-04-0.643E-05
 d Force =-0.1338576E+01[-0.134E+01,-0.134E+01]  d Ewald  =-0.1338576E+01-0.168E-06


--------------------------------------------------------------------------------------------------------


    POTLOK:  cpu time   34.8134: real time   34.6820


--------------------------------------------------------------------------------------------------------


 Conjugate gradient step on ions:
 trial-energy change:   -0.000048  1 .order   -0.000042   -0.000061   -0.000023
  (g-gl).g = 0.232E-03      g.g   = 0.227E-03  gl.gl    = 0.323E-03
 g(Force)  = 0.227E-03   g(Stress)= 0.000E+00 ortho     = 0.143E-05
 gamma     =   0.71862
 trial     =   0.26718
 opt step  =   0.42513  (harmonic =   0.42513) maximal distance =0.00080797
 next E    =  -384.936487   (d E  =  -0.00005)


--------------------------------------------------------------------------------------------------------


  
 reached required accuracy - stopping structural energy minimisation
 writing wavefunctions
     LOOP+:  cpu time 4397.3024: real time 3230.7359
    4ORBIT:  cpu time    0.0000: real time    0.0000
 


 total charge     
 
# of ion       s       p       d       tot
------------------------------------------
    1        0.743   1.390   0.000   2.134
    2        0.743   1.390   0.000   2.134
    3        0.743   1.390   0.000   2.134
    4        0.743   1.390   0.000   2.134
    5        0.743   1.390   0.000   2.134
    6        0.743   1.391   0.000   2.134
    7        0.743   1.391   0.000   2.135
    8        0.743   1.390   0.000   2.134
    9        0.743   1.390   0.000   2.134
   10        0.743   1.390   0.000   2.134
   11        0.743   1.391   0.000   2.134
   12        0.743   1.391   0.000   2.134
   13        0.743   1.390   0.000   2.134
   14        0.743   1.390   0.000   2.134
   15        0.743   1.390   0.000   2.134
   16        0.743   1.390   0.000   2.134
   17        1.240   2.813   0.000   4.053
   18        1.240   2.813   0.000   4.053
   19        1.240   2.813   0.000   4.053
   20        1.240   2.813   0.000   4.053
   21        1.240   2.813   0.000   4.053
   22        1.240   2.812   0.000   4.053
   23        1.240   2.813   0.000   4.053
   24        1.240   2.813   0.000   4.053
   25        1.240   2.813   0.000   4.053
   26        1.240   2.812   0.000   4.053
   27        1.240   2.812   0.000   4.053
   28        1.240   2.813   0.000   4.053
   29        1.240   2.813   0.000   4.053
   30        1.240   2.813   0.000   4.053
   31        1.240   2.813   0.000   4.053
   32        1.240   2.813   0.000   4.053
   33        0.818   1.563   0.000   2.381
   34        0.834   1.603   0.000   2.437
   35        0.879   1.730   0.000   2.609
   36        1.758   4.413   0.000   6.171
   37        1.758   4.412   0.000   6.170
   38        1.758   4.413   0.000   6.171
   39        1.756   4.401   0.000   6.157
   40        1.756   4.402   0.000   6.158
   41        1.597   3.531   0.000   5.127
   42        1.597   3.531   0.000   5.128
--------------------------------------------------
tot         46.248 101.251   0.000 147.500
 


 magnetization (x)
 
# of ion       s       p       d       tot
------------------------------------------
    1        0.000   0.000   0.000   0.000
    2        0.000   0.000   0.000   0.000
    3        0.000   0.000   0.000   0.000
    4        0.000   0.000   0.000   0.000
    5        0.000   0.000   0.000   0.000
    6        0.000   0.000   0.000   0.000
    7        0.000   0.000   0.000   0.000
    8        0.000   0.000   0.000   0.000
    9        0.000   0.000   0.000   0.000
   10        0.000   0.000   0.000   0.000
   11        0.000   0.000   0.000   0.000
   12        0.000   0.000   0.000   0.000
   13        0.000   0.000   0.000   0.000
   14        0.000   0.000   0.000   0.000
   15        0.000   0.000   0.000   0.000
   16        0.000   0.000   0.000   0.000
   17       -0.000  -0.000   0.000  -0.000
   18       -0.000  -0.000   0.000  -0.000
   19       -0.000  -0.000   0.000  -0.000
   20       -0.000  -0.000   0.000  -0.000
   21       -0.000  -0.000   0.000  -0.000
   22       -0.000  -0.000   0.000  -0.000
   23       -0.000  -0.000   0.000  -0.000
   24       -0.000  -0.000   0.000  -0.000
   25       -0.000  -0.000   0.000  -0.000
   26       -0.000  -0.000   0.000  -0.000
   27       -0.000  -0.000   0.000  -0.000
   28       -0.000  -0.000   0.000  -0.000
   29       -0.000  -0.000   0.000  -0.000
   30       -0.000  -0.000   0.000  -0.000
   31       -0.000  -0.000   0.000  -0.000
   32       -0.000  -0.000   0.000  -0.000
   33        0.000   0.000   0.000   0.000
   34        0.001   0.002   0.000   0.003
   35        0.003   0.014   0.000   0.016
   36       -0.000  -0.000   0.000  -0.000
   37        0.000   0.000   0.000   0.000
   38       -0.000  -0.000   0.000  -0.000
   39       -0.000  -0.004   0.000  -0.004
   40       -0.000  -0.005   0.000  -0.005
   41       -0.002  -0.187   0.000  -0.190
   42       -0.002  -0.185   0.000  -0.188
--------------------------------------------------
tot         -0.001  -0.367   0.000  -0.369
 

 total amount of memory used by VASP MPI-rank0  1323186. kBytes
=======================================================================

   base      :      30000. kBytes
   nonlr-proj:      18700. kBytes
   fftplans  :      47149. kBytes
   grid      :     394654. kBytes
   one-center:        258. kBytes
   wavefun   :     832425. kBytes
 
  
  
 General timing and accounting informations for this job:
 ========================================================
  
                  Total CPU time used (sec):    22060.822
                            User time (sec):    21435.654
                          System time (sec):      625.167
                         Elapsed time (sec):    16044.524
  
                   Maximum memory used (kb):     2753224.
                   Average memory used (kb):           0.
  
                          Minor page faults:      4623689
                          Major page faults:            9
                 Voluntary context switches:       215192
