 vasp.5.4.4.18Apr17-6-g9f103f2a35 (build May 01 2020 14:57:12) complex          
  
 executed on             LinuxIFC date 2020.10.05  12:22:10
 running on   48 total cores
 distrk:  each k-point on   12 cores,    4 groups
 distr:  one band on NCORES_PER_BAND=   1 cores,   12 groups


--------------------------------------------------------------------------------------------------------


 INCAR:
 POTCAR:    PAW_PBE B 06Sep2000                   
 POTCAR:    PAW_PBE N 08Apr2002                   
 POTCAR:    PAW_PBE C 08Apr2002                   
 POTCAR:    PAW_PBE F 08Apr2002                   
 POTCAR:    PAW_PBE O 08Apr2002                   

 ----------------------------------------------------------------------------- 
|                                                                             |
|           W    W    AA    RRRRR   N    N  II  N    N   GGGG   !!!           |
|           W    W   A  A   R    R  NN   N  II  NN   N  G    G  !!!           |
|           W    W  A    A  R    R  N N  N  II  N N  N  G       !!!           |
|           W WW W  AAAAAA  RRRRR   N  N N  II  N  N N  G  GGG   !            |
|           WW  WW  A    A  R   R   N   NN  II  N   NN  G    G                |
|           W    W  A    A  R    R  N    N  II  N    N   GGGG   !!!           |
|                                                                             |
|      For optimal performance we recommend to set                            |
|        NCORE= 4 - approx SQRT( number of cores)                             |
|      NCORE specifies how many cores store one orbital (NPAR=cpu/NCORE).     |
|      This setting can  greatly improve the performance of VASP for DFT.     |
|      The default,   NCORE=1            might be grossly inefficient         |
|      on modern multi-core architectures or massively parallel machines.     |
|      Do your own testing !!!!                                               |
|      Unfortunately you need to use the default for GW and RPA calculations. |
|      (for HF NCORE is supported but not extensively tested yet)             |
|                                                                             |
 ----------------------------------------------------------------------------- 


 ----------------------------------------------------------------------------- 
|                                                                             |
|           W    W    AA    RRRRR   N    N  II  N    N   GGGG   !!!           |
|           W    W   A  A   R    R  NN   N  II  NN   N  G    G  !!!           |
|           W    W  A    A  R    R  N N  N  II  N N  N  G       !!!           |
|           W WW W  AAAAAA  RRRRR   N  N N  II  N  N N  G  GGG   !            |
|           WW  WW  A    A  R   R   N   NN  II  N   NN  G    G                |
|           W    W  A    A  R    R  N    N  II  N    N   GGGG   !!!           |
|                                                                             |
|      You have enabled k-point parallelism (KPAR>1).                         |
|      This developmental code was originally  written by Paul Kent at ORNL,  |
|      and carefully double checked in Vienna.                                |
|      GW as well as linear response parallelism added by Martijn Marsman     |
|      and Georg Kresse.                                                      |
|      Carefully verify results versus KPAR=1.                                |
|      Report problems to Paul Kent and Vienna.                               |
|                                                                             |
 ----------------------------------------------------------------------------- 

 POTCAR:    PAW_PBE B 06Sep2000                   
   VRHFIN =B: s2p1                                                              
   LEXCH  = PE                                                                  
   EATOM  =    71.1703 eV,    5.2309 Ry                                         
                                                                                
   TITEL  = PAW_PBE B 06Sep2000                                                 
   LULTRA =        F    use ultrasoft PP ?                                      
   IUNSCR =        1    unscreen: 0-lin 1-nonlin 2-no                           
   RPACOR =    1.200    partial core radius                                     
   POMASS =   10.811; ZVAL   =    3.000    mass and valenz                      
   RCORE  =    1.700    outmost cutoff radius                                   
   RWIGS  =    1.710; RWIGS  =    0.905    wigner-seitz radius (au A)           
   ENMAX  =  318.614; ENMIN  =  238.960 eV                                      
   ICORE  =        2    local potential                                         
   LCOR   =        T    correct aug charges                                     
   LPAW   =        T    paw PP                                                  
   EAUG   =  535.514                                                            
   DEXC   =    0.000                                                            
   RMAX   =    1.732    core radius for proj-oper                               
   RAUG   =    1.300    factor for augmentation sphere                          
   RDEP   =    1.757    radius for radial grids                                 
   RDEPT  =    1.436    core radius for aug-charge                              
                                                                                
   Atomic configuration                                                         
    4 entries                                                                   
     n  l   j            E        occ.                                          
     1  0  0.50      -180.5896   2.0000                                         
     2  0  0.50        -9.4431   2.0000                                         
     2  1  0.50        -3.6068   1.0000                                         
     3  2  1.50        -4.0817   0.0000                                         
   Description                                                                  
     l       E           TYP  RCUT    TYP  RCUT                                 
     0     -9.4430752     23  1.500                                             
     0      0.8675899     23  1.500                                             
     1     -3.6067955     23  1.700                                             
     1      6.1086146     23  1.700                                             
     2     -4.0817478      7  1.700                                             
  local pseudopotential read in
  partial core-charges read in
  partial kinetic energy density read in
  atomic valenz-charges read in
  non local Contribution for L=           0  read in
    real space projection operators read in
  non local Contribution for L=           0  read in
    real space projection operators read in
  non local Contribution for L=           1  read in
    real space projection operators read in
  non local Contribution for L=           1  read in
    real space projection operators read in
    PAW grid and wavefunctions read in
 
   number of l-projection  operators is LMAX  =           4
   number of lm-projection operators is LMMAX =           8
 
 POTCAR:    PAW_PBE N 08Apr2002                   
   VRHFIN =N: s2p3                                                              
   LEXCH  = PE                                                                  
   EATOM  =   264.5486 eV,   19.4438 Ry                                         
                                                                                
   TITEL  = PAW_PBE N 08Apr2002                                                 
   LULTRA =        F    use ultrasoft PP ?                                      
   IUNSCR =        1    unscreen: 0-lin 1-nonlin 2-no                           
   RPACOR =    1.200    partial core radius                                     
   POMASS =   14.001; ZVAL   =    5.000    mass and valenz                      
   RCORE  =    1.500    outmost cutoff radius                                   
   RWIGS  =    1.400; RWIGS  =    0.741    wigner-seitz radius (au A)           
   ENMAX  =  400.000; ENMIN  =  300.000 eV                                      
   ICORE  =        2    local potential                                         
   LCOR   =        T    correct aug charges                                     
   LPAW   =        T    paw PP                                                  
   EAUG   =  627.112                                                            
   DEXC   =    0.000                                                            
   RMAX   =    1.529    core radius for proj-oper                               
   RAUG   =    1.300    factor for augmentation sphere                          
   RDEP   =    1.514    radius for radial grids                                 
   RDEPT  =    1.338    core radius for aug-charge                              
                                                                                
   Atomic configuration                                                         
    4 entries                                                                   
     n  l   j            E        occ.                                          
     1  0  0.50      -384.7179   2.0000                                         
     2  0  0.50       -18.5828   2.0000                                         
     2  1  0.50        -7.0898   3.0000                                         
     3  2  1.50        -6.8029   0.0000                                         
   Description                                                                  
     l       E           TYP  RCUT    TYP  RCUT                                 
     0    -18.5828119     23  1.200                                             
     0    -13.5018863     23  1.200                                             
     1     -7.0897853     23  1.500                                             
     1      9.5240782     23  1.500                                             
     2     -6.8029130      7  1.500                                             
  local pseudopotential read in
  partial core-charges read in
  partial kinetic energy density read in
  atomic valenz-charges read in
  non local Contribution for L=           0  read in
    real space projection operators read in
  non local Contribution for L=           0  read in
    real space projection operators read in
  non local Contribution for L=           1  read in
    real space projection operators read in
  non local Contribution for L=           1  read in
    real space projection operators read in
    PAW grid and wavefunctions read in
 
   number of l-projection  operators is LMAX  =           4
   number of lm-projection operators is LMMAX =           8
 
 POTCAR:    PAW_PBE C 08Apr2002                   
   VRHFIN =C: s2p2                                                              
   LEXCH  = PE                                                                  
   EATOM  =   147.1560 eV,   10.8157 Ry                                         
                                                                                
   TITEL  = PAW_PBE C 08Apr2002                                                 
   LULTRA =        F    use ultrasoft PP ?                                      
   IUNSCR =        1    unscreen: 0-lin 1-nonlin 2-no                           
   RPACOR =    1.200    partial core radius                                     
   POMASS =   12.011; ZVAL   =    4.000    mass and valenz                      
   RCORE  =    1.500    outmost cutoff radius                                   
   RWIGS  =    1.630; RWIGS  =    0.863    wigner-seitz radius (au A)           
   ENMAX  =  400.000; ENMIN  =  300.000 eV                                      
   ICORE  =        2    local potential                                         
   LCOR   =        T    correct aug charges                                     
   LPAW   =        T    paw PP                                                  
   EAUG   =  644.873                                                            
   DEXC   =    0.000                                                            
   RMAX   =    1.529    core radius for proj-oper                               
   RAUG   =    1.300    factor for augmentation sphere                          
   RDEP   =    1.501    radius for radial grids                                 
   RDEPT  =    1.300    core radius for aug-charge                              
                                                                                
   Atomic configuration                                                         
    4 entries                                                                   
     n  l   j            E        occ.                                          
     1  0  0.50      -273.3789   2.0000                                         
     2  0  0.50       -13.7508   2.0000                                         
     2  1  0.50        -5.2854   2.0000                                         
     3  2  1.50        -5.4423   0.0000                                         
   Description                                                                  
     l       E           TYP  RCUT    TYP  RCUT                                 
     0    -13.7508458     23  1.200                                             
     0     -8.2022199     23  1.200                                             
     1     -5.2854383     23  1.500                                             
     1     34.0145650     23  1.500                                             
     2     -5.4423304      7  1.500                                             
  local pseudopotential read in
  partial core-charges read in
  partial kinetic energy density read in
  atomic valenz-charges read in
  non local Contribution for L=           0  read in
    real space projection operators read in
  non local Contribution for L=           0  read in
    real space projection operators read in
  non local Contribution for L=           1  read in
    real space projection operators read in
  non local Contribution for L=           1  read in
    real space projection operators read in
    PAW grid and wavefunctions read in
 
   number of l-projection  operators is LMAX  =           4
   number of lm-projection operators is LMMAX =           8
 
 POTCAR:    PAW_PBE F 08Apr2002                   
   VRHFIN =F: s2p5                                                              
   LEXCH  = PE                                                                  
   EATOM  =   659.6475 eV,   48.4827 Ry                                         
                                                                                
   TITEL  = PAW_PBE F 08Apr2002                                                 
   LULTRA =        F    use ultrasoft PP ?                                      
   IUNSCR =        1    unscreen: 0-lin 1-nonlin 2-no                           
   RPACOR =    1.200    partial core radius                                     
   POMASS =   18.998; ZVAL   =    7.000    mass and valenz                      
   RCORE  =    1.520    outmost cutoff radius                                   
   RWIGS  =    1.500; RWIGS  =    0.794    wigner-seitz radius (au A)           
   ENMAX  =  400.000; ENMIN  =  300.000 eV                                      
   ICORE  =        2    local potential                                         
   LCOR   =        T    correct aug charges                                     
   LPAW   =        T    paw PP                                                  
   EAUG   =  613.614                                                            
   RMAX   =    1.555    core radius for proj-oper                               
   RAUG   =    1.300    factor for augmentation sphere                          
   RDEP   =    1.539    radius for radial grids                                 
   RDEPT  =    1.299    core radius for aug-charge                              
                                                                                
   Atomic configuration                                                         
    4 entries                                                                   
     n  l   j            E        occ.                                          
     1  0  0.50      -663.3661   2.0000                                         
     2  0  0.50       -29.8995   2.0000                                         
     2  1  0.50       -11.1114   5.0000                                         
     3  2  1.50       -10.8847   0.0000                                         
   Description                                                                  
     l       E           TYP  RCUT    TYP  RCUT                                 
     0    -29.8995018     23  1.200                                             
     0     -9.5240782     23  1.200                                             
     1    -11.1113914     23  1.520                                             
     1      1.3605826     23  1.520                                             
     2    -10.8846608      7  1.500                                             
  local pseudopotential read in
  partial core-charges read in
  partial kinetic energy density read in
  atomic valenz-charges read in
  non local Contribution for L=           0  read in
    real space projection operators read in
  non local Contribution for L=           0  read in
    real space projection operators read in
  non local Contribution for L=           1  read in
    real space projection operators read in
  non local Contribution for L=           1  read in
    real space projection operators read in
    PAW grid and wavefunctions read in
 
   number of l-projection  operators is LMAX  =           4
   number of lm-projection operators is LMMAX =           8
 
 POTCAR:    PAW_PBE O 08Apr2002                   
   VRHFIN =O: s2p4                                                              
   LEXCH  = PE                                                                  
   EATOM  =   432.3788 eV,   31.7789 Ry                                         
                                                                                
   TITEL  = PAW_PBE O 08Apr2002                                                 
   LULTRA =        F    use ultrasoft PP ?                                      
   IUNSCR =        1    unscreen: 0-lin 1-nonlin 2-no                           
   RPACOR =    1.200    partial core radius                                     
   POMASS =   16.000; ZVAL   =    6.000    mass and valenz                      
   RCORE  =    1.520    outmost cutoff radius                                   
   RWIGS  =    1.550; RWIGS  =    0.820    wigner-seitz radius (au A)           
   ENMAX  =  400.000; ENMIN  =  300.000 eV                                      
   ICORE  =        2    local potential                                         
   LCOR   =        T    correct aug charges                                     
   LPAW   =        T    paw PP                                                  
   EAUG   =  605.392                                                            
   DEXC   =    0.000                                                            
   RMAX   =    1.553    core radius for proj-oper                               
   RAUG   =    1.300    factor for augmentation sphere                          
   RDEP   =    1.550    radius for radial grids                                 
   RDEPT  =    1.329    core radius for aug-charge                              
                                                                                
   Atomic configuration                                                         
    4 entries                                                                   
     n  l   j            E        occ.                                          
     1  0  0.50      -514.6923   2.0000                                         
     2  0  0.50       -23.9615   2.0000                                         
     2  1  0.50        -9.0305   4.0000                                         
     3  2  1.50        -9.5241   0.0000                                         
   Description                                                                  
     l       E           TYP  RCUT    TYP  RCUT                                 
     0    -23.9615318     23  1.200                                             
     0     -9.5240782     23  1.200                                             
     1     -9.0304911     23  1.520                                             
     1      8.1634956     23  1.520                                             
     2     -9.5240782      7  1.500                                             
  local pseudopotential read in
  partial core-charges read in
  partial kinetic energy density read in
  kinetic energy density of atom read in
  atomic valenz-charges read in
  non local Contribution for L=           0  read in
    real space projection operators read in
  non local Contribution for L=           0  read in
    real space projection operators read in
  non local Contribution for L=           1  read in
    real space projection operators read in
  non local Contribution for L=           1  read in
    real space projection operators read in
    PAW grid and wavefunctions read in
 
   number of l-projection  operators is LMAX  =           4
   number of lm-projection operators is LMMAX =           8
 
 Optimization of the real space projectors (new method)

 maximal supplied QI-value         = 22.11
 optimisation between [QCUT,QGAM] = [ 11.94, 23.88] = [ 39.92,159.67] Ry 
 Optimized for a Real-space Cutoff    1.18 Angstroem

   l    n(q)    QCUT    max X(q) W(low)/X(q) W(high)/X(q)  e(spline) 
   0      8    11.939    53.033    0.11E-03    0.34E-03    0.60E-07
   0      8    11.939    34.740    0.11E-03    0.34E-03    0.59E-07
   1      8    11.939    30.949    0.22E-03    0.20E-03    0.17E-06
   1      8    11.939    19.518    0.20E-03    0.18E-03    0.16E-06
 Optimization of the real space projectors (new method)

 maximal supplied QI-value         = 25.13
 optimisation between [QCUT,QGAM] = [ 11.81, 23.88] = [ 39.08,159.64] Ry 
 Optimized for a Real-space Cutoff    1.41 Angstroem

   l    n(q)    QCUT    max X(q) W(low)/X(q) W(high)/X(q)  e(spline) 
   0     10    11.813    79.467    0.48E-04    0.30E-04    0.67E-06
   0     10    11.813    66.151    0.47E-04    0.30E-04    0.67E-06
   1     10    11.813    20.169    0.11E-03    0.17E-03    0.11E-05
   1     10    11.813    14.454    0.11E-03    0.17E-03    0.11E-05
 Optimization of the real space projectors (new method)

 maximal supplied QI-value         = 25.13
 optimisation between [QCUT,QGAM] = [ 11.81, 23.88] = [ 39.08,159.64] Ry 
 Optimized for a Real-space Cutoff    1.18 Angstroem

   l    n(q)    QCUT    max X(q) W(low)/X(q) W(high)/X(q)  e(spline) 
   0      8    11.813   115.676    0.10E-03    0.16E-03    0.35E-06
   0      8    11.813    87.132    0.10E-03    0.16E-03    0.35E-06
   1      8    11.813     4.429    0.16E-03    0.13E-04    0.22E-06
   1      8    11.813     2.733    0.13E-03    0.10E-04    0.18E-06
 Optimization of the real space projectors (new method)

 maximal supplied QI-value         = 24.76
 optimisation between [QCUT,QGAM] = [ 11.88, 24.01] = [ 39.54,161.47] Ry 
 Optimized for a Real-space Cutoff    1.18 Angstroem

   l    n(q)    QCUT    max X(q) W(low)/X(q) W(high)/X(q)  e(spline) 
   0      8    11.883    14.049    0.56E-04    0.86E-04    0.22E-06
   0      8    11.883     8.945    0.81E-04    0.11E-03    0.30E-06
   1      8    11.883     7.086    0.16E-03    0.15E-04    0.31E-06
   1      8    11.883     6.747    0.15E-03    0.14E-04    0.28E-06
 Optimization of the real space projectors (new method)

 maximal supplied QI-value         = 24.76
 optimisation between [QCUT,QGAM] = [ 11.88, 24.01] = [ 39.54,161.47] Ry 
 Optimized for a Real-space Cutoff    1.18 Angstroem

   l    n(q)    QCUT    max X(q) W(low)/X(q) W(high)/X(q)  e(spline) 
   0      8    11.883    20.381    0.86E-04    0.11E-03    0.31E-06
   0      8    11.883    15.268    0.94E-04    0.12E-03    0.33E-06
   1      8    11.883     5.964    0.19E-03    0.18E-04    0.33E-06
   1      8    11.883     5.382    0.17E-03    0.20E-04    0.29E-06
  PAW_PBE B 06Sep2000                   :
 energy of atom  1       EATOM=  -71.1703
 kinetic energy error for atom=    0.0009 (will be added to EATOM!!)
  PAW_PBE N 08Apr2002                   :
 energy of atom  2       EATOM= -264.5486
 kinetic energy error for atom=    0.0116 (will be added to EATOM!!)
  PAW_PBE C 08Apr2002                   :
 energy of atom  3       EATOM= -147.1560
 kinetic energy error for atom=    0.0066 (will be added to EATOM!!)
  PAW_PBE F 08Apr2002                   :
 energy of atom  4       EATOM= -659.6475
 kinetic energy error for atom=    0.0296 (will be added to EATOM!!)
  PAW_PBE O 08Apr2002                   :
 energy of atom  5       EATOM= -432.3788
 kinetic energy error for atom=    0.0194 (will be added to EATOM!!)
 
 
 POSCAR: B N C F O                               
  positions in direct lattice
  velocities in cartesian coordinates

 METAGGA = SCAN     LMAXTAU =  6    LMIXTAU =  F

 exchange correlation table for  LEXCH =        8
   RHO(1)=    0.500       N(1)  =     2000
   RHO(2)=  100.500       N(2)  =     4000
 


--------------------------------------------------------------------------------------------------------


 ion  position               nearest neighbor table
   1  0.167  0.083  0.500-  20 1.45  17 1.45  21 1.45
   2  0.167  0.333  0.500-  18 1.45  17 1.45  22 1.45
   3  0.167  0.583  0.500-  19 1.45  18 1.45  23 1.45
   4  0.167  0.833  0.500-  19 1.45  20 1.45  24 1.45
   5  0.417  0.083  0.500-  24 1.45  25 1.45  21 1.45
   6  0.417  0.333  0.500-  21 1.45  26 1.45  22 1.45
   7  0.417  0.583  0.500-  23 1.45  22 1.45  27 1.45
   8  0.417  0.833  0.500-  24 1.45  28 1.45  23 1.45
   9  0.667  0.083  0.500-  29 1.45  25 1.45  28 1.45
  10  0.667  0.333  0.500-  30 1.45  25 1.45  26 1.45
  11  0.667  0.583  0.500-  31 1.45  26 1.45  27 1.45
  12  0.667  0.833  0.500-  32 1.45  28 1.45  27 1.45
  13  0.917  0.083  0.500-  29 1.45  17 1.45  32 1.45
  14  0.917  0.333  0.500-  29 1.45  18 1.45  30 1.45
  15  0.917  0.583  0.500-  19 1.45  30 1.45  31 1.45
  16  0.917  0.833  0.500-  20 1.45  32 1.45  31 1.45
  17  0.083  0.167  0.500-   2 1.45   1 1.45  13 1.45
  18  0.083  0.417  0.500-   2 1.45   3 1.45  14 1.45
  19  0.083  0.667  0.500-  15 1.45   3 1.45   4 1.45
  20  0.083  0.917  0.500-  16 1.45   1 1.45   4 1.45
  21  0.333  0.167  0.500-   6 1.45   5 1.45   1 1.45
  22  0.333  0.417  0.500-   7 1.45   6 1.45   2 1.45
  23  0.333  0.667  0.500-   7 1.45   8 1.45   3 1.45
  24  0.333  0.917  0.500-   8 1.45   5 1.45   4 1.45
  25  0.583  0.167  0.500-  10 1.45   5 1.45   9 1.45
  26  0.583  0.417  0.500-  11 1.45   6 1.45  10 1.45
  27  0.583  0.667  0.500-   7 1.45  11 1.45  12 1.45
  28  0.583  0.917  0.500-  12 1.45   8 1.45   9 1.45
  29  0.833  0.167  0.500-   9 1.45  13 1.45  14 1.45
  30  0.833  0.417  0.500-  10 1.45  15 1.45  14 1.45
  31  0.833  0.667  0.500-  11 1.45  16 1.45  15 1.45
  32  0.833  0.917  0.500-  12 1.45  16 1.45  13 1.45
  33  0.559  0.470  0.673-  36 1.34  37 1.34  38 1.34  34 1.54
  34  0.531  0.474  0.630-  40 1.36  39 1.36  33 1.54  35 1.54
  35  0.514  0.612  0.618-  42 1.25  41 1.25  34 1.54
  36  0.691  0.595  0.683-  33 1.34
  37  0.566  0.344  0.682-  33 1.34
  38  0.444  0.468  0.693-  33 1.34
  39  0.651  0.476  0.612-  34 1.36
  40  0.401  0.340  0.621-  34 1.36
  41  0.635  0.736  0.611-  35 1.25
  42  0.382  0.592  0.615-  35 1.25
 

IMPORTANT INFORMATION: All symmetrisations will be switched off!
NOSYMM: (Re-)initialisation of all symmetry stuff for point group C_1.

 
 
 KPOINTS: K-Point Grid                            

Automatic generation of k-mesh.
Space group operators:
 irot       det(A)        alpha          n_x          n_y          n_z        tau_x        tau_y        tau_z
    1     1.000000     0.000000     1.000000     0.000000     0.000000     0.000000     0.000000     0.000000
 
 Subroutine IBZKPT returns following result:
 ===========================================
 
 Found     24 irreducible k-points:
 
 Following reciprocal coordinates:
            Coordinates               Weight
  0.125000  0.125000  0.000000     16.000000
  0.250000 -0.125000  0.000000     16.000000
  0.125000 -0.250000  0.000000     16.000000
  0.375000  0.125000  0.000000     16.000000
  0.500000 -0.375000  0.000000     16.000000
  0.125000  0.500000  0.000000     16.000000
 -0.125000 -0.375000  0.000000     16.000000
  0.375000  0.500000  0.000000     16.000000
  0.500000 -0.125000  0.000000     16.000000
 -0.375000  0.125000  0.000000     16.000000
 -0.250000  0.375000  0.000000     16.000000
  0.125000  0.250000  0.000000     16.000000
 -0.125000  0.375000  0.000000     16.000000
 -0.375000  0.250000  0.000000     16.000000
 -0.250000 -0.125000  0.000000     16.000000
 -0.125000  0.125000  0.000000     16.000000
  0.000000  0.125000  0.000000     16.000000
  0.125000  0.000000  0.000000     16.000000
  0.375000  0.375000  0.000000     16.000000
 -0.250000 -0.375000  0.000000     16.000000
  0.375000  0.250000  0.000000     16.000000
 -0.375000  0.375000  0.000000     16.000000
  0.000000  0.375000  0.000000     16.000000
  0.375000  0.000000  0.000000     16.000000
 
 Following cartesian coordinates:
            Coordinates               Weight
  0.024879  0.000000  0.000000     16.000000
  0.012439 -0.021546  0.000000     16.000000
 -0.012439 -0.021546  0.000000     16.000000
  0.049758 -0.014364  0.000000     16.000000
  0.012439 -0.050273  0.000000     16.000000
  0.062197  0.021546  0.000000     16.000000
 -0.049758 -0.014364  0.000000     16.000000
  0.087076  0.007182  0.000000     16.000000
  0.037318 -0.035909  0.000000     16.000000
 -0.024879  0.028727  0.000000     16.000000
  0.012439  0.035909  0.000000     16.000000
  0.037318  0.007182  0.000000     16.000000
  0.024879  0.028727  0.000000     16.000000
 -0.012439  0.035909  0.000000     16.000000
 -0.037318  0.007182  0.000000     16.000000
  0.000000  0.014364  0.000000     16.000000
  0.012439  0.007182  0.000000     16.000000
  0.012439 -0.007182  0.000000     16.000000
  0.074636  0.000000  0.000000     16.000000
 -0.062197 -0.007182  0.000000     16.000000
  0.062197 -0.007182  0.000000     16.000000
  0.000000  0.043091  0.000000     16.000000
  0.037318  0.021546  0.000000     16.000000
  0.037318 -0.021546  0.000000     16.000000
 


--------------------------------------------------------------------------------------------------------




 Dimension of arrays:
   k-points           NKPTS =     24   k-points in BZ     NKDIM =     24   number of bands    NBANDS=    144
   number of dos      NEDOS =   1200   number of ions     NIONS =     42
   non local maximal  LDIM  =      4   non local SUM 2l+1 LMDIM =      8
   total plane-waves  NPLWV = ******
   max r-space proj   IRMAX =   6598   max aug-charges    IRDMAX=   8974
   dimension x,y,z NGX =    80 NGY =   80 NGZ =  270
   dimension x,y,z NGXF=   160 NGYF=  160 NGZF=  540
   support grid    NGXF=   160 NGYF=  160 NGZF=  540
   ions per type =              16  16   3   5   2
   NGX,Y,Z   is equivalent  to a cutoff of  13.24, 13.24, 12.78 a.u.
   NGXF,Y,Z  is equivalent  to a cutoff of  26.47, 26.47, 25.57 a.u.

 SYSTEM =  SiC                                     
 POSCAR =  B N C F O                               

 Startparameter for this run:
   NWRITE =      2    write-flag & timer
   PREC   = accura    normal or accurate (medium, high low for compatibility)
   ISTART =      1    job   : 0-new  1-cont  2-samecut
   ICHARG =      0    charge: 1-file 2-atom 10-const
   ISPIN  =      2    spin polarized calculation?
   LNONCOLLINEAR =      F non collinear calculations
   LSORBIT =      F    spin-orbit coupling
   INIWAV =      1    electr: 0-lowe 1-rand  2-diag
   LASPH  =      T    aspherical Exc in radial PAW
   METAGGA=      F    non-selfconsistent MetaGGA calc.

 Electronic Relaxation 1
   ENCUT  =  550.0 eV  40.42 Ry    6.36 a.u.  19.22 19.22 67.15*2*pi/ulx,y,z
   ENINI  =  550.0     initial cutoff
   ENAUG  =  644.9 eV  augmentation charge cutoff
   NELM   =    100;   NELMIN=  2; NELMDL=  0     # of ELM steps 
   EDIFF  = 0.1E-04   stopping-criterion for ELM
   LREAL  =      T    real-space projection
   NLSPLINE    = F    spline interpolate recip. space projectors
   LCOMPAT=      F    compatible to vasp.4.4
   GGA_COMPAT  = T    GGA compatible to vasp.4.4-vasp.4.6
   LMAXPAW     = -100 max onsite density
   LMAXMIX     =    2 max onsite mixed and CHGCAR
   VOSKOWN=      0    Vosko Wilk Nusair interpolation
   ROPT   =   -0.00025  -0.00025  -0.00025  -0.00025
   ROPT   =   -0.00025
 Ionic relaxation
   EDIFFG = -.2E-01   stopping-criterion for IOM
   NSW    =    500    number of steps for IOM
   NBLOCK =      1;   KBLOCK =    500    inner block; outer block 
   IBRION =      2    ionic relax: 0-MD 1-quasi-New 2-CG
   NFREE  =      1    steps in history (QN), initial steepest desc. (CG)
   ISIF   =      2    stress and relaxation
   IWAVPR =     11    prediction:  0-non 1-charg 2-wave 3-comb
   ISYM   =      0    0-nonsym 1-usesym 2-fastsym
   LCORR  =      T    Harris-Foulkes like correction to forces

   POTIM  = 0.5000    time-step for ionic-motion
   TEIN   =    0.0    initial temperature
   TEBEG  =    0.0;   TEEND  =   0.0 temperature during run
   SMASS  =  -3.00    Nose mass-parameter (am)
   estimated Nose-frequenzy (Omega)   =  0.10E-29 period in steps =****** mass=  -0.231E-26a.u.
   SCALEE = 1.0000    scale energy and forces
   NPACO  =    256;   APACO  = 16.0  distance and # of slots for P.C.
   PSTRESS=    0.0 pullay stress

  Mass of Ions in am
   POMASS =  10.81 14.00 12.01 19.00 16.00
  Ionic Valenz
   ZVAL   =   3.00  5.00  4.00  7.00  6.00
  Atomic Wigner-Seitz radii
   RWIGS  =  -1.00 -1.00 -1.00 -1.00 -1.00
  virtual crystal weights 
   VCA    =   1.00  1.00  1.00  1.00  1.00
   NELECT =     186.4000    total number of electrons
   NUPDOWN=      -1.0000    fix difference up-down

 DOS related values:
   EMIN   =  10.00;   EMAX   =-10.00  energy-range for DOS
   EFERMI =   0.00
   ISMEAR =     0;   SIGMA  =   0.05  broadening in eV -4-tet -1-fermi 0-gaus

 Electronic relaxation 2 (details)
   IALGO  =     68    algorithm
   LDIAG  =      T    sub-space diagonalisation (order eigenvalues)
   LSUBROT=      F    optimize rotation matrix (better conditioning)
   TURBO    =      0    0=normal 1=particle mesh
   IRESTART =      0    0=no restart 2=restart with 2 vectors
   NREBOOT  =      0    no. of reboots
   NMIN     =      0    reboot dimension
   EREF     =   0.00    reference energy to select bands
   IMIX   =      4    mixing-type and parameters
     AMIX     =   0.40;   BMIX     =  1.00
     AMIX_MAG =   1.60;   BMIX_MAG =  1.00
     AMIN     =   0.10
     WC   =   100.;   INIMIX=   1;  MIXPRE=   1;  MAXMIX= -45

 Intra band minimization:
   WEIMIN = 0.0010     energy-eigenvalue tresh-hold
   EBREAK =  0.17E-07  absolut break condition
   DEPER  =   0.30     relativ break condition  

   TIME   =   0.40     timestep for ELM

  volume/ion in A,a.u.               =      73.11       493.39
  Fermi-wavevector in a.u.,A,eV,Ry     =   0.643392  1.215834  5.632173  0.413953
  Thomas-Fermi vector in A             =   1.710376
 
 Write flags
   LWAVE        =      T    write WAVECAR
   LDOWNSAMPLE  =      F    k-point downsampling of WAVECAR
   LCHARG       =      F    write CHGCAR
   LVTOT        =      F    write LOCPOT, total local potential
   LVHAR        =      T    write LOCPOT, Hartree potential only
   LELF         =      F    write electronic localiz. function (ELF)
   LORBIT       =     11    0 simple, 1 ext, 2 COOP (PROOUT), +10 PAW based schemes


 Dipole corrections
   LMONO  =      F    monopole corrections only (constant potential shift)
   LDIPOL =      F    correct potential (dipole corrections)
   IDIPOL =      0    1-x, 2-y, 3-z, 4-all directions 
   EPSILON=  1.0000000 bulk dielectric constant

 Exchange correlation treatment:
   GGA     =    --    GGA type
   LEXCH   =     8    internal setting for exchange type
   VOSKOWN=      0    Vosko Wilk Nusair interpolation
   LHFCALC =     F    Hartree Fock is set to
   LHFONE  =     F    Hartree Fock one center treatment
   AEXX    =    0.0000 exact exchange contribution

 Linear response parameters
   LEPSILON=     F    determine dielectric tensor
   LRPA    =     F    only Hartree local field effects (RPA)
   LNABLA  =     F    use nabla operator in PAW spheres
   LVEL    =     F    velocity operator in full k-point grid
   LINTERFAST=   F  fast interpolation
   KINTER  =     0    interpolate to denser k-point grid
   CSHIFT  =0.1000    complex shift for real part using Kramers Kronig
   OMEGAMAX=  -1.0    maximum frequency
   DEG_THRESHOLD= 0.2000000E-02 threshold for treating states as degnerate
   RTIME   =   -0.100 relaxation time in fs
  (WPLASMAI=    0.000 imaginary part of plasma frequency in eV, 0.658/RTIME)
   DFIELD  = 0.0000000 0.0000000 0.0000000 field for delta impulse in time
 
 Orbital magnetization related:
   ORBITALMAG=     F  switch on orbital magnetization
   LCHIMAG   =     F  perturbation theory with respect to B field
   DQ        =  0.001000  dq finite difference perturbation B field
   LLRAUG    =     F  two centre corrections for induced B field

 Solvation model:
   LSOL    =     T         switch on solvation model
   EB_K    = 78.400000     relative permittivity of the bulk solvent
   SIGMA_K =  0.600000     width of the dielectric cavity
   NC_K    =  0.002500     cutoff charge density
   TAU     =  0.000000     cavity surface tension
   LAMBDA_D_K    =  3.040000     Debye length in Angstroms
   LRHOB     =     F     write boundcharge  density
   LRHOION     =     F     write ioniccharge density



--------------------------------------------------------------------------------------------------------


 conjugate gradient relaxation of ions
   using selective dynamics as specified on POSCAR
 charge density and potential will be updated during run
 spin polarized calculation
 RMM-DIIS sequential band-by-band and
  variant of blocked Davidson during initial phase
 perform sub-space diagonalisation
    before iterative eigenvector-optimisation
 modified Broyden-mixing scheme, WC =      100.0
 initial mixing is a Kerker type mixing with AMIX =  0.4000 and BMIX =      1.0000
 Hartree-type preconditioning will be used
 using additional bands           50
 real space projection scheme for non local part
 use partial core corrections
 calculate Harris-corrections to forces 
   (improved forces if not selfconsistent)
 use gradient corrections 
 use of overlap-Matrix (Vanderbilt PP)
 Gauss-broadening in eV      SIGMA  =   0.05


--------------------------------------------------------------------------------------------------------


  energy-cutoff  :      550.00
  volume of cell :     3070.74
      direct lattice vectors                 reciprocal lattice vectors
     5.024366704 -8.702497373  0.000000000     0.099515029 -0.057454772  0.000000000
     5.024366704  8.702497373  0.000000000     0.099515029  0.057454772  0.000000000
     0.000000000  0.000000000 35.114664386     0.000000000  0.000000000  0.028478131

  length of vectors
    10.048767154 10.048767154 35.114664386     0.114909929  0.114909929  0.028478131


 
 old parameters found on file WAVECAR:
  energy-cutoff  :      550.00
  volume of cell :     3070.74
      direct lattice vectors                 reciprocal lattice vectors
     5.024366704 -8.702497373  0.000000000     0.099515029 -0.057454772  0.000000000
     5.024366704  8.702497373  0.000000000     0.099515029  0.057454772  0.000000000
     0.000000000  0.000000000 35.114664386     0.000000000  0.000000000  0.028478131

  length of vectors

 
 k-points in units of 2pi/SCALE and weight: K-Point Grid                            
   0.02487876  0.00000000  0.00000000       0.042
   0.01243938 -0.02154554  0.00000000       0.042
  -0.01243938 -0.02154554  0.00000000       0.042
   0.04975751 -0.01436369  0.00000000       0.042
   0.01243938 -0.05027293  0.00000000       0.042
   0.06219689  0.02154554  0.00000000       0.042
  -0.04975751 -0.01436369  0.00000000       0.042
   0.08707565  0.00718185  0.00000000       0.042
   0.03731814 -0.03590923  0.00000000       0.042
  -0.02487876  0.02872739  0.00000000       0.042
   0.01243938  0.03590923  0.00000000       0.042
   0.03731814  0.00718185  0.00000000       0.042
   0.02487876  0.02872739  0.00000000       0.042
  -0.01243938  0.03590923  0.00000000       0.042
  -0.03731814  0.00718185  0.00000000       0.042
   0.00000000  0.01436369  0.00000000       0.042
   0.01243938  0.00718185  0.00000000       0.042
   0.01243938 -0.00718185  0.00000000       0.042
   0.07463627  0.00000000  0.00000000       0.042
  -0.06219689 -0.00718185  0.00000000       0.042
   0.06219689 -0.00718185  0.00000000       0.042
   0.00000000  0.04309108  0.00000000       0.042
   0.03731814  0.02154554  0.00000000       0.042
   0.03731814 -0.02154554  0.00000000       0.042
 
 k-points in reciprocal lattice and weights: K-Point Grid                            
   0.12500000  0.12500000  0.00000000       0.042
   0.25000000 -0.12500000  0.00000000       0.042
   0.12500000 -0.25000000  0.00000000       0.042
   0.37500000  0.12500000  0.00000000       0.042
   0.50000000 -0.37500000  0.00000000       0.042
   0.12500000  0.50000000  0.00000000       0.042
  -0.12500000 -0.37500000  0.00000000       0.042
   0.37500000  0.50000000  0.00000000       0.042
   0.50000000 -0.12500000  0.00000000       0.042
  -0.37500000  0.12500000  0.00000000       0.042
  -0.25000000  0.37500000  0.00000000       0.042
   0.12500000  0.25000000  0.00000000       0.042
  -0.12500000  0.37500000  0.00000000       0.042
  -0.37500000  0.25000000  0.00000000       0.042
  -0.25000000 -0.12500000  0.00000000       0.042
  -0.12500000  0.12500000  0.00000000       0.042
   0.00000000  0.12500000  0.00000000       0.042
   0.12500000  0.00000000  0.00000000       0.042
   0.37500000  0.37500000  0.00000000       0.042
  -0.25000000 -0.37500000  0.00000000       0.042
   0.37500000  0.25000000  0.00000000       0.042
  -0.37500000  0.37500000  0.00000000       0.042
   0.00000000  0.37500000  0.00000000       0.042
   0.37500000  0.00000000  0.00000000       0.042
 
 position of ions in fractional coordinates (direct lattice) 
   0.16663900  0.08333450  0.50005788
   0.16661862  0.33332692  0.50008177
   0.16663735  0.58333980  0.50006666
   0.16664652  0.83334151  0.50005009
   0.41665092  0.08333121  0.50006311
   0.41663415  0.33331435  0.50007976
   0.41662487  0.58334975  0.50008196
   0.41664852  0.83335180  0.50008081
   0.66665974  0.08334604  0.50008220
   0.66666237  0.33332711  0.50009757
   0.66667705  0.58335686  0.50010602
   0.66665946  0.83336950  0.50012556
   0.91664464  0.08334407  0.50007751
   0.91664813  0.33333314  0.50007076
   0.91665999  0.58333926  0.50007833
   0.91665611  0.83335032  0.50008815
   0.08331505  0.16667667  0.50005741
   0.08331942  0.41667739  0.50006102
   0.08331577  0.66667392  0.50004661
   0.08331225  0.91667490  0.50004745
   0.33331815  0.16667619  0.50005621
   0.33332390  0.41668259  0.50010108
   0.33331699  0.66667626  0.50006112
   0.33331587  0.91667322  0.50004538
   0.58331703  0.16667494  0.50006995
   0.58331178  0.41668479  0.50012628
   0.58329869  0.66665969  0.50014407
   0.58331396  0.91666853  0.50008867
   0.83331474  0.16667275  0.50006345
   0.83331295  0.41667390  0.50007816
   0.83331105  0.66667297  0.50008883
   0.83330332  0.91666588  0.50009099
   0.55877297  0.47034633  0.67307904
   0.53076823  0.47413613  0.63013614
   0.51438480  0.61235815  0.61751960
   0.69111904  0.59450007  0.68348879
   0.56631761  0.34441274  0.68206123
   0.44367431  0.46815924  0.69302287
   0.65090945  0.47586182  0.61166184
   0.40114311  0.33994533  0.62142135
   0.63513189  0.73611790  0.61134524
   0.38194185  0.59247399  0.61463432
 
 position of ions in cartesian coordinates  (Angst):
   1.25595851 -0.72495721 17.55936467
   2.51190976  1.45077851 17.56020355
   3.76816021  3.62635196 17.55967286
   5.02430657  5.80191148 17.55909126
   2.51209353 -2.90071388 17.55954820
   3.76801630 -0.72509038 17.56013291
   5.02423915  1.45092285 17.56021020
   6.28045999  3.62635917 17.56016992
   3.76830405 -5.07628597 17.56021852
   5.02431386 -2.90084919 17.56075842
   6.28062877 -0.72509373 17.56105520
   7.53669552  1.45079369 17.56174124
   5.02430999 -7.25179607 17.56005384
   6.28036429 -5.07629718 17.55981707
   7.53654627 -2.90072281 17.56008286
   8.79267408 -0.72496842 17.56042764
   1.25605011  0.72545430 17.55934828
   2.51216729  2.90104683 17.55947506
   3.76822324  5.07667273 17.55896881
   5.02430218  7.25233627 17.55899855
   2.51215494 -1.45020124 17.55930615
   3.76830761  0.72542878 17.56088167
   5.02433277  2.90105819 17.55947825
   6.28040359  5.07666576 17.55892567
   3.76823466 -3.62582668 17.55978848
   5.02434946 -1.45007090 17.56176632
   6.28024930  0.72544890 17.56239116
   7.53646205  2.90101728 17.56044573
   5.02430386 -5.80145016 17.55956006
   6.28039228 -3.62580023 17.56007667
   7.53646975 -1.45016745 17.56045126
   8.79248702  0.72546248 17.56052738
   5.17067277 -0.76953265 23.63494458
   5.04900802 -0.49284068 22.12701891
   5.66116980  0.85261281 21.68399360
   6.45942184 -0.84082639 24.00047948
   4.57584326 -1.93112649 23.95035126
   4.58138616  0.21308006 24.33526537
   5.66131207 -1.52335155 21.47830015
   3.72350007 -0.53257346 21.82100218
   6.88966176  0.87883049 21.46718289
   4.89582251  1.83215547 21.58267787
 


--------------------------------------------------------------------------------------------------------


 k-point  1 :   0.1250 0.1250 0.0000  plane waves:   89921
 k-point  2 :   0.2500-0.1250 0.0000  plane waves:   89921
 k-point  3 :   0.1250-0.2500 0.0000  plane waves:   89921
 k-point  4 :   0.3750 0.1250 0.0000  plane waves:   89970
 k-point  5 :   0.5000-0.3750 0.0000  plane waves:   89970
 k-point  6 :   0.1250 0.5000 0.0000  plane waves:   89970
 k-point  7 :  -0.1250-0.3750 0.0000  plane waves:   89970
 k-point  8 :   0.3750 0.5000 0.0000  plane waves:   89970
 k-point  9 :   0.5000-0.1250 0.0000  plane waves:   89970
 k-point 10 :  -0.3750 0.1250 0.0000  plane waves:   89943
 k-point 11 :  -0.2500 0.3750 0.0000  plane waves:   89943
 k-point 12 :   0.1250 0.2500 0.0000  plane waves:   89943
 k-point 13 :  -0.1250 0.3750 0.0000  plane waves:   89943
 k-point 14 :  -0.3750 0.2500 0.0000  plane waves:   89943
 k-point 15 :  -0.2500-0.1250 0.0000  plane waves:   89943
 k-point 16 :  -0.1250 0.1250 0.0000  plane waves:   89893
 k-point 17 :   0.0000 0.1250 0.0000  plane waves:   89893
 k-point 18 :   0.1250 0.0000 0.0000  plane waves:   89893
 k-point 19 :   0.3750 0.3750 0.0000  plane waves:   89957
 k-point 20 :  -0.2500-0.3750 0.0000  plane waves:   89957
 k-point 21 :   0.3750 0.2500 0.0000  plane waves:   89957
 k-point 22 :  -0.3750 0.3750 0.0000  plane waves:   89980
 k-point 23 :   0.0000 0.3750 0.0000  plane waves:   89980
 k-point 24 :   0.3750 0.0000 0.0000  plane waves:   89980

 maximum and minimum number of plane-waves per node :     89980    89893

 maximum number of plane-waves:     89980
 maximum index in each direction: 
   IXMAX=   19   IYMAX=   19   IZMAX=   67
   IXMIN=  -19   IYMIN=  -19   IZMIN=  -67


 serial   3D FFT for wavefunctions
 parallel 3D FFT for charge:
    minimum data exchange during FFTs selected (reduces bandwidth)


 total amount of memory used by VASP MPI-rank0  1323185. kBytes
=======================================================================

   base      :      30000. kBytes
   nonlr-proj:      18699. kBytes
   fftplans  :      47149. kBytes
   grid      :     394654. kBytes
   one-center:        258. kBytes
   wavefun   :     832425. kBytes
 
     INWAV:  cpu time   23.6658: real time   27.0432
 Broyden mixing: mesh for mixing (old mesh)
   NGX = 39   NGY = 39   NGZ =135
  (NGX  =160   NGY  =160   NGZ  =540)
  gives a total of 205335 points

 charge density for first step will be calculated from the start-wavefunctions


--------------------------------------------------------------------------------------------------------


 Maximum index for non-local projection operator         6374
 Maximum index for augmentation-charges          736 (set IRDMAX)


--------------------------------------------------------------------------------------------------------


 initial charge from wavefunction
 First call to EWALD:  gamma=   0.122
 Maximum number of real-space cells 4x 4x 1
 Maximum number of reciprocal cells 2x 2x 6

    FEWALD:  cpu time    0.0431: real time    0.0561


--------------------------------------- Iteration      1(   1)  ---------------------------------------


    POTLOK:  cpu time   56.2978: real time   56.3450
    SETDIJ:  cpu time    1.7126: real time    1.5170
     EDDAV:  cpu time  270.8797: real time  150.0174
       DOS:  cpu time    0.0811: real time    0.0775
    CHARGE:  cpu time   33.2475: real time   32.4217
    MIXING:  cpu time    0.1456: real time    0.0851
    --------------------------------------------
      LOOP:  cpu time  362.3644: real time  240.4638

 eigenvalue-minimisations  : 10152
 total energy-change (2. order) :-0.3828444E+03  (-0.3077972E-06)
 number of electron     186.3999998 magnetization      -0.4473370
 augmentation part       11.4535349 magnetization       0.0340277

 Broyden mixing:
  rms(total) = 0.14642E+00    rms(broyden)= 0.14618E+00
  rms(prec ) = 0.15359E+00
  weight for this iteration     100.00

 Free energy of the ion-electron system (eV)
  ---------------------------------------------------
  alpha Z        PSCENC =        57.55240194
  Ewald energy   TEWEN  =     62195.27618817
  -Hartree energ DENC   =    -70524.99964131
  -exchange      EXHF   =         0.00000000
  -V(xc)+E(xc)   XCENC  =       895.19467711
  PAW double counting   =     20933.28381374   -21029.60658363
  entropy T*S    EENTRO =        -0.02264863
  eigenvalues    EBANDS =     -2858.10647235
  atomic energy  EATOM  =      9975.55785330
  Solvation  Ediel_sol  =       -26.97403615
  ---------------------------------------------------
  free energy    TOTEN  =      -382.84444780 eV

  energy without entropy =     -382.82179917  energy(sigma->0) =     -382.83312349


--------------------------------------------------------------------------------------------------------




--------------------------------------- Iteration      1(   2)  ---------------------------------------


    POTLOK:  cpu time   48.4055: real time   48.5131
    SETDIJ:  cpu time    0.5922: real time    0.3956
    EDDIAG:  cpu time   56.0050: real time   40.8168
  RMM-DIIS:  cpu time  382.4555: real time  234.4639
    ORTHCH:  cpu time    1.6159: real time    0.8098
       DOS:  cpu time    0.0053: real time    0.0027
    CHARGE:  cpu time   33.2282: real time   32.3873
    MIXING:  cpu time    0.1419: real time    0.0886
    --------------------------------------------
      LOOP:  cpu time  522.4495: real time  357.4777

 eigenvalue-minimisations  : 13824
 total energy-change (2. order) : 0.1921861E-01  (-0.1729059E-01)
 number of electron     186.3999998 magnetization      -0.4457344
 augmentation part       11.5021842 magnetization      -0.1818117

 Broyden mixing:
  rms(total) = 0.19414E+00    rms(broyden)= 0.19400E+00
  rms(prec ) = 0.20087E+00
  weight for this iteration     100.00

 eigenvalues of (default mixing * dielectric matrix)
  average eigenvalue GAMMA=   0.4077
  0.4077

 Free energy of the ion-electron system (eV)
  ---------------------------------------------------
  alpha Z        PSCENC =        57.55240194
  Ewald energy   TEWEN  =     62195.27618817
  -Hartree energ DENC   =    -70498.58349510
  -exchange      EXHF   =         0.00000000
  -V(xc)+E(xc)   XCENC  =       894.53851704
  PAW double counting   =     20915.57661623   -21011.86634559
  entropy T*S    EENTRO =        -0.02568546
  eigenvalues    EBANDS =     -2870.87486279
  atomic energy  EATOM  =      9975.55785330
  Solvation  Ediel_sol  =       -39.97641694
  ---------------------------------------------------
  free energy    TOTEN  =      -382.82522919 eV

  energy without entropy =     -382.79954373  energy(sigma->0) =     -382.81238646


--------------------------------------------------------------------------------------------------------




--------------------------------------- Iteration      1(   3)  ---------------------------------------


    POTLOK:  cpu time   46.6788: real time   46.7687
    SETDIJ:  cpu time    0.5897: real time    0.3931
    EDDIAG:  cpu time   55.8469: real time   40.6334
  RMM-DIIS:  cpu time  382.8622: real time  234.6978
    ORTHCH:  cpu time    1.5986: real time    0.8012
       DOS:  cpu time    0.0035: real time    0.0017
    CHARGE:  cpu time   33.1803: real time   32.3185
    MIXING:  cpu time    0.1376: real time    0.0690
    --------------------------------------------
      LOOP:  cpu time  520.8976: real time  355.6835

 eigenvalue-minimisations  : 13824
 total energy-change (2. order) :-0.7343039E-03  (-0.5056209E-02)
 number of electron     186.3999998 magnetization      -0.4444028
 augmentation part       11.4994626 magnetization      -0.1629237

 Broyden mixing:
  rms(total) = 0.10537E+00    rms(broyden)= 0.10536E+00
  rms(prec ) = 0.11423E+00
  weight for this iteration     100.00

 eigenvalues of (default mixing * dielectric matrix)
  average eigenvalue GAMMA=   0.5010
  0.5010  0.5010

 Free energy of the ion-electron system (eV)
  ---------------------------------------------------
  alpha Z        PSCENC =        57.55240194
  Ewald energy   TEWEN  =     62195.27618817
  -Hartree energ DENC   =    -70489.98913633
  -exchange      EXHF   =         0.00000000
  -V(xc)+E(xc)   XCENC  =       894.68429374
  PAW double counting   =     20911.35570017   -21007.62483419
  entropy T*S    EENTRO =        -0.02579709
  eigenvalues    EBANDS =     -2872.50957666
  atomic energy  EATOM  =      9975.55785330
  Solvation  Ediel_sol  =       -47.10305655
  ---------------------------------------------------
  free energy    TOTEN  =      -382.82596349 eV

  energy without entropy =     -382.80016641  energy(sigma->0) =     -382.81306495


--------------------------------------------------------------------------------------------------------




--------------------------------------- Iteration      1(   4)  ---------------------------------------


    POTLOK:  cpu time   45.9223: real time   46.0356
    SETDIJ:  cpu time    0.5905: real time    0.3939
    EDDIAG:  cpu time   55.9129: real time   40.6876
  RMM-DIIS:  cpu time  382.7049: real time  234.6020
    ORTHCH:  cpu time    1.5607: real time    0.7822
       DOS:  cpu time    0.0034: real time    0.0017
    CHARGE:  cpu time   33.3030: real time   32.4644
    MIXING:  cpu time    0.1409: real time    0.0706
    --------------------------------------------
      LOOP:  cpu time  520.1387: real time  355.0381

 eigenvalue-minimisations  : 13824
 total energy-change (2. order) :-0.2117840E-02  (-0.1530326E-02)
 number of electron     186.3999998 magnetization      -0.4499464
 augmentation part       11.4594722 magnetization       0.1288892

 Broyden mixing:
  rms(total) = 0.21176E+00    rms(broyden)= 0.21140E+00
  rms(prec ) = 0.21999E+00
  weight for this iteration     100.00

 eigenvalues of (default mixing * dielectric matrix)
  average eigenvalue GAMMA=   0.5679
  1.0524  0.3256  0.3256

 Free energy of the ion-electron system (eV)
  ---------------------------------------------------
  alpha Z        PSCENC =        57.55240194
  Ewald energy   TEWEN  =     62195.27618817
  -Hartree energ DENC   =    -70480.46042745
  -exchange      EXHF   =         0.00000000
  -V(xc)+E(xc)   XCENC  =       894.65317962
  PAW double counting   =     20906.21102195   -21002.47810230
  entropy T*S    EENTRO =        -0.01691935
  eigenvalues    EBANDS =     -2873.97306662
  atomic energy  EATOM  =      9975.55785330
  Solvation  Ediel_sol  =       -55.15021061
  ---------------------------------------------------
  free energy    TOTEN  =      -382.82808133 eV

  energy without entropy =     -382.81116199  energy(sigma->0) =     -382.81962166


--------------------------------------------------------------------------------------------------------




--------------------------------------- Iteration      1(   5)  ---------------------------------------


    POTLOK:  cpu time   47.9482: real time   48.0564
    SETDIJ:  cpu time    0.5895: real time    0.3928
    EDDIAG:  cpu time   55.7999: real time   40.5662
  RMM-DIIS:  cpu time  382.8967: real time  234.6703
    ORTHCH:  cpu time    1.6045: real time    0.8042
       DOS:  cpu time    0.0034: real time    0.0017
    CHARGE:  cpu time   33.2125: real time   32.3360
    MIXING:  cpu time    0.1454: real time    0.0729
    --------------------------------------------
      LOOP:  cpu time  522.2002: real time  356.9005

 eigenvalue-minimisations  : 13824
 total energy-change (2. order) : 0.3620600E-02  (-0.3292803E-02)
 number of electron     186.3999998 magnetization      -0.4555610
 augmentation part       11.4727470 magnetization       0.0262584

 Broyden mixing:
  rms(total) = 0.10508E+00    rms(broyden)= 0.10507E+00
  rms(prec ) = 0.11115E+00
  weight for this iteration     100.00

 eigenvalues of (default mixing * dielectric matrix)
  average eigenvalue GAMMA=   0.6311
  1.1106  0.7571  0.3284  0.3284

 Free energy of the ion-electron system (eV)
  ---------------------------------------------------
  alpha Z        PSCENC =        57.55240194
  Ewald energy   TEWEN  =     62195.27618817
  -Hartree energ DENC   =    -70460.63264229
  -exchange      EXHF   =         0.00000000
  -V(xc)+E(xc)   XCENC  =       894.38151948
  PAW double counting   =     20897.22627336   -20993.48364280
  entropy T*S    EENTRO =        -0.02232992
  eigenvalues    EBANDS =     -2877.24648965
  atomic energy  EATOM  =      9975.55785330
  Solvation  Ediel_sol  =       -71.43359232
  ---------------------------------------------------
  free energy    TOTEN  =      -382.82446073 eV

  energy without entropy =     -382.80213082  energy(sigma->0) =     -382.81329578


--------------------------------------------------------------------------------------------------------




--------------------------------------- Iteration      1(   6)  ---------------------------------------


    POTLOK:  cpu time   46.1997: real time   46.3178
    SETDIJ:  cpu time    0.5913: real time    0.3947
    EDDIAG:  cpu time   55.9198: real time   40.6937
  RMM-DIIS:  cpu time  382.8351: real time  234.6069
    ORTHCH:  cpu time    1.6096: real time    0.8077
       DOS:  cpu time    0.0034: real time    0.0017
    CHARGE:  cpu time   33.3574: real time   32.4658
    MIXING:  cpu time    0.1726: real time    0.0967
    --------------------------------------------
      LOOP:  cpu time  520.6887: real time  355.3850

 eigenvalue-minimisations  : 13824
 total energy-change (2. order) : 0.6883701E-02  (-0.7991520E-03)
 number of electron     186.3999998 magnetization      -0.4612741
 augmentation part       11.4974692 magnetization      -0.1574247

 Broyden mixing:
  rms(total) = 0.80137E-01    rms(broyden)= 0.79746E-01
  rms(prec ) = 0.86167E-01
  weight for this iteration     100.00

 eigenvalues of (default mixing * dielectric matrix)
  average eigenvalue GAMMA=   0.8090
  1.3932  1.3932  0.5921  0.3333  0.3333

 Free energy of the ion-electron system (eV)
  ---------------------------------------------------
  alpha Z        PSCENC =        57.55240194
  Ewald energy   TEWEN  =     62195.27618817
  -Hartree energ DENC   =    -70437.79899171
  -exchange      EXHF   =         0.00000000
  -V(xc)+E(xc)   XCENC  =       894.31959149
  PAW double counting   =     20891.27949954   -20987.52849920
  entropy T*S    EENTRO =        -0.02592805
  eigenvalues    EBANDS =     -2880.31806123
  atomic energy  EATOM  =      9975.55785330
  Solvation  Ediel_sol  =       -91.13163131
  ---------------------------------------------------
  free energy    TOTEN  =      -382.81757703 eV

  energy without entropy =     -382.79164899  energy(sigma->0) =     -382.80461301


--------------------------------------------------------------------------------------------------------




--------------------------------------- Iteration      1(   7)  ---------------------------------------


    POTLOK:  cpu time   46.2779: real time   46.3718
    SETDIJ:  cpu time    0.5909: real time    0.3944
    EDDIAG:  cpu time   56.0937: real time   40.8501
  RMM-DIIS:  cpu time  383.3807: real time  234.6568
    ORTHCH:  cpu time    1.6027: real time    0.8044
       DOS:  cpu time    0.0034: real time    0.0017
    CHARGE:  cpu time   33.1460: real time   32.3068
    MIXING:  cpu time    0.1450: real time    0.0726
    --------------------------------------------
      LOOP:  cpu time  521.2404: real time  355.4585

 eigenvalue-minimisations  : 13824
 total energy-change (2. order) :-0.1093960E-02  (-0.1895083E-02)
 number of electron     186.3999998 magnetization      -0.4704482
 augmentation part       11.4938232 magnetization      -0.1224532

 Broyden mixing:
  rms(total) = 0.43473E-01    rms(broyden)= 0.43470E-01
  rms(prec ) = 0.48248E-01
  weight for this iteration     100.00

 eigenvalues of (default mixing * dielectric matrix)
  average eigenvalue GAMMA=   0.9045
  2.1193  1.3772  0.6315  0.6315  0.3338  0.3338

 Free energy of the ion-electron system (eV)
  ---------------------------------------------------
  alpha Z        PSCENC =        57.55240194
  Ewald energy   TEWEN  =     62195.27618817
  -Hartree energ DENC   =    -70407.68859437
  -exchange      EXHF   =         0.00000000
  -V(xc)+E(xc)   XCENC  =       894.28045990
  PAW double counting   =     20886.25864140   -20982.50280871
  entropy T*S    EENTRO =        -0.02581274
  eigenvalues    EBANDS =     -2883.70869900
  atomic energy  EATOM  =      9975.55785330
  Solvation  Ediel_sol  =      -117.81830089
  ---------------------------------------------------
  free energy    TOTEN  =      -382.81867099 eV

  energy without entropy =     -382.79285826  energy(sigma->0) =     -382.80576463


--------------------------------------------------------------------------------------------------------




--------------------------------------- Iteration      1(   8)  ---------------------------------------


    POTLOK:  cpu time   46.2673: real time   62.2007
    SETDIJ:  cpu time    0.5907: real time    0.3941
    EDDIAG:  cpu time   56.1201: real time   40.8573
  RMM-DIIS:  cpu time  382.7999: real time  234.6847
    ORTHCH:  cpu time    1.6113: real time    0.8092
       DOS:  cpu time    0.0076: real time    0.0038
    CHARGE:  cpu time   33.1707: real time   32.3239
    MIXING:  cpu time    0.1492: real time    0.0748
    --------------------------------------------
      LOOP:  cpu time  520.7168: real time  371.3484

 eigenvalue-minimisations  : 13824
 total energy-change (2. order) :-0.2591604E-03  (-0.3549610E-03)
 number of electron     186.3999998 magnetization      -0.4759830
 augmentation part       11.4957574 magnetization      -0.1337596

 Broyden mixing:
  rms(total) = 0.54596E-01    rms(broyden)= 0.54595E-01
  rms(prec ) = 0.57606E-01
  weight for this iteration     100.00

 eigenvalues of (default mixing * dielectric matrix)
  average eigenvalue GAMMA=   0.8920
  2.2748  1.4514  0.6655  0.6655  0.3342  0.3342  0.5186

 Free energy of the ion-electron system (eV)
  ---------------------------------------------------
  alpha Z        PSCENC =        57.55240194
  Ewald energy   TEWEN  =     62195.27618817
  -Hartree energ DENC   =    -70371.25253777
  -exchange      EXHF   =         0.00000000
  -V(xc)+E(xc)   XCENC  =       894.14627679
  PAW double counting   =     20884.44648927   -20980.69507827
  entropy T*S    EENTRO =        -0.02586161
  eigenvalues    EBANDS =     -2886.87265995
  atomic energy  EATOM  =      9975.55785330
  Solvation  Ediel_sol  =      -150.95200204
  ---------------------------------------------------
  free energy    TOTEN  =      -382.81893015 eV

  energy without entropy =     -382.79306855  energy(sigma->0) =     -382.80599935


--------------------------------------------------------------------------------------------------------




--------------------------------------- Iteration      1(   9)  ---------------------------------------


    POTLOK:  cpu time   45.3845: real time  114.7397
    SETDIJ:  cpu time    0.5901: real time    0.3936
    EDDIAG:  cpu time   55.8175: real time   40.6439
  RMM-DIIS:  cpu time  382.5433: real time  234.5718
    ORTHCH:  cpu time    1.5998: real time    0.8029
       DOS:  cpu time    0.0041: real time    0.0021
    CHARGE:  cpu time   33.2269: real time   32.3891
    MIXING:  cpu time    0.1519: real time    0.0763
    --------------------------------------------
      LOOP:  cpu time  519.3180: real time  423.6194

 eigenvalue-minimisations  : 13824
 total energy-change (2. order) :-0.2402724E-03  (-0.1809704E-03)
 number of electron     186.3999998 magnetization      -0.4848741
 augmentation part       11.4896267 magnetization      -0.0918354

 Broyden mixing:
  rms(total) = 0.64889E-02    rms(broyden)= 0.61440E-02
  rms(prec ) = 0.93574E-02
  weight for this iteration     100.00

 eigenvalues of (default mixing * dielectric matrix)
  average eigenvalue GAMMA=   1.0294
  2.3413  2.2099  0.3336  0.3336  0.8384  0.8384  0.6699  0.6699

 Free energy of the ion-electron system (eV)
  ---------------------------------------------------
  alpha Z        PSCENC =        57.55240194
  Ewald energy   TEWEN  =     62195.27618817
  -Hartree energ DENC   =    -70351.17080913
  -exchange      EXHF   =         0.00000000
  -V(xc)+E(xc)   XCENC  =       894.12326936
  PAW double counting   =     20887.81392199   -20984.06920849
  entropy T*S    EENTRO =        -0.02524397
  eigenvalues    EBANDS =     -2887.54406422
  atomic energy  EATOM  =      9975.55785330
  Solvation  Ediel_sol  =      -170.33347938
  ---------------------------------------------------
  free energy    TOTEN  =      -382.81917043 eV

  energy without entropy =     -382.79392646  energy(sigma->0) =     -382.80654844


--------------------------------------------------------------------------------------------------------




--------------------------------------- Iteration      1(  10)  ---------------------------------------


    POTLOK:  cpu time   46.3948: real time   56.2751
    SETDIJ:  cpu time    0.5916: real time    2.2577
    EDDIAG:  cpu time   56.0357: real time   40.6759
  RMM-DIIS:  cpu time  382.6374: real time  234.5576
    ORTHCH:  cpu time    1.6075: real time    0.8069
       DOS:  cpu time    0.0039: real time    0.0019
    CHARGE:  cpu time   33.1610: real time   32.3238
    MIXING:  cpu time    0.1544: real time    0.0785
    --------------------------------------------
      LOOP:  cpu time  520.5863: real time  366.9774

 eigenvalue-minimisations  : 13824
 total energy-change (2. order) :-0.1925932E-02  (-0.3208019E-03)
 number of electron     186.3999998 magnetization      -0.4894179
 augmentation part       11.4851786 magnetization      -0.0593914

 Broyden mixing:
  rms(total) = 0.39776E-01    rms(broyden)= 0.39730E-01
  rms(prec ) = 0.41152E-01
  weight for this iteration     100.00

 eigenvalues of (default mixing * dielectric matrix)
  average eigenvalue GAMMA=   1.1886
  3.0309  3.0309  0.3336  0.3336  0.7918  0.7918  0.8615  0.7618  0.7618

 Free energy of the ion-electron system (eV)
  ---------------------------------------------------
  alpha Z        PSCENC =        57.55240194
  Ewald energy   TEWEN  =     62195.27618817
  -Hartree energ DENC   =    -70325.73519326
  -exchange      EXHF   =         0.00000000
  -V(xc)+E(xc)   XCENC  =       894.08489297
  PAW double counting   =     20895.53143363   -20991.80086583
  entropy T*S    EENTRO =        -0.02441944
  eigenvalues    EBANDS =     -2887.41377804
  atomic energy  EATOM  =      9975.55785330
  Solvation  Ediel_sol  =      -195.84960980
  ---------------------------------------------------
  free energy    TOTEN  =      -382.82109636 eV

  energy without entropy =     -382.79667692  energy(sigma->0) =     -382.80888664


--------------------------------------------------------------------------------------------------------




--------------------------------------- Iteration      1(  11)  ---------------------------------------


    POTLOK:  cpu time   44.7003: real time   44.8008
    SETDIJ:  cpu time    0.8532: real time    0.5252
    EDDIAG:  cpu time   56.1347: real time   40.9003
  RMM-DIIS:  cpu time  383.1158: real time  234.7596
    ORTHCH:  cpu time    1.5991: real time    0.8032
       DOS:  cpu time    0.0040: real time    0.0020
    CHARGE:  cpu time   33.1104: real time   32.2569
    MIXING:  cpu time    0.1780: real time    0.1027
    --------------------------------------------
      LOOP:  cpu time  519.6956: real time  354.1508

 eigenvalue-minimisations  : 13824
 total energy-change (2. order) : 0.1001653E-03  (-0.2247374E-03)
 number of electron     186.3999998 magnetization      -0.4914439
 augmentation part       11.4914155 magnetization      -0.1057179

 Broyden mixing:
  rms(total) = 0.94218E-02    rms(broyden)= 0.92948E-02
  rms(prec ) = 0.97746E-02
  weight for this iteration     100.00

 eigenvalues of (default mixing * dielectric matrix)
  average eigenvalue GAMMA=   1.3865
  5.5835  2.8749  1.0957  0.8908  0.8908  0.3336  0.3336  0.6346  0.6346  0.5930

 Free energy of the ion-electron system (eV)
  ---------------------------------------------------
  alpha Z        PSCENC =        57.55240194
  Ewald energy   TEWEN  =     62195.27618817
  -Hartree energ DENC   =    -70317.84182833
  -exchange      EXHF   =         0.00000000
  -V(xc)+E(xc)   XCENC  =       894.07378318
  PAW double counting   =     20898.98054551   -20995.25379839
  entropy T*S    EENTRO =        -0.02542472
  eigenvalues    EBANDS =     -2886.85583041
  atomic energy  EATOM  =      9975.55785330
  Solvation  Ediel_sol  =      -204.28488646
  ---------------------------------------------------
  free energy    TOTEN  =      -382.82099619 eV

  energy without entropy =     -382.79557148  energy(sigma->0) =     -382.80828384


--------------------------------------------------------------------------------------------------------




--------------------------------------- Iteration      1(  12)  ---------------------------------------


    POTLOK:  cpu time   44.0757: real time   44.1767
    SETDIJ:  cpu time    0.5905: real time    0.3944
    EDDIAG:  cpu time   55.9854: real time   40.7904
  RMM-DIIS:  cpu time  383.1794: real time  234.7372
    ORTHCH:  cpu time    1.6000: real time    0.8029
       DOS:  cpu time    0.0039: real time    0.0019
    CHARGE:  cpu time   33.2456: real time   32.3816
    MIXING:  cpu time    0.1552: real time    0.0823
    --------------------------------------------
      LOOP:  cpu time  518.8358: real time  353.3676

 eigenvalue-minimisations  : 13824
 total energy-change (2. order) :-0.1779076E-03  (-0.1235773E-03)
 number of electron     186.3999998 magnetization      -0.4940194
 augmentation part       11.4882601 magnetization      -0.0809676

 Broyden mixing:
  rms(total) = 0.20560E-01    rms(broyden)= 0.20543E-01
  rms(prec ) = 0.21253E-01
  weight for this iteration     100.00

 eigenvalues of (default mixing * dielectric matrix)
  average eigenvalue GAMMA=   1.3872
  6.1375  2.8648  1.0885  0.9550  0.9550  0.3336  0.3336  0.6563  0.6563  0.6390
  0.6390

 Free energy of the ion-electron system (eV)
  ---------------------------------------------------
  alpha Z        PSCENC =        57.55240194
  Ewald energy   TEWEN  =     62195.27618817
  -Hartree energ DENC   =    -70314.99585348
  -exchange      EXHF   =         0.00000000
  -V(xc)+E(xc)   XCENC  =       894.10099770
  PAW double counting   =     20900.19339851   -20996.46806813
  entropy T*S    EENTRO =        -0.02490916
  eigenvalues    EBANDS =     -2886.50272277
  atomic energy  EATOM  =      9975.55785330
  Solvation  Ediel_sol  =      -207.51046019
  ---------------------------------------------------
  free energy    TOTEN  =      -382.82117410 eV

  energy without entropy =     -382.79626494  energy(sigma->0) =     -382.80871952


--------------------------------------------------------------------------------------------------------




--------------------------------------- Iteration      1(  13)  ---------------------------------------


    POTLOK:  cpu time   43.2774: real time   90.1373
    SETDIJ:  cpu time    0.5854: real time    0.3888
    EDDIAG:  cpu time   55.7933: real time   40.6074
  RMM-DIIS:  cpu time  368.7374: real time  226.6602
    ORTHCH:  cpu time    1.5753: real time    0.7906
       DOS:  cpu time    0.0180: real time    0.0090
    CHARGE:  cpu time   33.2309: real time   32.3253
    MIXING:  cpu time    0.1624: real time    0.0859
    --------------------------------------------
      LOOP:  cpu time  503.3800: real time  391.0045

 eigenvalue-minimisations  : 12976
 total energy-change (2. order) :-0.2828899E-03  (-0.7561724E-04)
 number of electron     186.3999998 magnetization      -0.4975544
 augmentation part       11.4922577 magnetization      -0.1129023

 Broyden mixing:
  rms(total) = 0.10558E-01    rms(broyden)= 0.10497E-01
  rms(prec ) = 0.10969E-01
  weight for this iteration     100.00

 eigenvalues of (default mixing * dielectric matrix)
  average eigenvalue GAMMA=   1.4342
  6.7075  2.9850  1.2376  1.2376  0.3336  0.3336  0.9057  0.7745  0.7745  0.6587
  0.6587  0.6038

 Free energy of the ion-electron system (eV)
  ---------------------------------------------------
  alpha Z        PSCENC =        57.55240194
  Ewald energy   TEWEN  =     62195.27618817
  -Hartree energ DENC   =    -70313.84306035
  -exchange      EXHF   =         0.00000000
  -V(xc)+E(xc)   XCENC  =       894.09796075
  PAW double counting   =     20900.43080168   -20996.70478463
  entropy T*S    EENTRO =        -0.02547640
  eigenvalues    EBANDS =     -2886.15435260
  atomic energy  EATOM  =      9975.55785330
  Solvation  Ediel_sol  =      -209.00898884
  ---------------------------------------------------
  free energy    TOTEN  =      -382.82145699 eV

  energy without entropy =     -382.79598059  energy(sigma->0) =     -382.80871879


--------------------------------------------------------------------------------------------------------




--------------------------------------- Iteration      1(  14)  ---------------------------------------


    POTLOK:  cpu time   43.7264: real time   43.8232
    SETDIJ:  cpu time    0.5900: real time    0.3935
    EDDIAG:  cpu time   55.9821: real time   40.7451
  RMM-DIIS:  cpu time  382.6101: real time  234.3848
    ORTHCH:  cpu time    1.6003: real time    0.8032
       DOS:  cpu time    0.0039: real time    0.0020
    CHARGE:  cpu time   33.2948: real time   32.4321
    MIXING:  cpu time    0.1516: real time   30.0778
    --------------------------------------------
      LOOP:  cpu time  517.9591: real time  382.6616

 eigenvalue-minimisations  : 13800
 total energy-change (2. order) :-0.3506694E-03  (-0.8047992E-04)
 number of electron     186.3999998 magnetization      -0.5000521
 augmentation part       11.4912746 magnetization      -0.1049456

 Broyden mixing:
  rms(total) = 0.32844E-02    rms(broyden)= 0.32823E-02
  rms(prec ) = 0.34183E-02
  weight for this iteration     100.00

 eigenvalues of (default mixing * dielectric matrix)
  average eigenvalue GAMMA=   1.5075
  7.5553  3.0732  2.1210  0.3336  0.3336  1.0806  0.9184  0.9184  0.6551  0.6551
  0.6828  0.6828  0.5882

 Free energy of the ion-electron system (eV)
  ---------------------------------------------------
  alpha Z        PSCENC =        57.55240194
  Ewald energy   TEWEN  =     62195.27618817
  -Hartree energ DENC   =    -70312.57852797
  -exchange      EXHF   =         0.00000000
  -V(xc)+E(xc)   XCENC  =       894.12255251
  PAW double counting   =     20900.53150750   -20996.80442644
  entropy T*S    EENTRO =        -0.02534599
  eigenvalues    EBANDS =     -2885.71902927
  atomic energy  EATOM  =      9975.55785330
  Solvation  Ediel_sol  =      -210.73498140
  ---------------------------------------------------
  free energy    TOTEN  =      -382.82180766 eV

  energy without entropy =     -382.79646167  energy(sigma->0) =     -382.80913466


--------------------------------------------------------------------------------------------------------




--------------------------------------- Iteration      1(  15)  ---------------------------------------


    POTLOK:  cpu time   40.8046: real time   77.2321
    SETDIJ:  cpu time    0.5925: real time    8.9342
    EDDIAG:  cpu time   56.0623: real time   40.7647
  RMM-DIIS:  cpu time  361.4676: real time  221.8451
    ORTHCH:  cpu time    1.6088: real time    0.8074
       DOS:  cpu time    0.0039: real time    0.0019
    CHARGE:  cpu time   33.1709: real time   32.2960
    MIXING:  cpu time    0.1701: real time    0.0936
    --------------------------------------------
      LOOP:  cpu time  493.8806: real time  381.9749

 eigenvalue-minimisations  : 12379
 total energy-change (2. order) :-0.5933241E-04  (-0.9900000E-05)
 number of electron     186.3999998 magnetization      -0.5025653
 augmentation part       11.4911899 magnetization      -0.1052708

 Broyden mixing:
  rms(total) = 0.28353E-02    rms(broyden)= 0.28348E-02
  rms(prec ) = 0.29391E-02
  weight for this iteration     100.00

 eigenvalues of (default mixing * dielectric matrix)
  average eigenvalue GAMMA=   1.5296
  7.9852  3.0859  2.3534  1.1808  1.1808  0.3336  0.3336  0.6567  0.6567  0.8060
  0.8060  0.7587  0.6733  0.6041

 Free energy of the ion-electron system (eV)
  ---------------------------------------------------
  alpha Z        PSCENC =        57.55240194
  Ewald energy   TEWEN  =     62195.27618817
  -Hartree energ DENC   =    -70312.12215848
  -exchange      EXHF   =         0.00000000
  -V(xc)+E(xc)   XCENC  =       894.12339986
  PAW double counting   =     20900.38494679   -20996.65746608
  entropy T*S    EENTRO =        -0.02534016
  eigenvalues    EBANDS =     -2885.56035039
  atomic energy  EATOM  =      9975.55785330
  Solvation  Ediel_sol  =      -211.35134195
  ---------------------------------------------------
  free energy    TOTEN  =      -382.82186699 eV

  energy without entropy =     -382.79652684  energy(sigma->0) =     -382.80919692


--------------------------------------------------------------------------------------------------------




--------------------------------------- Iteration      1(  16)  ---------------------------------------


    POTLOK:  cpu time   40.4312: real time   40.5207
    SETDIJ:  cpu time    0.5905: real time    0.3939
    EDDIAG:  cpu time   55.9693: real time   40.7294
  RMM-DIIS:  cpu time  364.6211: real time  224.2915
    ORTHCH:  cpu time    1.6070: real time    0.8065
       DOS:  cpu time    0.0035: real time    0.0017
[...]
   13        0.000   0.001   0.000   0.001
   14        0.000   0.001   0.000   0.001
   15        0.000   0.001   0.000   0.001
   16        0.000   0.001   0.000   0.001
   17       -0.000  -0.007   0.000  -0.007
   18       -0.000  -0.007   0.000  -0.007
   19       -0.000  -0.007   0.000  -0.007
   20       -0.000  -0.007   0.000  -0.007
   21       -0.000  -0.007   0.000  -0.007
   22       -0.000  -0.007   0.000  -0.007
   23       -0.000  -0.007   0.000  -0.007
   24       -0.000  -0.007   0.000  -0.007
   25       -0.000  -0.007   0.000  -0.007
   26       -0.000  -0.007   0.000  -0.007
   27       -0.000  -0.007   0.000  -0.007
   28       -0.000  -0.007   0.000  -0.007
   29       -0.000  -0.007   0.000  -0.007
   30       -0.000  -0.007   0.000  -0.007
   31       -0.000  -0.007   0.000  -0.007
   32       -0.000  -0.007   0.000  -0.007
   33        0.000   0.000   0.000   0.000
   34        0.001   0.003   0.000   0.003
   35        0.003   0.017   0.000   0.021
   36       -0.000  -0.001   0.000  -0.001
   37        0.000   0.000   0.000   0.000
   38       -0.000  -0.000   0.000  -0.000
   39       -0.000  -0.005   0.000  -0.005
   40       -0.000  -0.006   0.000  -0.006
   41       -0.003  -0.237   0.000  -0.240
   42       -0.003  -0.235   0.000  -0.238
--------------------------------------------------
tot         -0.003  -0.560   0.000  -0.563
 
    CHARGE:  cpu time    3.8103: real time    3.5185
    FORLOC:  cpu time    0.3483: real time    0.2662
    FORNL :  cpu time   27.3377: real time   13.7765
    STRESS:  cpu time  641.2531: real time  592.0606
    FORCOR:  cpu time    3.3383: real time    3.3455
    FORHAR:  cpu time    0.4072: real time    0.4081
    MIXING:  cpu time    0.0811: real time    0.0813
    OFIELD:  cpu time    0.0001: real time    0.0001

  FORCE on cell =-STRESS in cart. coord.  units (eV):
  Direction    XX          YY          ZZ          XY          YZ          ZX
  --------------------------------------------------------------------------------------
  Alpha Z    57.55240    57.55240    57.55240
  Ewald   65329.09160 65425.27954-68551.73357    -4.32152  -352.74248  -154.25592
  Hartree 65790.81515 66011.04151-61479.12818    74.26615  -338.06225  -108.64906
  E(xc)    -832.33822  -831.79328  -837.86007     0.27662    -0.47888    -0.08512
  Local  ************************127563.70263   -91.02916   705.32268   258.55055
  n-local  -488.32353  -488.23516  -480.28130     0.26050     1.65856     0.84753
  augment   119.01138   122.45219   129.34073     1.82607    -2.24536     0.19590
  Kinetic  3271.33211  3304.71677  3598.11770    18.96485   -13.25977     3.70774
  Fock        0.00000     0.00000     0.00000     0.00000     0.00000     0.00000
  -------------------------------------------------------------------------------------
  Total     -13.29680   -12.91179    -0.28967     0.24352     0.19250     0.31162
  in kB      -6.93768    -6.73680    -0.15113     0.12706     0.10044     0.16259
  external pressure =       -4.61 kB  Pullay stress =        0.00 kB


 VOLUME and BASIS-vectors are now :
 -----------------------------------------------------------------------------
  energy-cutoff  :      550.00
  volume of cell :     3070.74
      direct lattice vectors                 reciprocal lattice vectors
     5.024366704 -8.702497373  0.000000000     0.099515029 -0.057454772  0.000000000
     5.024366704  8.702497373  0.000000000     0.099515029  0.057454772  0.000000000
     0.000000000  0.000000000 35.114664386     0.000000000  0.000000000  0.028478131

  length of vectors
    10.048767154 10.048767154 35.114664386     0.114909929  0.114909929  0.028478131


 FORCES acting on ions
    electron-ion (+dipol)            ewald-force                    non-local-force                 convergence-correction
 -----------------------------------------------------------------------------------------------
   0.820E+01 0.157E+01 0.124E+03   -.821E+01 -.153E+01 -.123E+03   0.508E-02 -.409E-03 -.778E-03   -.472E-04 0.955E-04 0.939E-03
   0.130E+02 -.632E+01 0.130E+03   -.129E+02 0.636E+01 -.129E+03   0.110E-01 -.619E-02 0.171E-02   0.291E-03 0.352E-04 0.117E-02
   0.392E+01 -.875E+01 0.126E+03   -.381E+01 0.862E+01 -.124E+03   0.470E-02 -.568E-02 0.149E-03   0.254E-03 -.249E-03 0.124E-02
   -.758E+00 -.573E+00 0.119E+03   0.734E+00 0.499E+00 -.118E+03   -.632E-04 -.584E-03 -.934E-03   -.591E-04 -.136E-03 0.997E-03
   0.755E+01 0.545E+01 0.125E+03   -.757E+01 -.550E+01 -.125E+03   0.315E-02 0.338E-02 -.703E-03   -.597E-04 -.119E-03 0.909E-03
   0.135E+02 0.487E+01 0.148E+03   -.134E+02 -.476E+01 -.147E+03   0.106E-01 0.556E-02 -.807E-03   0.266E-03 0.316E-03 0.113E-02
   0.385E+01 -.121E+02 0.152E+03   -.375E+01 0.121E+02 -.150E+03   0.400E-02 -.112E-01 -.254E-02   0.275E-03 0.278E-04 0.175E-02
   -.194E+01 -.115E+02 0.128E+03   0.189E+01 0.113E+02 -.127E+03   -.270E-02 -.695E-02 0.116E-02   -.904E-04 -.450E-03 0.138E-02
   -.322E+01 0.567E+00 0.122E+03   0.312E+01 -.691E+00 -.121E+03   -.482E-02 0.698E-03 0.147E-03   -.230E-03 -.274E-03 0.107E-02
   0.127E+01 0.151E+02 0.136E+03   -.123E+01 -.150E+02 -.135E+03   0.108E-03 0.120E-01 0.207E-02   0.705E-04 0.142E-03 0.922E-03
   -.939E+01 0.662E+01 0.154E+03   0.944E+01 -.646E+01 -.152E+03   -.873E-02 0.862E-02 0.478E-04   0.507E-04 0.455E-03 0.144E-02
   -.138E+02 -.780E+01 0.139E+03   0.137E+02 0.779E+01 -.137E+03   -.128E-01 -.691E-02 0.272E-02   -.333E-03 -.679E-04 0.165E-02
   -.308E+01 -.214E+01 0.120E+03   0.296E+01 0.213E+01 -.119E+03   -.162E-02 -.426E-02 -.129E-04   -.235E-03 -.321E-04 0.108E-02
   0.124E+01 0.312E+01 0.120E+03   -.121E+01 -.316E+01 -.119E+03   0.301E-02 0.176E-02 -.229E-03   0.666E-04 -.922E-04 0.954E-03
   -.805E+01 0.862E+01 0.128E+03   0.805E+01 -.857E+01 -.126E+03   -.268E-02 0.547E-02 0.423E-03   0.483E-04 0.130E-03 0.101E-02
   -.123E+02 0.322E+01 0.127E+03   0.122E+02 -.310E+01 -.126E+03   -.624E-02 0.777E-03 0.126E-02   -.269E-03 0.218E-03 0.119E-02
   0.128E+02 -.367E+01 0.205E+03   -.128E+02 0.373E+01 -.204E+03   0.873E-02 0.334E-02 0.713E-02   -.691E-05 0.117E-03 0.167E-02
   0.119E+02 -.890E+01 0.207E+03   -.117E+02 0.882E+01 -.205E+03   0.209E-02 -.851E-02 0.437E-02   0.440E-03 -.192E-03 0.186E-02
   -.450E+01 -.110E+01 0.202E+03   0.456E+01 0.979E+00 -.200E+03   -.711E-02 -.401E-02 0.797E-02   0.138E-03 -.208E-03 0.174E-02
   -.336E+01 0.395E+01 0.200E+03   0.324E+01 -.389E+01 -.198E+03   -.148E-02 0.565E-02 0.945E-02   -.277E-03 0.115E-03 0.162E-02
   0.223E+02 0.947E+01 0.220E+03   -.223E+02 -.941E+01 -.219E+03   0.211E-01 0.108E-01 0.652E-02   0.950E-04 0.188E-03 0.149E-02
   0.231E+02 -.101E+02 0.245E+03   -.228E+02 0.103E+02 -.243E+03   0.245E-01 -.660E-02 0.399E-03   0.662E-03 0.363E-03 0.228E-02
   0.408E+01 -.253E+02 0.226E+03   -.396E+01 0.251E+02 -.224E+03   0.136E-02 -.304E-01 0.487E-02   0.321E-03 -.564E-03 0.260E-02
   0.400E+01 -.494E+01 0.201E+03   -.405E+01 0.470E+01 -.200E+03   0.588E-02 -.568E-02 0.898E-02   -.157E-03 -.517E-03 0.173E-02
   0.571E+01 0.148E+02 0.211E+03   -.576E+01 -.148E+02 -.210E+03   0.850E-02 0.564E-02 0.537E-02   -.121E-03 -.218E-03 0.149E-02
   0.459E+01 0.198E+02 0.252E+03   -.446E+01 -.196E+02 -.250E+03   0.530E-02 0.209E-01 -.710E-02   0.331E-03 0.646E-03 0.184E-02
   -.145E+02 -.987E+01 0.256E+03   0.146E+02 0.101E+02 -.254E+03   -.212E-01 -.902E-02 -.173E-01   0.855E-05 0.364E-03 0.299E-02
   -.127E+02 -.149E+02 0.215E+03   0.125E+02 0.146E+02 -.213E+03   -.323E-02 -.143E-01 -.252E-02   -.493E-03 -.632E-03 0.235E-02
   -.335E+01 0.112E+01 0.198E+03   0.322E+01 -.122E+01 -.197E+03   -.647E-03 0.390E-03 0.479E-02   -.270E-03 -.258E-03 0.167E-02
   -.522E+01 0.190E+02 0.212E+03   0.527E+01 -.189E+02 -.211E+03   -.711E-02 0.767E-02 0.558E-03   0.139E-03 0.940E-04 0.152E-02
   -.235E+02 0.141E+02 0.228E+03   0.235E+02 -.139E+02 -.226E+03   -.240E-01 0.133E-01 -.215E-02   -.149E-03 0.589E-03 0.200E-02
   -.214E+02 -.339E+01 0.214E+03   0.211E+02 0.346E+01 -.212E+03   -.133E-01 0.363E-02 -.354E-02   -.663E-03 0.121E-03 0.221E-02
   -.506E+00 0.164E+02 -.437E+03   -.269E+00 -.146E+02 0.429E+03   0.824E+00 -.156E+01 0.959E+01   0.799E-03 0.213E-02 -.169E-02
   -.900E+01 -.361E+02 -.310E+03   0.142E+02 0.447E+02 0.318E+03   -.493E+01 -.804E+01 -.475E+01   0.199E-02 0.443E-02 -.593E-03
   -.256E+02 -.745E+02 -.290E+03   0.245E+02 0.724E+02 0.293E+03   0.155E+01 0.322E+01 -.656E+00   0.245E-02 0.583E-02 -.623E-03
   -.511E+03 0.698E+02 -.955E+03   0.569E+03 -.729E+02 0.973E+03   -.560E+02 0.333E+01 -.164E+02   0.265E-03 0.316E-02 -.340E-02
   0.230E+03 0.490E+03 -.920E+03   -.256E+03 -.541E+03 0.937E+03   0.257E+02 0.504E+02 -.142E+02   0.582E-03 0.144E-02 -.882E-03
   0.233E+03 -.350E+03 -.109E+04   -.260E+03 0.393E+03 0.112E+04   0.256E+02 -.422E+02 -.310E+02   0.133E-02 0.248E-02 -.374E-02
   -.204E+03 0.405E+03 -.275E+03   0.230E+03 -.446E+03 0.253E+03   -.248E+02 0.413E+02 0.272E+02   0.218E-02 0.583E-02 0.204E-02
   0.529E+03 0.311E+02 -.412E+03   -.584E+03 -.312E+02 0.404E+03   0.539E+02 0.120E+01 0.135E+02   0.339E-02 0.548E-02 0.120E-02
   -.416E+03 -.136E+03 -.387E+03   0.469E+03 0.139E+03 0.382E+03   -.512E+02 -.242E+01 0.958E+01   -.492E-02 0.187E-02 0.206E-02
   0.176E+03 -.413E+03 -.430E+03   -.207E+03 0.457E+03 0.429E+03   0.310E+02 -.418E+02 0.471E+01   0.468E-02 -.234E-02 0.170E-02
 -----------------------------------------------------------------------------------------------
   -.164E+01 -.348E+01 0.223E+01   -.284E-13 -.114E-12 -.136E-11   0.164E+01 0.342E+01 -.230E+01   0.127E-01 0.303E-01 0.460E-01
 
 
 POSITION                                       TOTAL-FORCE (eV/Angst)
 -----------------------------------------------------------------------------------
      1.25594     -0.72496     17.55944        -0.000267     -0.000146      0.000951
      2.51189      1.45078     17.56022         0.000161      0.000081      0.000839
      3.76811      3.62639     17.55974         0.000017      0.000016      0.001184
      5.02432      5.80192     17.55921        -0.000061      0.000079      0.001273
      2.51209     -2.90068     17.55960        -0.000357      0.000096      0.001027
      3.76799     -0.72510     17.55990         0.000019      0.000230      0.000132
      5.02421      1.45095     17.55974        -0.000299      0.000166      0.000831
      6.28046      3.62641     17.56018        -0.000046      0.000054      0.001324
      3.76833     -5.07625     17.56031        -0.000192     -0.000356      0.001255
      5.02431     -2.90085     17.56078         0.000127      0.000233      0.000808
      6.28062     -0.72516     17.56070        -0.000083     -0.000157      0.000673
      7.53674      1.45082     17.56154         0.000241      0.000195      0.001407
      5.02433     -7.25176     17.56015        -0.000430      0.000171      0.001284
      6.28034     -5.07628     17.55992        -0.000121      0.000031      0.001190
      7.53654     -2.90071     17.56013        -0.000105      0.000109      0.000912
      8.79270     -0.72497     17.56046         0.000021      0.000435      0.000916
      1.25603      0.72546     17.55956        -0.000010      0.000082      0.001369
      2.51213      2.90107     17.55968        -0.000223      0.000080      0.001302
      3.76822      5.07670     17.55918        -0.000065      0.000158      0.001496
      5.02431      7.25233     17.55918         0.000020     -0.000071      0.001335
      2.51211     -1.45020     17.55947         0.000013      0.000079      0.000574
      3.76829      0.72543     17.56113        -0.000059     -0.000046     -0.000295
      5.02431      2.90110     17.55983        -0.000103     -0.000037      0.000812
      6.28040      5.07671     17.55913         0.000082      0.000039      0.001370
      3.76824     -3.62581     17.55998        -0.000055      0.000206      0.001229
      5.02433     -1.45008     17.56202        -0.000156      0.000046     -0.000040
      6.28026      0.72545     17.56303        -0.000194      0.000028      0.000571
      7.53648      2.90105     17.56075        -0.000053      0.000189      0.001173
      5.02432     -5.80143     17.55974        -0.000046      0.000164      0.001339
      6.28039     -3.62580     17.56024        -0.000183      0.000118      0.001052
      7.53650     -1.45018     17.56067        -0.000162      0.000157      0.000486
      8.79253      0.72547     17.56079        -0.000003      0.000098      0.001072
      5.17058     -0.77025     23.63779        -0.005501     -0.005448     -0.002509
      5.04684     -0.49758     22.12855        -0.004263     -0.006452     -0.007892
      5.65692      0.84286     21.68607         0.009269      0.011471     -0.008249
      6.46016     -0.84022     23.99902        -0.004700      0.004657     -0.004792
      4.57614     -1.93114     23.94971         0.002368     -0.006367      0.013839
      4.58028      0.21388     24.33401        -0.001925     -0.004882     -0.006868
      5.66253     -1.52228     21.47786        -0.006223      0.000621      0.005716
      3.72363     -0.53057     21.82036         0.006263     -0.001418      0.000737
      6.88472      0.88727     21.46385        -0.003601      0.003337     -0.019215
      4.90610      1.83406     21.58055         0.010885      0.001954     -0.001617
 -----------------------------------------------------------------------------------
    total drift:                                0.010408     -0.029829     -0.019545


--------------------------------------------------------------------------------------------------------



  FREE ENERGIE OF THE ION-ELECTRON SYSTEM (eV)
  ---------------------------------------------------
  free  energy   TOTEN  =      -382.82776157 eV

  energy  without entropy=     -382.80383196  energy(sigma->0) =     -382.81579676
 
 d Force = 0.6922313E-04[ 0.433E-04, 0.952E-04]  d Energy = 0.4859730E-03-0.417E-03
 d Force = 0.2729807E+00[ 0.273E+00, 0.273E+00]  d Ewald  = 0.2729807E+00-0.123E-07


--------------------------------------------------------------------------------------------------------


    POTLOK:  cpu time   36.6929: real time   36.5061


--------------------------------------------------------------------------------------------------------


 Conjugate gradient step on ions:
 trial-energy change:   -0.000486  1 .order   -0.000069   -0.000095   -0.000043
  (g-gl).g = 0.162E-03      g.g   = 0.172E-03  gl.gl    = 0.586E-03
 g(Force)  = 0.172E-03   g(Stress)= 0.000E+00 ortho     = 0.358E-05
 gamma     =   0.27732
 trial     =   0.55069
 opt step  =   0.55987  (harmonic =   1.00968) maximal distance =0.00051637
 next E    =  -382.827762   (d E  =  -0.00049)


--------------------------------------------------------------------------------------------------------


  
 reached required accuracy - stopping structural energy minimisation
 writing wavefunctions
     LOOP+:  cpu time 8053.1985: real time 5931.2702
    4ORBIT:  cpu time    0.0000: real time    0.0000
 


 total charge     
 
# of ion       s       p       d       tot
------------------------------------------
    1        0.743   1.390   0.000   2.133
    2        0.743   1.390   0.000   2.133
    3        0.743   1.390   0.000   2.133
    4        0.743   1.390   0.000   2.133
    5        0.743   1.390   0.000   2.133
    6        0.743   1.390   0.000   2.133
    7        0.743   1.390   0.000   2.134
    8        0.743   1.390   0.000   2.133
    9        0.743   1.390   0.000   2.133
   10        0.743   1.390   0.000   2.133
   11        0.743   1.390   0.000   2.133
   12        0.743   1.390   0.000   2.133
   13        0.743   1.390   0.000   2.133
   14        0.743   1.390   0.000   2.133
   15        0.743   1.390   0.000   2.133
   16        0.743   1.390   0.000   2.133
   17        1.241   2.811   0.000   4.052
   18        1.241   2.811   0.000   4.052
   19        1.241   2.811   0.000   4.052
   20        1.241   2.811   0.000   4.052
   21        1.241   2.811   0.000   4.052
   22        1.241   2.811   0.000   4.051
   23        1.241   2.811   0.000   4.052
   24        1.241   2.811   0.000   4.052
   25        1.241   2.811   0.000   4.052
   26        1.241   2.811   0.000   4.051
   27        1.241   2.810   0.000   4.051
   28        1.241   2.811   0.000   4.052
   29        1.241   2.811   0.000   4.052
   30        1.241   2.811   0.000   4.052
   31        1.241   2.811   0.000   4.052
   32        1.241   2.811   0.000   4.052
   33        0.818   1.564   0.000   2.382
   34        0.834   1.607   0.000   2.441
   35        0.881   1.732   0.000   2.613
   36        1.758   4.413   0.000   6.171
   37        1.758   4.412   0.000   6.170
   38        1.758   4.413   0.000   6.171
   39        1.756   4.401   0.000   6.157
   40        1.756   4.402   0.000   6.158
   41        1.600   3.513   0.000   5.112
   42        1.600   3.513   0.000   5.113
--------------------------------------------------
tot         46.260 101.177   0.000 147.438
 


 magnetization (x)
 
# of ion       s       p       d       tot
------------------------------------------
    1        0.000   0.001   0.000   0.001
    2        0.000   0.001   0.000   0.001
    3        0.000   0.001   0.000   0.001
    4        0.000   0.001   0.000   0.001
    5        0.000   0.001   0.000   0.001
    6        0.000   0.001   0.000   0.001
    7        0.000   0.001   0.000   0.001
    8        0.000   0.001   0.000   0.001
    9        0.000   0.001   0.000   0.001
   10        0.000   0.001   0.000   0.001
   11        0.000   0.001   0.000   0.001
   12        0.000   0.001   0.000   0.001
   13        0.000   0.001   0.000   0.001
   14        0.000   0.001   0.000   0.001
   15        0.000   0.001   0.000   0.001
   16        0.000   0.001   0.000   0.001
   17       -0.000  -0.007   0.000  -0.007
   18       -0.000  -0.007   0.000  -0.007
   19       -0.000  -0.007   0.000  -0.007
   20       -0.000  -0.007   0.000  -0.007
   21       -0.000  -0.007   0.000  -0.007
   22       -0.000  -0.007   0.000  -0.007
   23       -0.000  -0.007   0.000  -0.007
   24       -0.000  -0.007   0.000  -0.007
   25       -0.000  -0.007   0.000  -0.007
   26       -0.000  -0.007   0.000  -0.007
   27       -0.000  -0.007   0.000  -0.007
   28       -0.000  -0.007   0.000  -0.007
   29       -0.000  -0.007   0.000  -0.007
   30       -0.000  -0.007   0.000  -0.007
   31       -0.000  -0.007   0.000  -0.007
   32       -0.000  -0.007   0.000  -0.007
   33        0.000   0.000   0.000   0.000
   34        0.001   0.003   0.000   0.003
   35        0.003   0.017   0.000   0.021
   36       -0.000  -0.001   0.000  -0.001
   37        0.000   0.000   0.000   0.000
   38       -0.000  -0.000   0.000  -0.000
   39       -0.000  -0.005   0.000  -0.005
   40       -0.000  -0.006   0.000  -0.006
   41       -0.003  -0.237   0.000  -0.240
   42       -0.003  -0.235   0.000  -0.238
--------------------------------------------------
tot         -0.003  -0.560   0.000  -0.563
 

 total amount of memory used by VASP MPI-rank0  1323185. kBytes
=======================================================================

   base      :      30000. kBytes
   nonlr-proj:      18699. kBytes
   fftplans  :      47149. kBytes
   grid      :     394654. kBytes
   one-center:        258. kBytes
   wavefun   :     832425. kBytes
 
  
  
 General timing and accounting informations for this job:
 ========================================================
  
                  Total CPU time used (sec):    75910.008
                            User time (sec):    73871.399
                          System time (sec):     2038.611
                         Elapsed time (sec):    54778.779
  
                   Maximum memory used (kb):     2685516.
                   Average memory used (kb):           0.
  
                          Minor page faults:     13468556
                          Major page faults:           51
                 Voluntary context switches:       489422
