 vasp.5.4.4.18Apr17-6-g9f103f2a35 (build May 01 2020 14:57:12) complex          
  
 executed on             LinuxIFC date 2021.12.09  22:21:45
 running on   96 total cores
 distrk:  each k-point on   96 cores,    1 groups
 distr:  one band on NCORES_PER_BAND=  24 cores,    4 groups


--------------------------------------------------------------------------------------------------------


 INCAR:
 POTCAR:    PAW_PBE B 06Sep2000                   
 POTCAR:    PAW_PBE N 08Apr2002                   
 POTCAR:    PAW_PBE C 08Apr2002                   
 POTCAR:    PAW_PBE F 08Apr2002                   
 POTCAR:    PAW_PBE O 08Apr2002                   

 ----------------------------------------------------------------------------- 
|                                                                             |
|           W    W    AA    RRRRR   N    N  II  N    N   GGGG   !!!           |
|           W    W   A  A   R    R  NN   N  II  NN   N  G    G  !!!           |
|           W    W  A    A  R    R  N N  N  II  N N  N  G       !!!           |
|           W WW W  AAAAAA  RRRRR   N  N N  II  N  N N  G  GGG   !            |
|           WW  WW  A    A  R   R   N   NN  II  N   NN  G    G                |
|           W    W  A    A  R    R  N    N  II  N    N   GGGG   !!!           |
|                                                                             |
|      For optimal performance we recommend to set                            |
|        NCORE= 4 - approx SQRT( number of cores)                             |
|      NCORE specifies how many cores store one orbital (NPAR=cpu/NCORE).     |
|      This setting can  greatly improve the performance of VASP for DFT.     |
|      The default,   NCORE=1            might be grossly inefficient         |
|      on modern multi-core architectures or massively parallel machines.     |
|      Do your own testing !!!!                                               |
|      Unfortunately you need to use the default for GW and RPA calculations. |
|      (for HF NCORE is supported but not extensively tested yet)             |
|                                                                             |
 ----------------------------------------------------------------------------- 


 ----------------------------------------------------------------------------- 
|                                                                             |
|  ADVICE TO THIS USER RUNNING 'VASP/VAMP'   (HEAR YOUR MASTER'S VOICE ...):  |
|                                                                             |
|      You have switched on vdW-DFT.                                          |
|      This routine was written and supplied by Jiri Klimes.                  |
|      We recommed that you carefully read and cite the following             |
|      publication                                                            |
|      J. Klimes, D.R. Bowler, A. Michelides                                  |
|        J. Phys.: Cond Matt. 22 022201 (2010)                                |
|      J. Klimes, D.R. Bowler, A. Michelides                                  |
|        Phys. Rev. B. 83, 195131 (2011)                                      |
|      and references therein.                                                |
|                                                                             |
 ----------------------------------------------------------------------------- 

 POTCAR:    PAW_PBE B 06Sep2000                   
   VRHFIN =B: s2p1                                                              
   LEXCH  = PE                                                                  
   EATOM  =    71.1703 eV,    5.2309 Ry                                         
                                                                                
   TITEL  = PAW_PBE B 06Sep2000                                                 
   LULTRA =        F    use ultrasoft PP ?                                      
   IUNSCR =        1    unscreen: 0-lin 1-nonlin 2-no                           
   RPACOR =    1.200    partial core radius                                     
   POMASS =   10.811; ZVAL   =    3.000    mass and valenz                      
   RCORE  =    1.700    outmost cutoff radius                                   
   RWIGS  =    1.710; RWIGS  =    0.905    wigner-seitz radius (au A)           
   ENMAX  =  318.614; ENMIN  =  238.960 eV                                      
   ICORE  =        2    local potential                                         
   LCOR   =        T    correct aug charges                                     
   LPAW   =        T    paw PP                                                  
   EAUG   =  535.514                                                            
   DEXC   =    0.000                                                            
   RMAX   =    1.732    core radius for proj-oper                               
   RAUG   =    1.300    factor for augmentation sphere                          
   RDEP   =    1.757    radius for radial grids                                 
   RDEPT  =    1.436    core radius for aug-charge                              
                                                                                
   Atomic configuration                                                         
    4 entries                                                                   
     n  l   j            E        occ.                                          
     1  0  0.50      -180.5896   2.0000                                         
     2  0  0.50        -9.4431   2.0000                                         
     2  1  0.50        -3.6068   1.0000                                         
     3  2  1.50        -4.0817   0.0000                                         
   Description                                                                  
     l       E           TYP  RCUT    TYP  RCUT                                 
     0     -9.4430752     23  1.500                                             
     0      0.8675899     23  1.500                                             
     1     -3.6067955     23  1.700                                             
     1      6.1086146     23  1.700                                             
     2     -4.0817478      7  1.700                                             
  local pseudopotential read in
  partial core-charges read in
  partial kinetic energy density read in
  atomic valenz-charges read in
  non local Contribution for L=           0  read in
    real space projection operators read in
  non local Contribution for L=           0  read in
    real space projection operators read in
  non local Contribution for L=           1  read in
    real space projection operators read in
  non local Contribution for L=           1  read in
    real space projection operators read in
    PAW grid and wavefunctions read in
 
   number of l-projection  operators is LMAX  =           4
   number of lm-projection operators is LMMAX =           8
 
 POTCAR:    PAW_PBE N 08Apr2002                   
   VRHFIN =N: s2p3                                                              
   LEXCH  = PE                                                                  
   EATOM  =   264.5486 eV,   19.4438 Ry                                         
                                                                                
   TITEL  = PAW_PBE N 08Apr2002                                                 
   LULTRA =        F    use ultrasoft PP ?                                      
   IUNSCR =        1    unscreen: 0-lin 1-nonlin 2-no                           
   RPACOR =    1.200    partial core radius                                     
   POMASS =   14.001; ZVAL   =    5.000    mass and valenz                      
   RCORE  =    1.500    outmost cutoff radius                                   
   RWIGS  =    1.400; RWIGS  =    0.741    wigner-seitz radius (au A)           
   ENMAX  =  400.000; ENMIN  =  300.000 eV                                      
   ICORE  =        2    local potential                                         
   LCOR   =        T    correct aug charges                                     
   LPAW   =        T    paw PP                                                  
   EAUG   =  627.112                                                            
   DEXC   =    0.000                                                            
   RMAX   =    1.529    core radius for proj-oper                               
   RAUG   =    1.300    factor for augmentation sphere                          
   RDEP   =    1.514    radius for radial grids                                 
   RDEPT  =    1.338    core radius for aug-charge                              
                                                                                
   Atomic configuration                                                         
    4 entries                                                                   
     n  l   j            E        occ.                                          
     1  0  0.50      -384.7179   2.0000                                         
     2  0  0.50       -18.5828   2.0000                                         
     2  1  0.50        -7.0898   3.0000                                         
     3  2  1.50        -6.8029   0.0000                                         
   Description                                                                  
     l       E           TYP  RCUT    TYP  RCUT                                 
     0    -18.5828119     23  1.200                                             
     0    -13.5018863     23  1.200                                             
     1     -7.0897853     23  1.500                                             
     1      9.5240782     23  1.500                                             
     2     -6.8029130      7  1.500                                             
  local pseudopotential read in
  partial core-charges read in
  partial kinetic energy density read in
  atomic valenz-charges read in
  non local Contribution for L=           0  read in
    real space projection operators read in
  non local Contribution for L=           0  read in
    real space projection operators read in
  non local Contribution for L=           1  read in
    real space projection operators read in
  non local Contribution for L=           1  read in
    real space projection operators read in
    PAW grid and wavefunctions read in
 
   number of l-projection  operators is LMAX  =           4
   number of lm-projection operators is LMMAX =           8
 
 POTCAR:    PAW_PBE C 08Apr2002                   
   VRHFIN =C: s2p2                                                              
   LEXCH  = PE                                                                  
   EATOM  =   147.1560 eV,   10.8157 Ry                                         
                                                                                
   TITEL  = PAW_PBE C 08Apr2002                                                 
   LULTRA =        F    use ultrasoft PP ?                                      
   IUNSCR =        1    unscreen: 0-lin 1-nonlin 2-no                           
   RPACOR =    1.200    partial core radius                                     
   POMASS =   12.011; ZVAL   =    4.000    mass and valenz                      
   RCORE  =    1.500    outmost cutoff radius                                   
   RWIGS  =    1.630; RWIGS  =    0.863    wigner-seitz radius (au A)           
   ENMAX  =  400.000; ENMIN  =  300.000 eV                                      
   ICORE  =        2    local potential                                         
   LCOR   =        T    correct aug charges                                     
   LPAW   =        T    paw PP                                                  
   EAUG   =  644.873                                                            
   DEXC   =    0.000                                                            
   RMAX   =    1.529    core radius for proj-oper                               
   RAUG   =    1.300    factor for augmentation sphere                          
   RDEP   =    1.501    radius for radial grids                                 
   RDEPT  =    1.300    core radius for aug-charge                              
                                                                                
   Atomic configuration                                                         
    4 entries                                                                   
     n  l   j            E        occ.                                          
     1  0  0.50      -273.3789   2.0000                                         
     2  0  0.50       -13.7508   2.0000                                         
     2  1  0.50        -5.2854   2.0000                                         
     3  2  1.50        -5.4423   0.0000                                         
   Description                                                                  
     l       E           TYP  RCUT    TYP  RCUT                                 
     0    -13.7508458     23  1.200                                             
     0     -8.2022199     23  1.200                                             
     1     -5.2854383     23  1.500                                             
     1     34.0145650     23  1.500                                             
     2     -5.4423304      7  1.500                                             
  local pseudopotential read in
  partial core-charges read in
  partial kinetic energy density read in
  atomic valenz-charges read in
  non local Contribution for L=           0  read in
    real space projection operators read in
  non local Contribution for L=           0  read in
    real space projection operators read in
  non local Contribution for L=           1  read in
    real space projection operators read in
  non local Contribution for L=           1  read in
    real space projection operators read in
    PAW grid and wavefunctions read in
 
   number of l-projection  operators is LMAX  =           4
   number of lm-projection operators is LMMAX =           8
 
 POTCAR:    PAW_PBE F 08Apr2002                   
   VRHFIN =F: s2p5                                                              
   LEXCH  = PE                                                                  
   EATOM  =   659.6475 eV,   48.4827 Ry                                         
                                                                                
   TITEL  = PAW_PBE F 08Apr2002                                                 
   LULTRA =        F    use ultrasoft PP ?                                      
   IUNSCR =        1    unscreen: 0-lin 1-nonlin 2-no                           
   RPACOR =    1.200    partial core radius                                     
   POMASS =   18.998; ZVAL   =    7.000    mass and valenz                      
   RCORE  =    1.520    outmost cutoff radius                                   
   RWIGS  =    1.500; RWIGS  =    0.794    wigner-seitz radius (au A)           
   ENMAX  =  400.000; ENMIN  =  300.000 eV                                      
   ICORE  =        2    local potential                                         
   LCOR   =        T    correct aug charges                                     
   LPAW   =        T    paw PP                                                  
   EAUG   =  613.614                                                            
   RMAX   =    1.555    core radius for proj-oper                               
   RAUG   =    1.300    factor for augmentation sphere                          
   RDEP   =    1.539    radius for radial grids                                 
   RDEPT  =    1.299    core radius for aug-charge                              
                                                                                
   Atomic configuration                                                         
    4 entries                                                                   
     n  l   j            E        occ.                                          
     1  0  0.50      -663.3661   2.0000                                         
     2  0  0.50       -29.8995   2.0000                                         
     2  1  0.50       -11.1114   5.0000                                         
     3  2  1.50       -10.8847   0.0000                                         
   Description                                                                  
     l       E           TYP  RCUT    TYP  RCUT                                 
     0    -29.8995018     23  1.200                                             
     0     -9.5240782     23  1.200                                             
     1    -11.1113914     23  1.520                                             
     1      1.3605826     23  1.520                                             
     2    -10.8846608      7  1.500                                             
  local pseudopotential read in
  partial core-charges read in
  partial kinetic energy density read in
  atomic valenz-charges read in
  non local Contribution for L=           0  read in
    real space projection operators read in
  non local Contribution for L=           0  read in
    real space projection operators read in
  non local Contribution for L=           1  read in
    real space projection operators read in
  non local Contribution for L=           1  read in
    real space projection operators read in
    PAW grid and wavefunctions read in
 
   number of l-projection  operators is LMAX  =           4
   number of lm-projection operators is LMMAX =           8
 
 POTCAR:    PAW_PBE O 08Apr2002                   
   VRHFIN =O: s2p4                                                              
   LEXCH  = PE                                                                  
   EATOM  =   432.3788 eV,   31.7789 Ry                                         
                                                                                
   TITEL  = PAW_PBE O 08Apr2002                                                 
   LULTRA =        F    use ultrasoft PP ?                                      
   IUNSCR =        1    unscreen: 0-lin 1-nonlin 2-no                           
   RPACOR =    1.200    partial core radius                                     
   POMASS =   16.000; ZVAL   =    6.000    mass and valenz                      
   RCORE  =    1.520    outmost cutoff radius                                   
   RWIGS  =    1.550; RWIGS  =    0.820    wigner-seitz radius (au A)           
   ENMAX  =  400.000; ENMIN  =  300.000 eV                                      
   ICORE  =        2    local potential                                         
   LCOR   =        T    correct aug charges                                     
   LPAW   =        T    paw PP                                                  
   EAUG   =  605.392                                                            
   DEXC   =    0.000                                                            
   RMAX   =    1.553    core radius for proj-oper                               
   RAUG   =    1.300    factor for augmentation sphere                          
   RDEP   =    1.550    radius for radial grids                                 
   RDEPT  =    1.329    core radius for aug-charge                              
                                                                                
   Atomic configuration                                                         
    4 entries                                                                   
     n  l   j            E        occ.                                          
     1  0  0.50      -514.6923   2.0000                                         
     2  0  0.50       -23.9615   2.0000                                         
     2  1  0.50        -9.0305   4.0000                                         
     3  2  1.50        -9.5241   0.0000                                         
   Description                                                                  
     l       E           TYP  RCUT    TYP  RCUT                                 
     0    -23.9615318     23  1.200                                             
     0     -9.5240782     23  1.200                                             
     1     -9.0304911     23  1.520                                             
     1      8.1634956     23  1.520                                             
     2     -9.5240782      7  1.500                                             
  local pseudopotential read in
  partial core-charges read in
  partial kinetic energy density read in
  kinetic energy density of atom read in
  atomic valenz-charges read in
  non local Contribution for L=           0  read in
    real space projection operators read in
  non local Contribution for L=           0  read in
    real space projection operators read in
  non local Contribution for L=           1  read in
    real space projection operators read in
  non local Contribution for L=           1  read in
    real space projection operators read in
    PAW grid and wavefunctions read in
 
   number of l-projection  operators is LMAX  =           4
   number of lm-projection operators is LMMAX =           8
 
 Optimization of the real space projectors (new method)

 maximal supplied QI-value         = 22.11
 optimisation between [QCUT,QGAM] = [ 11.94, 23.88] = [ 39.92,159.67] Ry 
 Optimized for a Real-space Cutoff    1.18 Angstroem

   l    n(q)    QCUT    max X(q) W(low)/X(q) W(high)/X(q)  e(spline) 
   0      8    11.939    53.033    0.11E-03    0.34E-03    0.60E-07
   0      8    11.939    34.740    0.11E-03    0.34E-03    0.59E-07
   1      8    11.939    30.949    0.22E-03    0.20E-03    0.17E-06
   1      8    11.939    19.518    0.20E-03    0.18E-03    0.16E-06
 Optimization of the real space projectors (new method)

 maximal supplied QI-value         = 25.13
 optimisation between [QCUT,QGAM] = [ 11.81, 23.88] = [ 39.08,159.64] Ry 
 Optimized for a Real-space Cutoff    1.41 Angstroem

   l    n(q)    QCUT    max X(q) W(low)/X(q) W(high)/X(q)  e(spline) 
   0     10    11.813    79.467    0.48E-04    0.30E-04    0.67E-06
   0     10    11.813    66.151    0.47E-04    0.30E-04    0.67E-06
   1     10    11.813    20.169    0.11E-03    0.17E-03    0.11E-05
   1     10    11.813    14.454    0.11E-03    0.17E-03    0.11E-05
 Optimization of the real space projectors (new method)

 maximal supplied QI-value         = 25.13
 optimisation between [QCUT,QGAM] = [ 11.81, 23.88] = [ 39.08,159.64] Ry 
 Optimized for a Real-space Cutoff    1.18 Angstroem

   l    n(q)    QCUT    max X(q) W(low)/X(q) W(high)/X(q)  e(spline) 
   0      8    11.813   115.676    0.10E-03    0.16E-03    0.35E-06
   0      8    11.813    87.132    0.10E-03    0.16E-03    0.35E-06
   1      8    11.813     4.429    0.16E-03    0.13E-04    0.22E-06
   1      8    11.813     2.733    0.13E-03    0.10E-04    0.18E-06
 Optimization of the real space projectors (new method)

 maximal supplied QI-value         = 24.76
 optimisation between [QCUT,QGAM] = [ 11.88, 24.01] = [ 39.54,161.47] Ry 
 Optimized for a Real-space Cutoff    1.18 Angstroem

   l    n(q)    QCUT    max X(q) W(low)/X(q) W(high)/X(q)  e(spline) 
   0      8    11.883    14.049    0.56E-04    0.86E-04    0.22E-06
   0      8    11.883     8.945    0.81E-04    0.11E-03    0.30E-06
   1      8    11.883     7.086    0.16E-03    0.15E-04    0.31E-06
   1      8    11.883     6.747    0.15E-03    0.14E-04    0.28E-06
 Optimization of the real space projectors (new method)

 maximal supplied QI-value         = 24.76
 optimisation between [QCUT,QGAM] = [ 11.88, 24.01] = [ 39.54,161.47] Ry 
 Optimized for a Real-space Cutoff    1.18 Angstroem

   l    n(q)    QCUT    max X(q) W(low)/X(q) W(high)/X(q)  e(spline) 
   0      8    11.883    20.381    0.86E-04    0.11E-03    0.31E-06
   0      8    11.883    15.268    0.94E-04    0.12E-03    0.33E-06
   1      8    11.883     5.964    0.19E-03    0.18E-04    0.33E-06
   1      8    11.883     5.382    0.17E-03    0.20E-04    0.29E-06
  PAW_PBE B 06Sep2000                   :
 energy of atom  1       EATOM=  -71.1703
 kinetic energy error for atom=    0.0009 (will be added to EATOM!!)
  PAW_PBE N 08Apr2002                   :
 energy of atom  2       EATOM= -264.5486
 kinetic energy error for atom=    0.0116 (will be added to EATOM!!)
  PAW_PBE C 08Apr2002                   :
 energy of atom  3       EATOM= -147.1560
 kinetic energy error for atom=    0.0066 (will be added to EATOM!!)
  PAW_PBE F 08Apr2002                   :
 energy of atom  4       EATOM= -659.6475
 kinetic energy error for atom=    0.0296 (will be added to EATOM!!)
  PAW_PBE O 08Apr2002                   :
 energy of atom  5       EATOM= -432.3788
 kinetic energy error for atom=    0.0194 (will be added to EATOM!!)
 
 
 POSCAR: B N C F O                               
  positions in direct lattice
  velocities in cartesian coordinates

 METAGGA = SCAN     LMAXTAU =  6    LMIXTAU =  F

 exchange correlation table for  LEXCH =        8
   RHO(1)=    0.500       N(1)  =     2000
   RHO(2)=  100.500       N(2)  =     4000
 


--------------------------------------------------------------------------------------------------------


 ion  position               nearest neighbor table
   1  0.111  0.055  0.500-  43 1.45  37 1.45  42 1.45
   2  0.111  0.222  0.500-  44 1.45  38 1.45  37 1.45
   3  0.111  0.389  0.500-  39 1.45  45 1.45  38 1.45
   4  0.111  0.555  0.500-  39 1.45  46 1.45  40 1.45
   5  0.111  0.722  0.501-  47 1.45  41 1.45  40 1.45
   6  0.111  0.889  0.501-  42 1.45  48 1.45  41 1.45
   7  0.278  0.056  0.500-  49 1.45  43 1.45  48 1.45
   8  0.278  0.222  0.499-  50 1.45  44 1.45  43 1.45
   9  0.278  0.389  0.498-  51 1.45  44 1.45  45 1.45
  10  0.278  0.555  0.499-  52 1.45  45 1.45  46 1.45
  11  0.278  0.722  0.500-  53 1.45  47 1.45  46 1.45
  12  0.278  0.889  0.501-  54 1.45  48 1.45  47 1.45
  13  0.444  0.056  0.500-  49 1.45  55 1.45  54 1.45
  14  0.444  0.222  0.499-  56 1.45  50 1.45  49 1.45
  15  0.444  0.389  0.498-  57 1.45  50 1.45  51 1.45
  16  0.444  0.555  0.497-  58 1.45  51 1.45  52 1.45
  17  0.444  0.722  0.499-  59 1.45  52 1.45  53 1.45
  18  0.444  0.889  0.500-  60 1.45  54 1.45  53 1.45
  19  0.611  0.056  0.500-  61 1.45  55 1.45  60 1.45
  20  0.611  0.222  0.499-  56 1.45  62 1.45  55 1.45
  21  0.611  0.389  0.499-  56 1.45  63 1.45  57 1.45
  22  0.611  0.555  0.498-  57 1.45  64 1.45  58 1.45
  23  0.611  0.722  0.499-  58 1.45  65 1.45  59 1.45
  24  0.611  0.889  0.500-  66 1.45  60 1.45  59 1.45
  25  0.778  0.055  0.500-  67 1.45  61 1.45  66 1.45
  26  0.778  0.222  0.500-  62 1.45  68 1.45  61 1.45
  27  0.778  0.389  0.499-  63 1.45  62 1.45  69 1.45
  28  0.778  0.555  0.499-  63 1.45  64 1.45  70 1.45
  29  0.778  0.722  0.499-  64 1.45  65 1.45  71 1.45
  30  0.778  0.889  0.500-  65 1.45  72 1.45  66 1.45
  31  0.944  0.055  0.500-  37 1.45  67 1.45  72 1.45
  32  0.944  0.222  0.500-  67 1.45  68 1.45  38 1.45
  33  0.944  0.389  0.500-  69 1.45  68 1.45  39 1.45
  34  0.944  0.555  0.500-  70 1.45  69 1.45  40 1.45
  35  0.944  0.722  0.500-  70 1.45  71 1.45  41 1.45
  36  0.944  0.889  0.500-  71 1.45  42 1.45  72 1.45
  37  0.055  0.111  0.500-  31 1.45   1 1.45   2 1.45
  38  0.055  0.278  0.500-  32 1.45   2 1.45   3 1.45
  39  0.055  0.444  0.500-   4 1.45   3 1.45  33 1.45
  40  0.055  0.611  0.501-   5 1.45   4 1.45  34 1.45
  41  0.055  0.778  0.501-   5 1.45   6 1.45  35 1.45
  42  0.055  0.944  0.500-   6 1.45  36 1.45   1 1.45
  43  0.222  0.111  0.500-   1 1.45   7 1.45   8 1.45
  44  0.222  0.278  0.499-   2 1.45   8 1.45   9 1.45
  45  0.222  0.444  0.499-  10 1.45   3 1.45   9 1.45
  46  0.222  0.611  0.500-   4 1.45  11 1.45  10 1.45
  47  0.222  0.778  0.501-   5 1.45  11 1.45  12 1.45
  48  0.222  0.944  0.501-  12 1.45   6 1.45   7 1.45
  49  0.389  0.111  0.500-   7 1.45  13 1.45  14 1.45
  50  0.389  0.278  0.498-   8 1.45  14 1.45  15 1.45
  51  0.389  0.444  0.497-   9 1.45  16 1.45  15 1.45
  52  0.389  0.611  0.499-  10 1.45  17 1.45  16 1.45
  53  0.389  0.778  0.500-  11 1.45  17 1.45  18 1.45
  54  0.389  0.944  0.501-  12 1.45  18 1.45  13 1.45
  55  0.555  0.111  0.500-  13 1.45  19 1.45  20 1.45
  56  0.555  0.278  0.499-  20 1.45  14 1.45  21 1.45
  57  0.555  0.444  0.498-  22 1.45  15 1.45  21 1.45
  58  0.555  0.611  0.497-  16 1.45  23 1.45  22 1.45
  59  0.555  0.778  0.499-  17 1.45  24 1.45  23 1.45
  60  0.555  0.944  0.500-  18 1.45  24 1.45  19 1.45
  61  0.722  0.111  0.500-  19 1.45  25 1.45  26 1.45
  62  0.722  0.278  0.499-  26 1.45  27 1.45  20 1.45
  63  0.722  0.444  0.499-  28 1.45  27 1.45  21 1.45
  64  0.722  0.611  0.499-  29 1.45  28 1.45  22 1.45
  65  0.722  0.778  0.499-  30 1.45  29 1.45  23 1.45
  66  0.722  0.944  0.500-  24 1.45  25 1.45  30 1.45
  67  0.889  0.111  0.501-  25 1.45  32 1.45  31 1.45
  68  0.889  0.278  0.500-  33 1.45  32 1.45  26 1.45
  69  0.889  0.444  0.500-  33 1.45  34 1.45  27 1.45
  70  0.889  0.611  0.500-  35 1.45  34 1.45  28 1.45
  71  0.889  0.778  0.500-  36 1.45  35 1.45  29 1.45
  72  0.889  0.944  0.500-  36 1.45  30 1.45  31 1.45
  73  0.454  0.590  0.622-  77 1.34  78 1.34  79 1.35  74 1.54
  74  0.500  0.530  0.603-  81 1.36  80 1.36  75 1.54  73 1.54
  75  0.534  0.469  0.628-  83 1.37  82 1.37  74 1.54  76 1.56
  76  0.572  0.406  0.604-  85 1.25  84 1.25  75 1.56
  77  0.368  0.527  0.641-  73 1.34
  78  0.522  0.659  0.647-  73 1.34
  79  0.432  0.639  0.596-  73 1.35
  80  0.427  0.464  0.578-  74 1.36
  81  0.582  0.600  0.582-  74 1.36
  82  0.609  0.537  0.651-  75 1.37
  83  0.453  0.406  0.650-  75 1.37
  84  0.505  0.316  0.597-  76 1.25
  85  0.664  0.454  0.595-  76 1.25
 
  LATTYP: Found a hexagonal cell.
 ALAT       =    15.0731507304
 C/A-ratio  =     2.3296167479
  
  Lattice vectors:
  
 A1 = (   7.5365500567, -13.0537460594,   0.0000000000)
 A2 = (   7.5365500567,  13.0537460594,   0.0000000000)
 A3 = (   0.0000000000,   0.0000000000,  35.1146643856)


Analysis of symmetry for initial positions (statically):
=====================================================================
 Subroutine PRICEL returns:
 Original cell was already a primitive cell.
 

 Routine SETGRP: Setting up the symmetry group for a 
 hexagonal supercell.


 Subroutine GETGRP returns: Found  1 space group operations
 (whereof  1 operations were pure point group operations)
 out of a pool of 24 trial point group operations.


The static configuration has the point symmetry C_1 .


Analysis of symmetry for dynamics (positions and initial velocities):
=====================================================================
 Subroutine PRICEL returns:
 Original cell was already a primitive cell.
 

 Routine SETGRP: Setting up the symmetry group for a 
 hexagonal supercell.


 Subroutine GETGRP returns: Found  1 space group operations
 (whereof  1 operations were pure point group operations)
 out of a pool of 24 trial point group operations.


The dynamic configuration has the point symmetry C_1 .


Analysis of constrained symmetry for selective dynamics:
=====================================================================
 Subroutine PRICEL returns:
 Original cell was already a primitive cell.
 

 Routine SETGRP: Setting up the symmetry group for a 
 hexagonal supercell.


 Subroutine GETGRP returns: Found  1 space group operations
 (whereof  1 operations were pure point group operations)
 out of a pool of 24 trial point group operations.


The constrained configuration has the point symmetry C_1 .


Analysis of structural, dynamic, and magnetic symmetry:
=====================================================================
 Subroutine PRICEL returns:
 Original cell was already a primitive cell.
 

 Routine SETGRP: Setting up the symmetry group for a 
 hexagonal supercell.


 Subroutine GETGRP returns: Found  1 space group operations
 (whereof  1 operations were pure point group operations)
 out of a pool of 24 trial point group operations.


The magnetic configuration has the point symmetry C_1 .


 Subroutine INISYM returns: Found  1 space group operations
 (whereof  1 operations are pure point group operations),
 and found     1 'primitive' translations

 
 
 KPOINTS: K-Point Grid                            

Automatic generation of k-mesh.
Space group operators:
 irot       det(A)        alpha          n_x          n_y          n_z        tau_x        tau_y        tau_z
    1     1.000000     0.000000     1.000000     0.000000     0.000000     0.000000     0.000000     0.000000
 
 Subroutine IBZKPT returns following result:
 ===========================================
 
 Found      5 irreducible k-points:
 
 Following reciprocal coordinates:
            Coordinates               Weight
  0.000000  0.000000  0.000000      1.000000
  0.333333  0.000000  0.000000      2.000000
  0.000000  0.333333  0.000000      2.000000
  0.333333  0.333333  0.000000      2.000000
 -0.333333  0.333333  0.000000      2.000000
 
 Following cartesian coordinates:
            Coordinates               Weight
  0.000000  0.000000  0.000000      1.000000
  0.022114 -0.012768  0.000000      2.000000
  0.022114  0.012768  0.000000      2.000000
  0.044229  0.000000  0.000000      2.000000
  0.000000  0.025535  0.000000      2.000000
 


--------------------------------------------------------------------------------------------------------




 Dimension of arrays:
   k-points           NKPTS =      5   k-points in BZ     NKDIM =      5   number of bands    NBANDS=    268
   number of dos      NEDOS =   1200   number of ions     NIONS =     85
   non local maximal  LDIM  =      4   non local SUM 2l+1 LMDIM =      8
   total plane-waves  NPLWV = ******
   max r-space proj   IRMAX =   6598   max aug-charges    IRDMAX=   8974
   dimension x,y,z NGX =   120 NGY =  120 NGZ =  270
   dimension x,y,z NGXF=   240 NGYF=  240 NGZF=  540
   support grid    NGXF=   240 NGYF=  240 NGZF=  540
   ions per type =              36  36   4   7   2
   NGX,Y,Z   is equivalent  to a cutoff of  13.24, 13.24, 12.78 a.u.
   NGXF,Y,Z  is equivalent  to a cutoff of  26.47, 26.47, 25.57 a.u.

 SYSTEM =  SiC                                     
 POSCAR =  B N C F O                               

 Startparameter for this run:
   NWRITE =      2    write-flag & timer
   PREC   = accura    normal or accurate (medium, high low for compatibility)
   ISTART =      1    job   : 0-new  1-cont  2-samecut
   ICHARG =      0    charge: 1-file 2-atom 10-const
   ISPIN  =      2    spin polarized calculation?
   LNONCOLLINEAR =      F non collinear calculations
   LSORBIT =      F    spin-orbit coupling
   INIWAV =      1    electr: 0-lowe 1-rand  2-diag
   LASPH  =      T    aspherical Exc in radial PAW
   METAGGA=      F    non-selfconsistent MetaGGA calc.

 Electronic Relaxation 1
   ENCUT  =  550.0 eV  40.42 Ry    6.36 a.u.  28.82 28.82 67.15*2*pi/ulx,y,z
   ENINI  =  550.0     initial cutoff
   ENAUG  =  644.9 eV  augmentation charge cutoff
   NELM   =    100;   NELMIN=  2; NELMDL=  0     # of ELM steps 
   EDIFF  = 0.1E-04   stopping-criterion for ELM
   LREAL  =      T    real-space projection
   NLSPLINE    = F    spline interpolate recip. space projectors
   LCOMPAT=      F    compatible to vasp.4.4
   GGA_COMPAT  = T    GGA compatible to vasp.4.4-vasp.4.6
   LMAXPAW     = -100 max onsite density
   LMAXMIX     =    2 max onsite mixed and CHGCAR
   VOSKOWN=      0    Vosko Wilk Nusair interpolation
   ROPT   =   -0.00025  -0.00025  -0.00025  -0.00025
   ROPT   =   -0.00025
 Ionic relaxation
   EDIFFG = -.5E-01   stopping-criterion for IOM
   NSW    =    500    number of steps for IOM
   NBLOCK =      1;   KBLOCK =    500    inner block; outer block 
   IBRION =      2    ionic relax: 0-MD 1-quasi-New 2-CG
   NFREE  =      1    steps in history (QN), initial steepest desc. (CG)
   ISIF   =      2    stress and relaxation
   IWAVPR =     11    prediction:  0-non 1-charg 2-wave 3-comb
   ISYM   =      2    0-nonsym 1-usesym 2-fastsym
   LCORR  =      T    Harris-Foulkes like correction to forces

   POTIM  = 0.5000    time-step for ionic-motion
   TEIN   =    0.0    initial temperature
   TEBEG  =    0.0;   TEEND  =   0.0 temperature during run
   SMASS  =  -3.00    Nose mass-parameter (am)
   estimated Nose-frequenzy (Omega)   =  0.10E-29 period in steps =****** mass=  -0.519E-26a.u.
   SCALEE = 1.0000    scale energy and forces
   NPACO  =    256;   APACO  = 16.0  distance and # of slots for P.C.
   PSTRESS=    0.0 pullay stress

  Mass of Ions in am
   POMASS =  10.81 14.00 12.01 19.00 16.00
  Ionic Valenz
   ZVAL   =   3.00  5.00  4.00  7.00  6.00
  Atomic Wigner-Seitz radii
   RWIGS  =  -1.00 -1.00 -1.00 -1.00 -1.00
  virtual crystal weights 
   VCA    =   1.00  1.00  1.00  1.00  1.00
   NELECT =     365.0000    total number of electrons
   NUPDOWN=      -1.0000    fix difference up-down

 DOS related values:
   EMIN   =  10.00;   EMAX   =-10.00  energy-range for DOS
   EFERMI =   0.00
   ISMEAR =     0;   SIGMA  =   0.05  broadening in eV -4-tet -1-fermi 0-gaus

 Electronic relaxation 2 (details)
   IALGO  =     68    algorithm
   LDIAG  =      T    sub-space diagonalisation (order eigenvalues)
   LSUBROT=      F    optimize rotation matrix (better conditioning)
   TURBO    =      0    0=normal 1=particle mesh
   IRESTART =      0    0=no restart 2=restart with 2 vectors
   NREBOOT  =      0    no. of reboots
   NMIN     =      0    reboot dimension
   EREF     =   0.00    reference energy to select bands
   IMIX   =      4    mixing-type and parameters
     AMIX     =   0.40;   BMIX     =  1.00
     AMIX_MAG =   1.60;   BMIX_MAG =  1.00
     AMIN     =   0.10
     WC   =   100.;   INIMIX=   1;  MIXPRE=   1;  MAXMIX= -45

 Intra band minimization:
   WEIMIN = 0.0010     energy-eigenvalue tresh-hold
   EBREAK =  0.93E-08  absolut break condition
   DEPER  =   0.30     relativ break condition  

   TIME   =   0.40     timestep for ELM

  volume/ion in A,a.u.               =      81.28       548.53
  Fermi-wavevector in a.u.,A,eV,Ry     =   0.614276  1.160814  5.133958  0.377335
  Thomas-Fermi vector in A             =   1.671228
 
 Write flags
   LWAVE        =      T    write WAVECAR
   LDOWNSAMPLE  =      F    k-point downsampling of WAVECAR
   LCHARG       =      F    write CHGCAR
   LVTOT        =      F    write LOCPOT, total local potential
   LVHAR        =      T    write LOCPOT, Hartree potential only
   LELF         =      F    write electronic localiz. function (ELF)
   LORBIT       =     11    0 simple, 1 ext, 2 COOP (PROOUT), +10 PAW based schemes


 Dipole corrections
   LMONO  =      F    monopole corrections only (constant potential shift)
   LDIPOL =      F    correct potential (dipole corrections)
   IDIPOL =      0    1-x, 2-y, 3-z, 4-all directions 
   EPSILON=  1.0000000 bulk dielectric constant

 Exchange correlation treatment:
   GGA     =    --    GGA type
   LEXCH   =     8    internal setting for exchange type
   VOSKOWN=      0    Vosko Wilk Nusair interpolation
   LHFCALC =     F    Hartree Fock is set to
   LHFONE  =     F    Hartree Fock one center treatment
   AEXX    =    0.0000 exact exchange contribution

 vdW DFT:
   LUSE_VDW   =     T    switch on vdW DFT
   Zab_VDW    =-.8491    correlation parameter
   PARAM1     =0.1234
   PARAM2     =1.0000
   PARAM3     =0.0000
   -- rVV10 --
   BPARAM     =15.7000
   CPARAM     = 0.0093

 Linear response parameters
   LEPSILON=     F    determine dielectric tensor
   LRPA    =     F    only Hartree local field effects (RPA)
   LNABLA  =     F    use nabla operator in PAW spheres
   LVEL    =     F    velocity operator in full k-point grid
   LINTERFAST=   F  fast interpolation
   KINTER  =     0    interpolate to denser k-point grid
   CSHIFT  =0.1000    complex shift for real part using Kramers Kronig
   OMEGAMAX=  -1.0    maximum frequency
   DEG_THRESHOLD= 0.2000000E-02 threshold for treating states as degnerate
   RTIME   =   -0.100 relaxation time in fs
  (WPLASMAI=    0.000 imaginary part of plasma frequency in eV, 0.658/RTIME)
   DFIELD  = 0.0000000 0.0000000 0.0000000 field for delta impulse in time
 
 Orbital magnetization related:
   ORBITALMAG=     F  switch on orbital magnetization
   LCHIMAG   =     F  perturbation theory with respect to B field
   DQ        =  0.001000  dq finite difference perturbation B field
   LLRAUG    =     F  two centre corrections for induced B field

 Solvation model:
   LSOL    =     T         switch on solvation model
   EB_K    = 78.400000     relative permittivity of the bulk solvent
   SIGMA_K =  0.600000     width of the dielectric cavity
   NC_K    =  0.002500     cutoff charge density
   TAU     =  0.000000     cavity surface tension
   LAMBDA_D_K    =  3.040000     Debye length in Angstroms
   LRHOB     =     F     write boundcharge  density
   LRHOION     =     F     write ioniccharge density



--------------------------------------------------------------------------------------------------------


 conjugate gradient relaxation of ions
   using selective dynamics as specified on POSCAR
 charge density and potential will be updated during run
 spin polarized calculation
 RMM-DIIS sequential band-by-band and
  variant of blocked Davidson during initial phase
 perform sub-space diagonalisation
    before iterative eigenvector-optimisation
 modified Broyden-mixing scheme, WC =      100.0
 initial mixing is a Kerker type mixing with AMIX =  0.4000 and BMIX =      1.0000
 Hartree-type preconditioning will be used
 using additional bands           85
 real space projection scheme for non local part
 use partial core corrections
 calculate Harris-corrections to forces 
   (improved forces if not selfconsistent)
 use gradient corrections 
 use of overlap-Matrix (Vanderbilt PP)
 Gauss-broadening in eV      SIGMA  =   0.05


--------------------------------------------------------------------------------------------------------


  energy-cutoff  :      550.00
  volume of cell :     6909.18
      direct lattice vectors                 reciprocal lattice vectors
     7.536550057-13.053746059  0.000000000     0.066343353 -0.038303181  0.000000000
     7.536550057 13.053746059  0.000000000     0.066343353  0.038303181  0.000000000
     0.000000000  0.000000000 35.114664386     0.000000000  0.000000000  0.028478131

  length of vectors
    15.073150730 15.073150730 35.114664386     0.076606620  0.076606620  0.028478131


 
 old parameters found on file WAVECAR:
  energy-cutoff  :      550.00
  volume of cell :     6909.18
      direct lattice vectors                 reciprocal lattice vectors
     7.536550057-13.053746059  0.000000000     0.066343353 -0.038303181  0.000000000
     7.536550057 13.053746059  0.000000000     0.066343353  0.038303181  0.000000000
     0.000000000  0.000000000 35.114664386     0.000000000  0.000000000  0.028478131

  length of vectors

 
 k-points in units of 2pi/SCALE and weight: K-Point Grid                            
   0.00000000  0.00000000  0.00000000       0.111
   0.02211445 -0.01276773  0.00000000       0.222
   0.02211445  0.01276773  0.00000000       0.222
   0.04422890  0.00000000  0.00000000       0.222
   0.00000000  0.02553545  0.00000000       0.222
 
 k-points in reciprocal lattice and weights: K-Point Grid                            
   0.00000000  0.00000000  0.00000000       0.111
   0.33333333  0.00000000  0.00000000       0.222
   0.00000000  0.33333333  0.00000000       0.222
   0.33333333  0.33333333  0.00000000       0.222
  -0.33333333  0.33333333  0.00000000       0.222
 
 position of ions in fractional coordinates (direct lattice) 
   0.11093447  0.05547151  0.50017719
   0.11094519  0.22213580  0.49975167
   0.11095877  0.38880657  0.49984269
   0.11095847  0.55545807  0.50040173
   0.11096613  0.72214806  0.50063464
   0.11094982  0.88881477  0.50050022
   0.27764929  0.05555623  0.50017516
   0.27763670  0.22218576  0.49901245
   0.27763326  0.38880772  0.49800209
   0.27762727  0.55546769  0.49914129
   0.27760948  0.72214540  0.50029026
   0.27762357  0.88884762  0.50067712
   0.44425759  0.05558641  0.50034717
   0.44433873  0.22232198  0.49915838
   0.44424825  0.38882587  0.49756899
   0.44421523  0.55539948  0.49728712
   0.44425376  0.72210203  0.49933809
   0.44427603  0.88884222  0.50048217
   0.61089497  0.05551234  0.50035599
   0.61092589  0.22226154  0.49942612
   0.61093142  0.38887724  0.49865108
   0.61088278  0.55542124  0.49793760
   0.61085657  0.72202693  0.49869467
   0.61090382  0.88878562  0.50011672
   0.77756498  0.05545696  0.50044257
   0.77757076  0.22217529  0.50002060
   0.77756398  0.38883880  0.49938827
   0.77752874  0.55539321  0.49916828
   0.77754451  0.72204755  0.49940344
   0.77754551  0.88871587  0.50011761
   0.94424037  0.05543777  0.50043747
   0.94424135  0.22211106  0.50034043
   0.94426314  0.38880586  0.50030361
   0.94425091  0.55546487  0.50026341
   0.94424834  0.72207817  0.50017547
   0.94424511  0.88874881  0.50029411
   0.05535291  0.11100822  0.50020621
   0.05536210  0.27767742  0.50003776
   0.05539435  0.44435313  0.50038735
   0.05539198  0.61101912  0.50062612
   0.05538888  0.77768574  0.50053916
   0.05536613  0.94434422  0.50041325
   0.22203614  0.11105828  0.49985865
   0.22202152  0.27769425  0.49886488
   0.22205669  0.44435918  0.49893286
   0.22206801  0.61101995  0.50005454
   0.22207525  0.77772042  0.50067852
   0.22206969  0.94440601  0.50056425
   0.38872926  0.11115340  0.50002047
   0.38867260  0.27773559  0.49841446
   0.38860752  0.44431026  0.49660686
   0.38871272  0.61100727  0.49850840
   0.38872124  0.77769669  0.50012329
   0.38873215  0.94443130  0.50070295
   0.55537153  0.11110831  0.50013178
   0.55540337  0.27776726  0.49873948
   0.55531440  0.44439259  0.49799507
   0.55529599  0.61099806  0.49736088
   0.55535764  0.77766153  0.49938431
   0.55536835  0.94437607  0.50049758
   0.72201306  0.11103712  0.50028700
   0.72205261  0.27772218  0.49945003
   0.72207178  0.44437144  0.49867478
   0.72201296  0.61100342  0.49875382
   0.72197247  0.77760420  0.49945682
   0.72200687  0.94431908  0.50032441
   0.88867951  0.11099431  0.50053510
   0.88869273  0.27768549  0.50026165
   0.88870094  0.44435241  0.50008217
   0.88868519  0.61099469  0.49994648
   0.88867193  0.77763077  0.50000488
   0.88867201  0.94430099  0.50040026
   0.45445851  0.58961308  0.62242465
   0.50002613  0.52993761  0.60265402
   0.53380517  0.46874724  0.62780283
   0.57153644  0.40610798  0.60419315
   0.36834623  0.52660840  0.64128098
   0.52161337  0.65921709  0.64676523
   0.43154263  0.63892634  0.59565208
   0.42735455  0.46411255  0.57792688
   0.58216713  0.59962595  0.58230127
   0.60938788  0.53692668  0.65141836
   0.45257513  0.40575706  0.65043580
   0.50473983  0.31635949  0.59668222
   0.66394539  0.45388575  0.59539579
 
 position of ions in cartesian coordinates  (Angst):
   1.25412701 -0.72399936 17.56355427
   2.51028157  1.45145398 17.54861219
   3.76650650  3.62695454 17.55180831
   5.02248158  5.80238490 17.57143884
   6.27880682  7.97821374 17.57961749
   7.53477585 10.15405154 17.57489715
   2.51122011 -2.89914643 17.56348273
   3.76693700 -0.72384244 17.52265458
   5.02266582  1.45124320 17.48717621
   6.27866186  3.62685832 17.52717873
   7.53470270  5.80285895 17.56752467
   8.79116845  7.97876355 17.58110890
   3.76709930 -5.07361495 17.56952280
   5.02432185 -2.89815023 17.52777909
   6.27850478 -0.72346970 17.47196818
   7.53364627  1.45137095 17.46207042
   8.79029878  3.62696085 17.53408945
  10.04711242  5.80325418 17.57426339
   5.02241207 -7.24982384 17.56983282
   6.27935876 -5.07352582 17.53718058
   7.53510799 -2.89863883 17.50996530
   8.78990862 -0.72398095 17.48491157
  10.04534316  1.45118962 17.51149605
  11.30248451  3.62739852 17.56143064
   6.27811157 -9.42621468 17.57287285
   7.53463619 -7.24999144 17.55805543
   8.79065299 -5.07431976 17.53585166
  10.04563298 -2.89970082 17.52812667
  11.30175060 -0.72444328 17.53638419
  12.55786233  1.45118971 17.56146219
   7.53412435-11.60220341 17.57269395
   8.79027332 -9.42650540 17.56928623
  10.04674126 -7.25079820 17.56799325
  11.30268306 -5.07511424 17.56658161
  12.55835310 -2.90015300 17.56349384
  13.81445043 -0.72443452 17.56765992
   1.25378894  0.72651027 17.56457330
   2.50996903  2.90204768 17.55865819
   3.76637190  5.07736924 17.57093391
   5.02244062  7.25301551 17.57931815
   6.27850854  9.42867986 17.57626446
   7.53436709 11.60449432 17.57184318
   2.51038277 -1.44867674 17.55236869
   3.76613286  0.72673769 17.51747269
   5.02247651  2.90188028 17.51986002
   6.27860914  5.07727980 17.55924726
   7.53501017  7.25325092 17.58115833
   8.79120244  9.42919492 17.57714568
   3.76739071 -3.62340473 17.55805109
   5.02241869 -1.44814361 17.50165651
   6.27732649  0.72712944 17.43818339
   7.53443975  2.90177670 17.50495528
   8.79076711  5.07758676 17.56166140
  10.04745307  7.25395571 17.58201604
   5.02295868 -5.79929924 17.56195960
   6.27923218 -3.62419118 17.51306958
   7.53434183 -1.44794511 17.48692967
   8.78983343  0.72712066 17.46466043
  10.04636571  2.90189853 17.53571251
  11.30289893  5.07800800 17.57480460
   6.27832438 -7.97552481 17.56741007
   7.53485270 -5.80017660 17.53802015
   8.79095776 -3.62502976 17.51079752
  10.04634467 -1.44909037 17.51357296
  11.30163469  0.72620245 17.53825847
  12.55834897  2.90200714 17.56872386
   7.53409174-10.15170510 17.57612194
   8.79046788 -7.97593331 17.56652010
  10.04662334 -5.80041290 17.56021752
  11.30241249 -3.62490133 17.55545272
  12.55817373 -1.44950309 17.55750369
  13.81429271  0.72616660 17.57138719
   7.86869780  1.76427349 21.85623253
   7.76237330  0.39045677 21.16199375
   7.55578641 -0.84924975 22.04508567
   7.36806616 -2.15946111 21.21603965
   6.74487036  2.06591417 22.51836629
   8.89938780  1.79624401 22.71094396
   8.06764301  2.70713431 20.91612299
   6.71858646  0.47982965 20.29370839
   8.90664274  0.22790296 20.44731372
   8.63925705 -0.94589014 22.87433709
   6.46886351 -0.61115115 22.83983486
   6.18825617 -2.45906913 20.95229592
   8.42459034 -2.74206514 20.90712330
 


--------------------------------------------------------------------------------------------------------


 k-point  1 :   0.0000 0.0000 0.0000  plane waves:  202395
 k-point  2 :   0.3333 0.0000 0.0000  plane waves:  202358
 k-point  3 :   0.0000 0.3333 0.0000  plane waves:  202358
 k-point  4 :   0.3333 0.3333 0.0000  plane waves:  202335
 k-point  5 :  -0.3333 0.3333 0.0000  plane waves:  202358

 maximum and minimum number of plane-waves per node :      8479     8400

 maximum number of plane-waves:    202395
 maximum index in each direction: 
   IXMAX=   29   IYMAX=   28   IZMAX=   67
   IXMIN=  -29   IYMIN=  -29   IZMIN=  -67


 real space projection operators:
  total allocation   :      25728.75 KBytes
  max/ min on nodes  :       1086.88       1057.94


 parallel 3D FFT for wavefunctions:
    minimum data exchange during FFTs selected (reduces bandwidth)
 parallel 3D FFT for charge:
    minimum data exchange during FFTs selected (reduces bandwidth)


 total amount of memory used by VASP MPI-rank0   219468. kBytes
=======================================================================

   base      :      30000. kBytes
   nonlr-proj:      10846. kBytes
   fftplans  :      17498. kBytes
   grid      :      70152. kBytes
   one-center:         24. kBytes
   wavefun   :      90948. kBytes
 
     INWAV:  cpu time   24.6996: real time   24.8015
 Broyden mixing: mesh for mixing (old mesh)
   NGX = 57   NGY = 57   NGZ =135
  (NGX  =240   NGY  =240   NGZ  =540)
  gives a total of 438615 points

 charge density for first step will be calculated from the start-wavefunctions


--------------------------------------------------------------------------------------------------------


 Maximum index for non-local projection operator          369
 Maximum index for augmentation-charges          392 (set IRDMAX)


--------------------------------------------------------------------------------------------------------


 initial charge from wavefunction
 First call to EWALD:  gamma=   0.093
 Maximum number of real-space cells 4x 4x 2
 Maximum number of reciprocal cells 2x 2x 5

    FEWALD:  cpu time    0.0085: real time    0.0255


--------------------------------------- Iteration      1(   1)  ---------------------------------------


    POTLOK:  cpu time   34.4541: real time   34.5924
    SETDIJ:  cpu time    0.5106: real time    0.5309
     EDDAV:  cpu time  151.2381: real time  151.9017
       DOS:  cpu time    0.0134: real time    0.0134
    CHARGE:  cpu time   29.6836: real time   29.7356
    MIXING:  cpu time    0.0384: real time    0.0386
    --------------------------------------------
      LOOP:  cpu time  215.9383: real time  216.8127

 eigenvalue-minimisations  :  5628
 total energy-change (2. order) :-0.7924071E+03  (-0.4097619E-02)
 number of electron     364.9999985 magnetization       0.0041881
 augmentation part       18.7047323 magnetization      -0.0011391

 Broyden mixing:
  rms(total) = 0.14557E-01    rms(broyden)= 0.14533E-01
  rms(prec ) = 0.14819E-01
  weight for this iteration     100.00

 Free energy of the ion-electron system (eV)
  ---------------------------------------------------
  alpha Z        PSCENC =       100.65948351
  Ewald energy   TEWEN  =    126156.69463714
  -Hartree energ DENC   =   -141679.46021092
  -exchange      EXHF   =         0.00000000
  -V(xc)+E(xc)   XCENC  =      1696.52288164
  PAW double counting   =     42039.97366211   -42219.96555538
  entropy T*S    EENTRO =        -0.02938643
  eigenvalues    EBANDS =     -5333.78542289
  atomic energy  EATOM  =     18156.06983909
  Solvation  Ediel_sol  =       290.91299246
  ---------------------------------------------------
  free energy    TOTEN  =      -792.40707967 eV

  energy without entropy =     -792.37769324  energy(sigma->0) =     -792.39238645


--------------------------------------------------------------------------------------------------------




--------------------------------------- Iteration      1(   2)  ---------------------------------------


    POTLOK:  cpu time   27.7596: real time   28.2669
    SETDIJ:  cpu time    0.4414: real time    0.4424
    EDDIAG:  cpu time   34.5672: real time   34.6218
  RMM-DIIS:  cpu time  195.1388: real time  195.5107
    ORTHCH:  cpu time    0.8492: real time    0.8511
       DOS:  cpu time    0.0030: real time    0.0030
    CHARGE:  cpu time   29.8684: real time   29.9247
    MIXING:  cpu time    0.0160: real time    0.0172
    --------------------------------------------
      LOOP:  cpu time  288.6437: real time  289.6376

 eigenvalue-minimisations  :  5330
 total energy-change (2. order) :-0.8626868E-03  (-0.9215740E-04)
 number of electron     364.9999985 magnetization       0.0043542
 augmentation part       18.6918471 magnetization      -0.0239130

 Broyden mixing:
  rms(total) = 0.60447E-01    rms(broyden)= 0.60383E-01
  rms(prec ) = 0.63835E-01
  weight for this iteration     100.00

 eigenvalues of (default mixing * dielectric matrix)
  average eigenvalue GAMMA=   0.0849
  0.0849

 Free energy of the ion-electron system (eV)
  ---------------------------------------------------
  alpha Z        PSCENC =       100.65948351
  Ewald energy   TEWEN  =    126156.69463714
  -Hartree energ DENC   =   -141679.41571518
  -exchange      EXHF   =         0.00000000
  -V(xc)+E(xc)   XCENC  =      1696.55669457
  PAW double counting   =     42061.83237896   -42241.81378588
  entropy T*S    EENTRO =        -0.03012571
  eigenvalues    EBANDS =     -5333.89509500
  atomic energy  EATOM  =     18156.06983909
  Solvation  Ediel_sol  =       290.93374616
  ---------------------------------------------------
  free energy    TOTEN  =      -792.40794235 eV

  energy without entropy =     -792.37781664  energy(sigma->0) =     -792.39287950


--------------------------------------------------------------------------------------------------------




--------------------------------------- Iteration      1(   3)  ---------------------------------------


    POTLOK:  cpu time   28.9343: real time   29.0018
    SETDIJ:  cpu time    0.4400: real time    0.4410
    EDDIAG:  cpu time   34.5224: real time   34.5725
  RMM-DIIS:  cpu time  196.0360: real time  196.4097
    ORTHCH:  cpu time    0.8428: real time    0.8446
       DOS:  cpu time    0.0030: real time    0.0030
    CHARGE:  cpu time   29.8137: real time   29.8697
    MIXING:  cpu time    0.0159: real time    0.0159
    --------------------------------------------
      LOOP:  cpu time  290.6082: real time  291.1582

 eigenvalue-minimisations  :  5360
 total energy-change (2. order) : 0.1929971E-02  (-0.1791570E-03)
 number of electron     364.9999985 magnetization       0.0044420
 augmentation part       18.7013947 magnetization      -0.0338246

 Broyden mixing:
  rms(total) = 0.21326E-01    rms(broyden)= 0.21244E-01
  rms(prec ) = 0.21283E-01
  weight for this iteration     100.00

 eigenvalues of (default mixing * dielectric matrix)
  average eigenvalue GAMMA=   0.1102
  0.1088  0.1117

 Free energy of the ion-electron system (eV)
  ---------------------------------------------------
  alpha Z        PSCENC =       100.65948351
  Ewald energy   TEWEN  =    126156.69463714
  -Hartree energ DENC   =   -141679.40597380
  -exchange      EXHF   =         0.00000000
  -V(xc)+E(xc)   XCENC  =      1696.50349609
  PAW double counting   =     42063.30516961   -42243.28491513
  entropy T*S    EENTRO =        -0.02949738
  eigenvalues    EBANDS =     -5333.86659890
  atomic energy  EATOM  =     18156.06983909
  Solvation  Ediel_sol  =       290.94834740
  ---------------------------------------------------
  free energy    TOTEN  =      -792.40601238 eV

  energy without entropy =     -792.37651500  energy(sigma->0) =     -792.39126369


--------------------------------------------------------------------------------------------------------




--------------------------------------- Iteration      1(   4)  ---------------------------------------


    POTLOK:  cpu time   27.8884: real time   27.9536
    SETDIJ:  cpu time    0.4411: real time    0.4424
    EDDIAG:  cpu time   34.6567: real time   34.7070
  RMM-DIIS:  cpu time  196.1473: real time  196.5237
    ORTHCH:  cpu time    0.8388: real time    0.8406
       DOS:  cpu time    0.0030: real time    0.0030
    CHARGE:  cpu time   29.9146: real time   29.9695
    MIXING:  cpu time    0.0163: real time    0.0163
    --------------------------------------------
      LOOP:  cpu time  289.9062: real time  290.4561

 eigenvalue-minimisations  :  5348
 total energy-change (2. order) :-0.9184235E-03  (-0.1207841E-03)
 number of electron     364.9999985 magnetization       0.0041027
 augmentation part       18.7018556 magnetization      -0.0392588

 Broyden mixing:
  rms(total) = 0.23533E-01    rms(broyden)= 0.23527E-01
  rms(prec ) = 0.23543E-01
  weight for this iteration     100.00

 eigenvalues of (default mixing * dielectric matrix)
  average eigenvalue GAMMA=   0.3429
  0.6441  0.1285  0.2559

 Free energy of the ion-electron system (eV)
  ---------------------------------------------------
  alpha Z        PSCENC =       100.65948351
  Ewald energy   TEWEN  =    126156.69463714
  -Hartree energ DENC   =   -141679.40047722
  -exchange      EXHF   =         0.00000000
  -V(xc)+E(xc)   XCENC  =      1696.53823808
  PAW double counting   =     42063.81352870   -42243.79300705
  entropy T*S    EENTRO =        -0.02943366
  eigenvalues    EBANDS =     -5333.90905494
  atomic energy  EATOM  =     18156.06983909
  Solvation  Ediel_sol  =       290.94931554
  ---------------------------------------------------
  free energy    TOTEN  =      -792.40693081 eV

  energy without entropy =     -792.37749715  energy(sigma->0) =     -792.39221398


--------------------------------------------------------------------------------------------------------




--------------------------------------- Iteration      1(   5)  ---------------------------------------


    POTLOK:  cpu time   27.4420: real time   27.5079
    SETDIJ:  cpu time    0.4389: real time    0.4398
    EDDIAG:  cpu time   34.6649: real time   34.7097
  RMM-DIIS:  cpu time  175.5636: real time  175.8937
    ORTHCH:  cpu time    0.8390: real time    0.8409
       DOS:  cpu time    0.0030: real time    0.0031
    CHARGE:  cpu time   29.7197: real time   29.7764
    MIXING:  cpu time    0.0169: real time    0.0170
    --------------------------------------------
      LOOP:  cpu time  268.6880: real time  269.1886

 eigenvalue-minimisations  :  4508
 total energy-change (2. order) :-0.3140119E-03  (-0.4946521E-04)
 number of electron     364.9999985 magnetization       0.0030458
 augmentation part       18.7051860 magnetization      -0.0207534

 Broyden mixing:
  rms(total) = 0.23505E-01    rms(broyden)= 0.23483E-01
  rms(prec ) = 0.24320E-01
  weight for this iteration     100.00

 eigenvalues of (default mixing * dielectric matrix)
  average eigenvalue GAMMA=   0.7555
  2.1707  0.4369  0.1299  0.2844

 Free energy of the ion-electron system (eV)
  ---------------------------------------------------
  alpha Z        PSCENC =       100.65948351
  Ewald energy   TEWEN  =    126156.69463714
  -Hartree energ DENC   =   -141679.32445522
  -exchange      EXHF   =         0.00000000
  -V(xc)+E(xc)   XCENC  =      1696.53651943
  PAW double counting   =     42070.99496884   -42250.96891772
  entropy T*S    EENTRO =        -0.02907045
  eigenvalues    EBANDS =     -5333.96538419
  atomic energy  EATOM  =     18156.06983909
  Solvation  Ediel_sol  =       290.92513476
  ---------------------------------------------------
  free energy    TOTEN  =      -792.40724482 eV

  energy without entropy =     -792.37817437  energy(sigma->0) =     -792.39270959


--------------------------------------------------------------------------------------------------------




--------------------------------------- Iteration      1(   6)  ---------------------------------------


    POTLOK:  cpu time   28.1811: real time   28.2455
    SETDIJ:  cpu time    0.4402: real time    0.4414
    EDDIAG:  cpu time   34.5620: real time   34.6112
  RMM-DIIS:  cpu time  195.9969: real time  196.3687
    ORTHCH:  cpu time    0.8406: real time    0.8424
       DOS:  cpu time    0.0029: real time    0.0029
    CHARGE:  cpu time   29.8778: real time   29.9343
    MIXING:  cpu time    0.0188: real time    0.0196
    --------------------------------------------
      LOOP:  cpu time  289.9204: real time  290.4659

 eigenvalue-minimisations  :  5330
 total energy-change (2. order) : 0.1829071E-04  (-0.7054681E-04)
 number of electron     364.9999985 magnetization       0.0029347
 augmentation part       18.7061734 magnetization       0.0249782

 Broyden mixing:
  rms(total) = 0.27725E-01    rms(broyden)= 0.27686E-01
  rms(prec ) = 0.28944E-01
  weight for this iteration     100.00

 eigenvalues of (default mixing * dielectric matrix)
  average eigenvalue GAMMA=   0.7768
  2.4229  0.5261  0.5261  0.2797  0.1293

 Free energy of the ion-electron system (eV)
  ---------------------------------------------------
  alpha Z        PSCENC =       100.65948351
  Ewald energy   TEWEN  =    126156.69463714
  -Hartree energ DENC   =   -141679.06154323
  -exchange      EXHF   =         0.00000000
  -V(xc)+E(xc)   XCENC  =      1696.53724093
  PAW double counting   =     42093.17285276   -42273.13316977
  entropy T*S    EENTRO =        -0.02889369
  eigenvalues    EBANDS =     -5334.21610351
  atomic energy  EATOM  =     18156.06983909
  Solvation  Ediel_sol  =       290.89843024
  ---------------------------------------------------
  free energy    TOTEN  =      -792.40722653 eV

  energy without entropy =     -792.37833283  energy(sigma->0) =     -792.39277968


--------------------------------------------------------------------------------------------------------




--------------------------------------- Iteration      1(   7)  ---------------------------------------


    POTLOK:  cpu time   27.5219: real time   27.5866
    SETDIJ:  cpu time    0.4405: real time    0.4417
    EDDIAG:  cpu time   34.5656: real time   34.6114
  RMM-DIIS:  cpu time  174.4750: real time  174.8057
    ORTHCH:  cpu time    0.8433: real time    0.8451
       DOS:  cpu time    0.0027: real time    0.0027
    CHARGE:  cpu time   29.7901: real time   29.8458
    MIXING:  cpu time    0.0183: real time    0.0183
    --------------------------------------------
      LOOP:  cpu time  267.6573: real time  268.1573

 eigenvalue-minimisations  :  4452
 total energy-change (2. order) : 0.2996613E-03  (-0.1242948E-03)
 number of electron     364.9999985 magnetization       0.0030277
 augmentation part       18.7050719 magnetization       0.0223686

 Broyden mixing:
  rms(total) = 0.21953E-01    rms(broyden)= 0.21951E-01
  rms(prec ) = 0.22844E-01
  weight for this iteration     100.00

 eigenvalues of (default mixing * dielectric matrix)
  average eigenvalue GAMMA=   0.7372
  2.4514  0.2784  0.5783  0.5783  0.1294  0.4077

 Free energy of the ion-electron system (eV)
  ---------------------------------------------------
  alpha Z        PSCENC =       100.65948351
  Ewald energy   TEWEN  =    126156.69463714
  -Hartree energ DENC   =   -141679.01126420
  -exchange      EXHF   =         0.00000000
  -V(xc)+E(xc)   XCENC  =      1696.53686542
  PAW double counting   =     42095.08720065   -42275.04764704
  entropy T*S    EENTRO =        -0.02908753
  eigenvalues    EBANDS =     -5334.28322633
  atomic energy  EATOM  =     18156.06983909
  Solvation  Ediel_sol  =       290.91627241
  ---------------------------------------------------
  free energy    TOTEN  =      -792.40692687 eV

  energy without entropy =     -792.37783934  energy(sigma->0) =     -792.39238310


--------------------------------------------------------------------------------------------------------




--------------------------------------- Iteration      1(   8)  ---------------------------------------


    POTLOK:  cpu time   27.0598: real time   27.1217
    SETDIJ:  cpu time    0.4397: real time    0.4409
    EDDIAG:  cpu time   34.5393: real time   34.5905
  RMM-DIIS:  cpu time  170.4542: real time  170.7766
    ORTHCH:  cpu time    0.8454: real time    0.8473
       DOS:  cpu time    0.0031: real time    0.0031
    CHARGE:  cpu time   29.9262: real time   29.9833
    MIXING:  cpu time    0.0183: real time    0.0184
    --------------------------------------------
      LOOP:  cpu time  263.2859: real time  263.7817

 eigenvalue-minimisations  :  4267
 total energy-change (2. order) : 0.1016883E-03  (-0.2094987E-04)
 number of electron     364.9999985 magnetization       0.0029515
 augmentation part       18.7040436 magnetization       0.0096989

 Broyden mixing:
  rms(total) = 0.13819E-01    rms(broyden)= 0.13813E-01
  rms(prec ) = 0.14470E-01
  weight for this iteration     100.00

 eigenvalues of (default mixing * dielectric matrix)
  average eigenvalue GAMMA=   0.8479
  2.4822  0.9260  0.9260  0.2780  0.1294  0.6486  0.5449

 Free energy of the ion-electron system (eV)
  ---------------------------------------------------
  alpha Z        PSCENC =       100.65948351
  Ewald energy   TEWEN  =    126156.69463714
  -Hartree energ DENC   =   -141678.98813394
  -exchange      EXHF   =         0.00000000
  -V(xc)+E(xc)   XCENC  =      1696.53151223
  PAW double counting   =     42095.36510088   -42275.32651186
  entropy T*S    EENTRO =        -0.02926506
  eigenvalues    EBANDS =     -5334.31791714
  atomic energy  EATOM  =     18156.06983909
  Solvation  Ediel_sol  =       290.93442997
  ---------------------------------------------------
  free energy    TOTEN  =      -792.40682518 eV

  energy without entropy =     -792.37756012  energy(sigma->0) =     -792.39219265


--------------------------------------------------------------------------------------------------------




--------------------------------------- Iteration      1(   9)  ---------------------------------------


    POTLOK:  cpu time   27.5533: real time   27.6171
    SETDIJ:  cpu time    0.4401: real time    0.4413
    EDDIAG:  cpu time   34.5529: real time   34.6011
  RMM-DIIS:  cpu time  171.3615: real time  171.6838
    ORTHCH:  cpu time    0.8465: real time    0.8484
       DOS:  cpu time    0.0032: real time    0.0032
    CHARGE:  cpu time   29.7445: real time   29.8017
    MIXING:  cpu time    0.0191: real time    0.0192
    --------------------------------------------
      LOOP:  cpu time  264.5210: real time  265.0157

 eigenvalue-minimisations  :  4308
 total energy-change (2. order) :-0.7954439E-04  (-0.2028252E-04)
 number of electron     364.9999985 magnetization       0.0028131
 augmentation part       18.7021986 magnetization       0.0024636

 Broyden mixing:
  rms(total) = 0.23714E-02    rms(broyden)= 0.23012E-02
  rms(prec ) = 0.23785E-02
  weight for this iteration     100.00

 eigenvalues of (default mixing * dielectric matrix)
  average eigenvalue GAMMA=   0.8626
  2.5353  0.2780  0.1294  0.9887  0.9887  0.7395  0.7395  0.5021

 Free energy of the ion-electron system (eV)
  ---------------------------------------------------
  alpha Z        PSCENC =       100.65948351
  Ewald energy   TEWEN  =    126156.69463714
  -Hartree energ DENC   =   -141678.94628041
  -exchange      EXHF   =         0.00000000
  -V(xc)+E(xc)   XCENC  =      1696.52556692
  PAW double counting   =     42095.65736707   -42275.62031294
  entropy T*S    EENTRO =        -0.02952229
  eigenvalues    EBANDS =     -5334.37277295
  atomic energy  EATOM  =     18156.06983909
  Solvation  Ediel_sol  =       290.95509013
  ---------------------------------------------------
  free energy    TOTEN  =      -792.40690472 eV

  energy without entropy =     -792.37738243  energy(sigma->0) =     -792.39214358


--------------------------------------------------------------------------------------------------------




--------------------------------------- Iteration      1(  10)  ---------------------------------------


    POTLOK:  cpu time   27.0906: real time   27.1537
    SETDIJ:  cpu time    0.4393: real time    0.4402
    EDDIAG:  cpu time   34.5884: real time   34.6335
  RMM-DIIS:  cpu time  168.3974: real time  168.7349
    ORTHCH:  cpu time    0.8435: real time    0.8454
       DOS:  cpu time    0.0029: real time    0.0029
    CHARGE:  cpu time   29.7729: real time   29.8318
    MIXING:  cpu time    0.0197: real time    0.0197
    --------------------------------------------
      LOOP:  cpu time  261.1547: real time  261.6622

 eigenvalue-minimisations  :  4222
 total energy-change (2. order) :-0.2219891E-03  (-0.1789712E-04)
 number of electron     364.9999985 magnetization       0.0027097
 augmentation part       18.7019283 magnetization       0.0044630

 Broyden mixing:
  rms(total) = 0.10542E-02    rms(broyden)= 0.10421E-02
  rms(prec ) = 0.10531E-02
  weight for this iteration     100.00

 eigenvalues of (default mixing * dielectric matrix)
  average eigenvalue GAMMA=   0.8423
  2.5382  0.2780  1.0159  1.0159  0.7653  0.7653  0.1294  0.5363  0.5363

 Free energy of the ion-electron system (eV)
  ---------------------------------------------------
  alpha Z        PSCENC =       100.65948351
  Ewald energy   TEWEN  =    126156.69463714
  -Hartree energ DENC   =   -141678.94208263
  -exchange      EXHF   =         0.00000000
  -V(xc)+E(xc)   XCENC  =      1696.51903356
  PAW double counting   =     42095.74005253   -42275.70334626
  entropy T*S    EENTRO =        -0.02954551
  eigenvalues    EBANDS =     -5334.37541442
  atomic energy  EATOM  =     18156.06983909
  Solvation  Ediel_sol  =       290.96021628
  ---------------------------------------------------
  free energy    TOTEN  =      -792.40712671 eV

  energy without entropy =     -792.37758120  energy(sigma->0) =     -792.39235395


--------------------------------------------------------------------------------------------------------




--------------------------------------- Iteration      1(  11)  ---------------------------------------


    POTLOK:  cpu time   26.0231: real time   26.0854
    SETDIJ:  cpu time    0.4398: real time    0.4410
    EDDIAG:  cpu time   34.5953: real time   34.6444
  RMM-DIIS:  cpu time  160.6028: real time  160.9121
    ORTHCH:  cpu time    0.8508: real time    0.8527
       DOS:  cpu time    0.0030: real time    0.0029
    CHARGE:  cpu time   29.8383: real time   29.8977
    MIXING:  cpu time    0.0253: real time    0.0253
    --------------------------------------------
      LOOP:  cpu time  252.3782: real time  252.8615

 eigenvalue-minimisations  :  3921
 total energy-change (2. order) :-0.5112573E-04  (-0.3176031E-05)
 number of electron     364.9999985 magnetization       0.0025222
 augmentation part       18.7018543 magnetization       0.0045190

 Broyden mixing:
  rms(total) = 0.11105E-02    rms(broyden)= 0.11094E-02
  rms(prec ) = 0.11112E-02
  weight for this iteration     100.00

 eigenvalues of (default mixing * dielectric matrix)
  average eigenvalue GAMMA=   0.9807
  2.5352  1.6624  1.6624  0.2780  0.1294  0.8161  0.8161  0.7754  0.5044  0.6272

 Free energy of the ion-electron system (eV)
  ---------------------------------------------------
  alpha Z        PSCENC =       100.65948351
  Ewald energy   TEWEN  =    126156.69463714
  -Hartree energ DENC   =   -141678.94637052
  -exchange      EXHF   =         0.00000000
  -V(xc)+E(xc)   XCENC  =      1696.51813072
  PAW double counting   =     42095.67529655   -42275.63870764
  entropy T*S    EENTRO =        -0.02955092
  eigenvalues    EBANDS =     -5334.37272047
  atomic energy  EATOM  =     18156.06983909
  Solvation  Ediel_sol  =       290.96278470
  ---------------------------------------------------
  free energy    TOTEN  =      -792.40717784 eV

  energy without entropy =     -792.37762691  energy(sigma->0) =     -792.39240237


--------------------------------------------------------------------------------------------------------




--------------------------------------- Iteration      1(  12)  ---------------------------------------


    POTLOK:  cpu time   25.7744: real time   25.8624
    SETDIJ:  cpu time    0.4400: real time    0.4413
    EDDIAG:  cpu time   34.5582: real time   34.6159
  RMM-DIIS:  cpu time  154.8290: real time  155.1462
    ORTHCH:  cpu time    0.8431: real time    0.8451
       DOS:  cpu time    0.0029: real time    0.0029
    CHARGE:  cpu time   29.9078: real time   29.9679
    MIXING:  cpu time    0.0224: real time    0.0224
    --------------------------------------------
      LOOP:  cpu time  246.3777: real time  246.9041

 eigenvalue-minimisations  :  3709
 total energy-change (2. order) :-0.1385239E-04  (-0.1799137E-05)
 number of electron     364.9999985 magnetization       0.0024329
 augmentation part       18.7017440 magnetization       0.0005595

 Broyden mixing:
  rms(total) = 0.94666E-03    rms(broyden)= 0.93873E-03
  rms(prec ) = 0.95919E-03
  weight for this iteration     100.00

 eigenvalues of (default mixing * dielectric matrix)
  average eigenvalue GAMMA=   0.9639
  2.5539  1.4857  1.4857  0.2780  0.1294  0.8467  0.8467  1.1007  0.5008  0.6877
  0.6877

 Free energy of the ion-electron system (eV)
  ---------------------------------------------------
  alpha Z        PSCENC =       100.65948351
  Ewald energy   TEWEN  =    126156.69463714
  -Hartree energ DENC   =   -141678.95415596
  -exchange      EXHF   =         0.00000000
  -V(xc)+E(xc)   XCENC  =      1696.51825699
  PAW double counting   =     42095.51937497   -42275.48291796
  entropy T*S    EENTRO =        -0.02956268
  eigenvalues    EBANDS =     -5334.36860491
  atomic energy  EATOM  =     18156.06983909
  Solvation  Ediel_sol  =       290.96645814
  ---------------------------------------------------
  free energy    TOTEN  =      -792.40719169 eV

  energy without entropy =     -792.37762901  energy(sigma->0) =     -792.39241035


--------------------------------------------------------------------------------------------------------




--------------------------------------- Iteration      1(  13)  ---------------------------------------


    POTLOK:  cpu time   24.9575: real time   25.0160
    SETDIJ:  cpu time    0.4412: real time    0.4423
    EDDIAG:  cpu time   34.6598: real time   34.7103
  RMM-DIIS:  cpu time  155.0691: real time  155.3677
    ORTHCH:  cpu time    0.8420: real time    0.8439
       DOS:  cpu time    0.0029: real time    0.0029
    --------------------------------------------
      LOOP:  cpu time  215.9724: real time  216.3830

 eigenvalue-minimisations  :  3716
 total energy-change (2. order) : 0.3418674E-05  (-0.1695109E-05)
 number of electron     364.9999985 magnetization       0.0024329
 augmentation part       18.7017440 magnetization       0.0005595

 Free energy of the ion-electron system (eV)
  ---------------------------------------------------
  alpha Z        PSCENC =       100.65948351
  Ewald energy   TEWEN  =    126156.69463714
  -Hartree energ DENC   =   -141678.94823845
  -exchange      EXHF   =         0.00000000
  -V(xc)+E(xc)   XCENC  =      1696.51769079
  PAW double counting   =     42095.55107714   -42275.51456723
  entropy T*S    EENTRO =        -0.02954588
  eigenvalues    EBANDS =     -5334.37228080
  atomic energy  EATOM  =     18156.06983909
  Solvation  Ediel_sol  =       290.96471643
  ---------------------------------------------------
  free energy    TOTEN  =      -792.40718827 eV

  energy without entropy =     -792.37764239  energy(sigma->0) =     -792.39241533


--------------------------------------------------------------------------------------------------------




 average (electrostatic) potential at core
  the test charge radii are     0.7672  0.7089  0.6991  0.7167  0.7215
  (the norm of the test charge is              1.0000)
       1 -38.8311       2 -38.8319       3 -38.8341       4 -38.8340       5 -38.8325
       6 -38.8315       7 -38.8270       8 -38.8214       9 -38.8218      10 -38.8339
      11 -38.8355      12 -38.8318      13 -38.8281      14 -38.8098      15 -38.8072
      16 -38.8190      17 -38.8363      18 -38.8351      19 -38.8323      20 -38.8161
      21 -38.7986      22 -38.8148      23 -38.8305      24 -38.8367      25 -38.8351
      26 -38.8293      27 -38.8154      28 -38.8136      29 -38.8289      30 -38.8361
      31 -38.8346      32 -38.8341      33 -38.8323      34 -38.8293      35 -38.8300
      36 -38.8335      37 -76.4191      38 -76.4191      39 -76.4153      40 -76.4223
      41 -76.4183      42 -76.4145      43 -76.4146      44 -76.4123      45 -76.4226
      46 -76.4222      47 -76.4173      48 -76.4181      49 -76.4052      50 -76.3997
      51 -76.3909      52 -76.4194      53 -76.4236      54 -76.4205      55 -76.4164
      56 -76.3926      57 -76.3910      58 -76.4060      59 -76.4271      60 -76.4166
      61 -76.4194      62 -76.4065      63 -76.3926      64 -76.4133      65 -76.4186
      66 -76.4212      67 -76.4170      68 -76.4198      69 -76.4176      70 -76.4080
      71 -76.4202      72 -76.4212      73 -67.6965      74 -66.2563      75 -65.4791
      76 -63.6762      77 -92.1196      78 -92.1269      79 -92.0576      80 -91.8934
      81 -91.8807      82 -91.3390      83 -91.3471      84 -83.7640      85 -83.7680
 
 
 
[...]
   -.348E+01 -.356E+01 0.796E+02   0.349E+01 0.366E+01 -.786E+02   0.984E-02 0.589E-03 -.147E+00   -.505E-04 -.802E-04 0.199E-03
   0.524E+01 0.112E+02 0.859E+02   -.533E+01 -.107E+02 -.848E+02   0.153E-01 -.691E-02 -.459E-01   0.203E-04 -.333E-03 -.763E-04
   -.142E+02 0.324E+02 0.103E+03   0.137E+02 -.316E+02 -.101E+03   0.450E-01 -.249E-01 -.122E+00   0.319E-03 -.439E-03 -.458E-03
   -.468E+02 0.339E+02 0.119E+03   0.459E+02 -.336E+02 -.117E+03   0.642E-01 -.297E-01 -.922E-01   0.538E-03 -.945E-04 -.496E-03
   -.555E+02 0.141E+02 0.112E+03   0.548E+02 -.142E+02 -.111E+03   0.276E-01 -.981E-03 -.533E-01   0.290E-03 0.176E-03 -.193E-03
   -.322E+02 -.320E+01 0.909E+02   0.320E+02 0.305E+01 -.899E+02   0.412E-02 -.371E-02 -.130E+00   0.349E-04 0.112E-03 0.110E-03
   -.128E+02 -.117E+03 -.417E+03   0.120E+02 0.107E+03 0.414E+03   0.694E+00 0.857E+01 0.420E+01   0.130E-03 0.891E-03 -.233E-03
   -.334E+01 -.860E+01 -.375E+03   0.232E+01 0.639E+01 0.387E+03   0.842E+00 0.801E+00 -.107E+02   0.334E-03 0.214E-02 -.487E-03
   0.185E+02 0.131E+03 -.412E+03   -.193E+02 -.137E+03 0.401E+03   0.609E+00 0.510E+01 0.113E+02   0.467E-03 0.292E-02 0.141E-02
   0.243E+02 0.166E+03 -.385E+03   -.244E+02 -.167E+03 0.387E+03   -.135E+00 -.102E+01 -.116E+01   0.776E-03 0.347E-02 0.192E-02
   0.466E+03 -.366E+03 -.101E+04   -.516E+03 0.378E+03 0.104E+04   0.492E+02 -.137E+02 -.292E+02   0.626E-04 0.995E-03 -.319E-03
   -.474E+03 -.248E+03 -.109E+04   0.520E+03 0.248E+03 0.113E+04   -.451E+02 -.199E+01 -.375E+02   0.192E-03 0.974E-03 -.272E-03
   -.101E+03 -.581E+03 -.373E+03   0.110E+03 0.621E+03 0.334E+03   -.847E+01 -.409E+02 0.397E+02   0.143E-03 0.869E-03 -.933E-03
   0.446E+03 -.707E+02 -.236E+03   -.489E+03 0.711E+02 0.202E+03   0.425E+02 -.301E+01 0.363E+02   -.245E-03 0.337E-02 -.207E-02
   -.516E+03 0.418E+02 -.302E+03   0.563E+03 -.519E+02 0.274E+03   -.468E+02 0.732E+01 0.301E+02   0.132E-02 0.306E-02 -.187E-02
   -.425E+03 0.224E+03 -.112E+04   0.468E+03 -.232E+03 0.116E+04   -.421E+02 0.540E+01 -.323E+02   0.136E-02 0.282E-02 0.298E-02
   0.480E+03 0.910E+02 -.111E+04   -.524E+03 -.854E+02 0.114E+04   0.428E+02 -.758E+01 -.310E+02   -.543E-03 0.326E-02 0.313E-02
   0.406E+03 0.312E+03 -.475E+03   -.456E+03 -.326E+03 0.466E+03   0.481E+02 0.124E+02 0.111E+02   -.328E-02 0.555E-03 -.550E-03
   -.304E+03 0.407E+03 -.461E+03   0.349E+03 -.433E+03 0.450E+03   -.430E+02 0.240E+02 0.130E+02   0.336E-02 -.263E-03 -.769E-03
 -----------------------------------------------------------------------------------------------
   0.110E+01 0.445E+01 -.303E+01   0.455E-12 0.171E-12 0.108E-11   -.709E+00 -.472E+01 0.296E+01   0.404E-02 0.250E-01 -.168E-01
 
 
 POSITION                                       TOTAL-FORCE (eV/Angst)
 -----------------------------------------------------------------------------------
      1.25413     -0.72400     17.56355        -0.004680      0.000075      0.003619
      2.51028      1.45145     17.54861        -0.001523      0.004873     -0.003437
      3.76651      3.62695     17.55181        -0.008674      0.005495     -0.007508
      5.02248      5.80238     17.57144        -0.003507      0.003932     -0.003611
      6.27881      7.97821     17.57962        -0.001648      0.004370      0.003738
      7.53478     10.15405     17.57490        -0.001080      0.002552      0.010734
      2.51122     -2.89915     17.56348        -0.009777      0.001812      0.004027
      3.76694     -0.72384     17.52265        -0.013638      0.005338      0.002577
      5.02267      1.45124     17.48718        -0.010310      0.007316      0.018505
      6.27866      3.62686     17.52718        -0.003705      0.007041      0.001718
      7.53470      5.80286     17.56752         0.001802     -0.000177      0.008741
      8.79117      7.97876     17.58111        -0.002256     -0.000005      0.002629
      3.76710     -5.07361     17.56952        -0.003694     -0.012122     -0.004845
      5.02432     -2.89815     17.52778        -0.015188     -0.012607      0.007884
      6.27850     -0.72347     17.47197        -0.007876      0.005081      0.010126
      7.53365      1.45137     17.46207         0.000340      0.010308     -0.000157
      8.79030      3.62696     17.53409         0.003393      0.006601     -0.002009
     10.04711      5.80325     17.57426        -0.000977     -0.002532      0.002603
      5.02241     -7.24982     17.56983         0.002661     -0.011410     -0.001113
      6.27936     -5.07353     17.53718        -0.008328     -0.017579      0.010476
      7.53511     -2.89864     17.50997        -0.001312     -0.008521      0.018080
      8.78991     -0.72398     17.48491         0.006850      0.006613      0.013031
     10.04534      1.45119     17.51150         0.012817      0.007125      0.001257
     11.30248      3.62740     17.56143         0.005877      0.002891      0.003591
      6.27811     -9.42621     17.57287         0.001732     -0.003762      0.002286
      7.53464     -7.24999     17.55806        -0.004168     -0.010001      0.009934
      8.79065     -5.07432     17.53585         0.002379     -0.008401      0.008137
     10.04563     -2.89970     17.52813         0.009904     -0.004801      0.009621
     11.30175     -0.72444     17.53638         0.014285      0.005580     -0.001401
     12.55786      1.45119     17.56146         0.007881      0.008935      0.000491
      7.53412    -11.60220     17.57269        -0.000218      0.002234      0.002121
      8.79027     -9.42651     17.56929         0.005387     -0.001064      0.001183
     10.04674     -7.25080     17.56799         0.003434     -0.006637     -0.004558
     11.30268     -5.07511     17.56658         0.005848     -0.001913     -0.003412
     12.55835     -2.90015     17.56349         0.007435      0.005067      0.006718
     13.81445     -0.72443     17.56766         0.008850      0.004207      0.002884
      1.25379      0.72651     17.56457         0.005477     -0.002050     -0.005609
      2.50997      2.90205     17.55866         0.006128     -0.001542     -0.003477
      3.76637      5.07737     17.57093        -0.000642     -0.000120     -0.019640
      5.02244      7.25302     17.57932        -0.002230      0.003914     -0.016653
      6.27851      9.42868     17.57626        -0.001974      0.002340     -0.007484
      7.53437     11.60449     17.57184         0.001193     -0.000051     -0.009550
      2.51038     -1.44868     17.55237         0.005729     -0.005069     -0.005186
      3.76613      0.72674     17.51747         0.006140     -0.003323     -0.004872
      5.02248      2.90188     17.51986         0.000610     -0.001236     -0.001682
      6.27861      5.07728     17.55925         0.003460     -0.000782     -0.002014
      7.53501      7.25325     17.58116        -0.002872     -0.002064     -0.011098
      8.79120      9.42919     17.57715         0.000789     -0.000197     -0.006911
      3.76739     -3.62340     17.55805         0.004548     -0.007501     -0.005451
      5.02242     -1.44814     17.50166         0.009245     -0.004855     -0.009595
      6.27733      0.72713     17.43818         0.007754     -0.007050      0.007411
      7.53444      2.90178     17.50496        -0.002083     -0.004310     -0.014393
      8.79077      5.07759     17.56166         0.000291     -0.003921      0.003479
     10.04745      7.25396     17.58202         0.000519     -0.002303     -0.018661
      5.02296     -5.79930     17.56196         0.002075     -0.002423     -0.011526
      6.27923     -3.62419     17.51307         0.002778      0.004362      0.010281
      7.53434     -1.44795     17.48693         0.004136     -0.006729     -0.013757
      8.78983      0.72712     17.46466        -0.000543     -0.009528      0.002045
     10.04637      2.90190     17.53571        -0.005050     -0.003620      0.008144
     11.30290      5.07801     17.57480         0.000371     -0.003230     -0.018578
      6.27832     -7.97552     17.56741         0.002324     -0.003275     -0.001942
      7.53485     -5.80018     17.53802        -0.002413      0.008650      0.024287
      8.79096     -3.62503     17.51080        -0.009887      0.011369      0.005152
     10.04634     -1.44909     17.51357        -0.014943      0.001312     -0.000682
     11.30163      0.72620     17.53826         0.000189      0.001399      0.003757
     12.55835      2.90201     17.56872         0.003952     -0.002888     -0.012063
      7.53409    -10.15171     17.57612         0.002858      0.001582     -0.017350
      8.79047     -7.97593     17.56652         0.004996     -0.000552     -0.005280
     10.04662     -5.80041     17.56022         0.000369      0.003067     -0.011547
     11.30241     -3.62490     17.55545        -0.003120      0.003128     -0.002700
     12.55817     -1.44950     17.55750         0.003513      0.000330     -0.000176
     13.81429      0.72617     17.57139         0.000431      0.000540     -0.011962
      7.86870      1.76427     21.85623        -0.002121      0.019307      0.004437
      7.76237      0.39046     21.16199        -0.004907      0.006574      0.015067
      7.55579     -0.84925     22.04509        -0.002420      0.017629      0.007633
      7.36807     -2.15946     21.21604        -0.031685      0.009427     -0.015244
      6.74487      2.06591     22.51837        -0.004059      0.002022     -0.001757
      8.89939      1.79624     22.71094        -0.012714      0.005851     -0.002337
      8.06764      2.70713     20.91612         0.010663      0.000872      0.008945
      6.71859      0.47983     20.29371         0.017335     -0.009802      0.015154
      8.90664      0.22790     20.44731        -0.006393     -0.015982      0.001831
      8.63926     -0.94589     22.87434         0.016316     -0.009032      0.018993
      6.46886     -0.61115     22.83983        -0.032509     -0.001602      0.002972
      6.18826     -2.45907     20.95230         0.027811      0.007052      0.003304
      8.42459     -2.74207     20.90712        -0.007752     -0.001606     -0.008369
 -----------------------------------------------------------------------------------
    total drift:                                0.394027     -0.250901     -0.088133


--------------------------------------------------------------------------------------------------------



  FREE ENERGIE OF THE ION-ELECTRON SYSTEM (eV)
  ---------------------------------------------------
  free  energy   TOTEN  =      -792.40718827 eV

  energy  without entropy=     -792.37764239  energy(sigma->0) =     -792.39241533
 


--------------------------------------------------------------------------------------------------------


    POTLOK:  cpu time   25.4051: real time   25.4612


--------------------------------------------------------------------------------------------------------




--------------------------------------------------------------------------------------------------------


  
 reached required accuracy - stopping structural energy minimisation
 writing wavefunctions
     LOOP+:  cpu time 4058.6945: real time 4109.0177
    4ORBIT:  cpu time    0.0000: real time    0.0000
 


 total charge     
 
# of ion       s       p       d       tot
------------------------------------------
    1        0.744   1.392   0.000   2.136
    2        0.744   1.392   0.000   2.135
    3        0.743   1.392   0.000   2.135
    4        0.744   1.392   0.000   2.136
    5        0.744   1.392   0.000   2.136
    6        0.744   1.392   0.000   2.135
    7        0.744   1.392   0.000   2.136
    8        0.744   1.392   0.000   2.136
    9        0.744   1.393   0.000   2.136
   10        0.744   1.392   0.000   2.136
   11        0.744   1.392   0.000   2.136
   12        0.744   1.392   0.000   2.136
   13        0.743   1.392   0.000   2.135
   14        0.743   1.391   0.000   2.134
   15        0.743   1.392   0.000   2.135
   16        0.744   1.393   0.000   2.137
   17        0.744   1.392   0.000   2.136
   18        0.743   1.392   0.000   2.135
   19        0.743   1.392   0.000   2.135
   20        0.744   1.392   0.000   2.136
   21        0.743   1.389   0.000   2.132
   22        0.744   1.392   0.000   2.135
   23        0.743   1.392   0.000   2.136
   24        0.743   1.392   0.000   2.135
   25        0.743   1.392   0.000   2.135
   26        0.744   1.392   0.000   2.136
   27        0.744   1.393   0.000   2.136
   28        0.743   1.392   0.000   2.135
   29        0.744   1.392   0.000   2.136
   30        0.743   1.391   0.000   2.135
   31        0.743   1.392   0.000   2.135
   32        0.744   1.392   0.000   2.135
   33        0.744   1.392   0.000   2.135
   34        0.744   1.392   0.000   2.136
   35        0.744   1.392   0.000   2.136
   36        0.744   1.392   0.000   2.135
   37        1.239   2.817   0.000   4.056
   38        1.239   2.817   0.000   4.056
   39        1.239   2.818   0.000   4.056
   40        1.239   2.817   0.000   4.056
   41        1.239   2.817   0.000   4.056
   42        1.239   2.817   0.000   4.056
   43        1.239   2.817   0.000   4.056
   44        1.239   2.817   0.000   4.056
   45        1.239   2.817   0.000   4.056
   46        1.239   2.817   0.000   4.056
   47        1.239   2.818   0.000   4.056
   48        1.239   2.817   0.000   4.056
   49        1.239   2.817   0.000   4.056
   50        1.239   2.817   0.000   4.056
   51        1.239   2.818   0.000   4.057
   52        1.239   2.817   0.000   4.056
   53        1.239   2.817   0.000   4.056
   54        1.239   2.817   0.000   4.056
   55        1.239   2.817   0.000   4.056
   56        1.239   2.817   0.000   4.056
   57        1.239   2.817   0.000   4.056
   58        1.239   2.817   0.000   4.056
   59        1.239   2.817   0.000   4.056
   60        1.239   2.817   0.000   4.056
   61        1.239   2.817   0.000   4.056
   62        1.239   2.818   0.000   4.057
   63        1.239   2.817   0.000   4.056
   64        1.239   2.816   0.000   4.056
   65        1.239   2.817   0.000   4.056
   66        1.239   2.817   0.000   4.056
   67        1.239   2.818   0.000   4.056
   68        1.239   2.817   0.000   4.056
   69        1.239   2.817   0.000   4.056
   70        1.239   2.817   0.000   4.056
   71        1.239   2.817   0.000   4.056
   72        1.239   2.817   0.000   4.056
   73        0.817   1.562   0.000   2.379
   74        0.836   1.604   0.000   2.440
   75        0.837   1.585   0.000   2.421
   76        0.875   1.721   0.000   2.597
   77        1.758   4.414   0.000   6.172
   78        1.758   4.413   0.000   6.171
   79        1.758   4.409   0.000   6.167
   80        1.758   4.399   0.000   6.157
   81        1.757   4.400   0.000   6.157
   82        1.755   4.404   0.000   6.159
   83        1.755   4.404   0.000   6.159
   84        1.589   3.572   0.000   5.162
   85        1.590   3.572   0.000   5.162
--------------------------------------------------
tot         90.214 195.982   0.000 286.196
 


 magnetization (x)
 
# of ion       s       p       d       tot
------------------------------------------
    1        0.000   0.000   0.000   0.000
    2        0.000   0.000   0.000   0.000
    3        0.000   0.000   0.000   0.000
    4        0.000   0.000   0.000   0.000
    5        0.000   0.000   0.000   0.000
    6        0.000   0.000   0.000   0.000
    7        0.000   0.000   0.000   0.000
    8        0.000   0.000   0.000   0.000
    9        0.000   0.000   0.000   0.000
   10        0.000   0.000   0.000   0.000
   11        0.000   0.000   0.000   0.000
   12        0.000   0.000   0.000   0.000
   13        0.000   0.000   0.000   0.000
   14        0.000   0.000   0.000   0.000
   15        0.000   0.000   0.000   0.000
   16        0.000   0.000   0.000   0.000
   17        0.000   0.000   0.000   0.000
   18        0.000   0.000   0.000   0.000
   19        0.000   0.000   0.000   0.000
   20        0.000   0.000   0.000   0.000
   21        0.000   0.000   0.000   0.000
   22        0.000   0.000   0.000   0.000
   23        0.000   0.000   0.000   0.000
   24        0.000   0.000   0.000   0.000
   25        0.000   0.000   0.000   0.000
   26        0.000   0.000   0.000   0.000
   27        0.000   0.000   0.000   0.000
   28        0.000   0.000   0.000   0.000
   29        0.000   0.000   0.000   0.000
   30        0.000   0.000   0.000   0.000
   31        0.000   0.000   0.000   0.000
   32        0.000   0.000   0.000   0.000
   33        0.000   0.000   0.000   0.000
   34        0.000   0.000   0.000   0.000
   35        0.000   0.000   0.000   0.000
   36        0.000   0.000   0.000   0.000
   37       -0.000  -0.000   0.000  -0.000
   38       -0.000  -0.000   0.000  -0.000
   39       -0.000  -0.000   0.000  -0.000
   40       -0.000  -0.000   0.000  -0.000
   41       -0.000  -0.000   0.000  -0.000
   42       -0.000  -0.000   0.000  -0.000
   43       -0.000  -0.000   0.000  -0.000
   44       -0.000  -0.000   0.000  -0.000
   45       -0.000  -0.000   0.000  -0.000
   46       -0.000  -0.000   0.000  -0.000
   47       -0.000  -0.000   0.000  -0.000
   48       -0.000  -0.000   0.000  -0.000
   49       -0.000  -0.000   0.000  -0.000
   50       -0.000  -0.000   0.000  -0.000
   51       -0.000  -0.000   0.000  -0.000
   52       -0.000  -0.000   0.000  -0.000
   53       -0.000  -0.000   0.000  -0.000
   54       -0.000  -0.000   0.000  -0.000
   55       -0.000  -0.000   0.000  -0.000
   56       -0.000  -0.000   0.000  -0.000
   57       -0.000  -0.000   0.000  -0.000
   58       -0.000  -0.000   0.000  -0.000
   59       -0.000  -0.000   0.000  -0.000
   60       -0.000  -0.000   0.000  -0.000
   61       -0.000  -0.000   0.000  -0.000
   62       -0.000  -0.000   0.000  -0.000
   63       -0.000   0.000   0.000   0.000
   64       -0.000  -0.000   0.000  -0.000
   65       -0.000  -0.000   0.000  -0.000
   66       -0.000  -0.000   0.000  -0.000
   67       -0.000  -0.000   0.000  -0.000
   68       -0.000  -0.000   0.000  -0.000
   69       -0.000  -0.000   0.000  -0.000
   70       -0.000  -0.000   0.000  -0.000
   71       -0.000  -0.000   0.000  -0.000
   72       -0.000  -0.000   0.000  -0.000
   73       -0.000  -0.000   0.000  -0.000
   74       -0.000  -0.000   0.000  -0.000
   75        0.000   0.000   0.000   0.000
   76        0.000   0.000   0.000   0.000
   77       -0.000  -0.000   0.000  -0.000
   78       -0.000  -0.000   0.000  -0.000
   79       -0.000  -0.000   0.000  -0.000
   80        0.000   0.000   0.000   0.000
   81        0.000   0.000   0.000   0.000
   82        0.000   0.000   0.000   0.000
   83        0.000   0.000   0.000   0.000
   84        0.000   0.000   0.000   0.000
   85        0.000   0.000   0.000   0.000
--------------------------------------------------
tot          0.000   0.000   0.000   0.000
 

 total amount of memory used by VASP MPI-rank0   219468. kBytes
=======================================================================

   base      :      30000. kBytes
   nonlr-proj:      10846. kBytes
   fftplans  :      17498. kBytes
   grid      :      70152. kBytes
   one-center:         24. kBytes
   wavefun   :      90948. kBytes
 
  
  
 General timing and accounting informations for this job:
 ========================================================
  
                  Total CPU time used (sec):     4294.464
                            User time (sec):     4165.334
                          System time (sec):      129.130
                         Elapsed time (sec):     4357.862
  
                   Maximum memory used (kb):      683804.
                   Average memory used (kb):           0.
  
                          Minor page faults:       987408
                          Major page faults:          139
                 Voluntary context switches:        34747
