 vasp.5.4.4.18Apr17-6-g9f103f2a35 (build May 01 2020 14:57:12) complex          
  
 executed on             LinuxIFC date 2021.01.08  06:36:17
 running on   96 total cores
 distrk:  each k-point on   24 cores,    4 groups
 distr:  one band on NCORES_PER_BAND=   6 cores,    4 groups


--------------------------------------------------------------------------------------------------------


 INCAR:
 POTCAR:    PAW_PBE B 06Sep2000                   
 POTCAR:    PAW_PBE N 08Apr2002                   

 ----------------------------------------------------------------------------- 
|                                                                             |
|           W    W    AA    RRRRR   N    N  II  N    N   GGGG   !!!           |
|           W    W   A  A   R    R  NN   N  II  NN   N  G    G  !!!           |
|           W    W  A    A  R    R  N N  N  II  N N  N  G       !!!           |
|           W WW W  AAAAAA  RRRRR   N  N N  II  N  N N  G  GGG   !            |
|           WW  WW  A    A  R   R   N   NN  II  N   NN  G    G                |
|           W    W  A    A  R    R  N    N  II  N    N   GGGG   !!!           |
|                                                                             |
|      You have enabled k-point parallelism (KPAR>1).                         |
|      This developmental code was originally  written by Paul Kent at ORNL,  |
|      and carefully double checked in Vienna.                                |
|      GW as well as linear response parallelism added by Martijn Marsman     |
|      and Georg Kresse.                                                      |
|      Carefully verify results versus KPAR=1.                                |
|      Report problems to Paul Kent and Vienna.                               |
|                                                                             |
 ----------------------------------------------------------------------------- 

 POTCAR:    PAW_PBE B 06Sep2000                   
   VRHFIN =B: s2p1                                                              
   LEXCH  = PE                                                                  
   EATOM  =    71.1703 eV,    5.2309 Ry                                         
                                                                                
   TITEL  = PAW_PBE B 06Sep2000                                                 
   LULTRA =        F    use ultrasoft PP ?                                      
   IUNSCR =        1    unscreen: 0-lin 1-nonlin 2-no                           
   RPACOR =    1.200    partial core radius                                     
   POMASS =   10.811; ZVAL   =    3.000    mass and valenz                      
   RCORE  =    1.700    outmost cutoff radius                                   
   RWIGS  =    1.710; RWIGS  =    0.905    wigner-seitz radius (au A)           
   ENMAX  =  318.614; ENMIN  =  238.960 eV                                      
   ICORE  =        2    local potential                                         
   LCOR   =        T    correct aug charges                                     
   LPAW   =        T    paw PP                                                  
   EAUG   =  535.514                                                            
   DEXC   =    0.000                                                            
   RMAX   =    1.732    core radius for proj-oper                               
   RAUG   =    1.300    factor for augmentation sphere                          
   RDEP   =    1.757    radius for radial grids                                 
   RDEPT  =    1.436    core radius for aug-charge                              
                                                                                
   Atomic configuration                                                         
    4 entries                                                                   
     n  l   j            E        occ.                                          
     1  0  0.50      -180.5896   2.0000                                         
     2  0  0.50        -9.4431   2.0000                                         
     2  1  0.50        -3.6068   1.0000                                         
     3  2  1.50        -4.0817   0.0000                                         
   Description                                                                  
     l       E           TYP  RCUT    TYP  RCUT                                 
     0     -9.4430752     23  1.500                                             
     0      0.8675899     23  1.500                                             
     1     -3.6067955     23  1.700                                             
     1      6.1086146     23  1.700                                             
     2     -4.0817478      7  1.700                                             
  local pseudopotential read in
  partial core-charges read in
  partial kinetic energy density read in
  atomic valenz-charges read in
  non local Contribution for L=           0  read in
    real space projection operators read in
  non local Contribution for L=           0  read in
    real space projection operators read in
  non local Contribution for L=           1  read in
    real space projection operators read in
  non local Contribution for L=           1  read in
    real space projection operators read in
    PAW grid and wavefunctions read in
 
   number of l-projection  operators is LMAX  =           4
   number of lm-projection operators is LMMAX =           8
 
 POTCAR:    PAW_PBE N 08Apr2002                   
   VRHFIN =N: s2p3                                                              
   LEXCH  = PE                                                                  
   EATOM  =   264.5486 eV,   19.4438 Ry                                         
                                                                                
   TITEL  = PAW_PBE N 08Apr2002                                                 
   LULTRA =        F    use ultrasoft PP ?                                      
   IUNSCR =        1    unscreen: 0-lin 1-nonlin 2-no                           
   RPACOR =    1.200    partial core radius                                     
   POMASS =   14.001; ZVAL   =    5.000    mass and valenz                      
   RCORE  =    1.500    outmost cutoff radius                                   
   RWIGS  =    1.400; RWIGS  =    0.741    wigner-seitz radius (au A)           
   ENMAX  =  400.000; ENMIN  =  300.000 eV                                      
   ICORE  =        2    local potential                                         
   LCOR   =        T    correct aug charges                                     
   LPAW   =        T    paw PP                                                  
   EAUG   =  627.112                                                            
   DEXC   =    0.000                                                            
   RMAX   =    1.529    core radius for proj-oper                               
   RAUG   =    1.300    factor for augmentation sphere                          
   RDEP   =    1.514    radius for radial grids                                 
   RDEPT  =    1.338    core radius for aug-charge                              
                                                                                
   Atomic configuration                                                         
    4 entries                                                                   
     n  l   j            E        occ.                                          
     1  0  0.50      -384.7179   2.0000                                         
     2  0  0.50       -18.5828   2.0000                                         
     2  1  0.50        -7.0898   3.0000                                         
     3  2  1.50        -6.8029   0.0000                                         
   Description                                                                  
     l       E           TYP  RCUT    TYP  RCUT                                 
     0    -18.5828119     23  1.200                                             
     0    -13.5018863     23  1.200                                             
     1     -7.0897853     23  1.500                                             
     1      9.5240782     23  1.500                                             
     2     -6.8029130      7  1.500                                             
  local pseudopotential read in
  partial core-charges read in
  partial kinetic energy density read in
  atomic valenz-charges read in
  non local Contribution for L=           0  read in
    real space projection operators read in
  non local Contribution for L=           0  read in
    real space projection operators read in
  non local Contribution for L=           1  read in
    real space projection operators read in
  non local Contribution for L=           1  read in
    real space projection operators read in
    PAW grid and wavefunctions read in
 
   number of l-projection  operators is LMAX  =           4
   number of lm-projection operators is LMMAX =           8
 
 Optimization of the real space projectors (new method)

 maximal supplied QI-value         = 22.11
 optimisation between [QCUT,QGAM] = [ 11.94, 23.88] = [ 39.92,159.67] Ry 
 Optimized for a Real-space Cutoff    1.18 Angstroem

   l    n(q)    QCUT    max X(q) W(low)/X(q) W(high)/X(q)  e(spline) 
   0      8    11.939    53.033    0.11E-03    0.34E-03    0.60E-07
   0      8    11.939    34.740    0.11E-03    0.34E-03    0.59E-07
   1      8    11.939    30.949    0.22E-03    0.20E-03    0.17E-06
   1      8    11.939    19.518    0.20E-03    0.18E-03    0.16E-06
 Optimization of the real space projectors (new method)

 maximal supplied QI-value         = 25.13
 optimisation between [QCUT,QGAM] = [ 11.81, 23.88] = [ 39.08,159.64] Ry 
 Optimized for a Real-space Cutoff    1.41 Angstroem

   l    n(q)    QCUT    max X(q) W(low)/X(q) W(high)/X(q)  e(spline) 
   0     10    11.813    79.467    0.48E-04    0.30E-04    0.67E-06
   0     10    11.813    66.151    0.47E-04    0.30E-04    0.67E-06
   1     10    11.813    20.169    0.11E-03    0.17E-03    0.11E-05
   1     10    11.813    14.454    0.11E-03    0.17E-03    0.11E-05
  PAW_PBE B 06Sep2000                   :
 energy of atom  1       EATOM=  -71.1703
 kinetic energy error for atom=    0.0009 (will be added to EATOM!!)
  PAW_PBE N 08Apr2002                   :
 energy of atom  2       EATOM= -264.5486
 kinetic energy error for atom=    0.0116 (will be added to EATOM!!)
 
 
 POSCAR: B N                                     
  positions in direct lattice
  velocities in cartesian coordinates

 METAGGA = SCAN     LMAXTAU =  6    LMIXTAU =  F

 exchange correlation table for  LEXCH =        8
   RHO(1)=    0.500       N(1)  =     2000
   RHO(2)=  100.500       N(2)  =     4000
 


--------------------------------------------------------------------------------------------------------


 ion  position               nearest neighbor table
   1  0.167  0.083  0.500-  21 1.45  17 1.45  20 1.45
   2  0.167  0.335  0.500-  18 1.44  22 1.45  17 1.46
   3  0.167  0.583  0.500-  18 1.44  23 1.45  19 1.46
   4  0.167  0.833  0.500-  24 1.45  19 1.45  20 1.45
   5  0.417  0.083  0.500-  25 1.45  24 1.46  21 1.46
   6  0.417  0.335  0.500-  32 1.44  22 1.45  21 1.46
   7  0.417  0.833  0.500-  27 1.44  23 1.45  24 1.46
   8  0.667  0.083  0.500-  27 1.45  28 1.45  25 1.45
   9  0.667  0.333  0.500-  32 1.45  25 1.45  29 1.45
  10  0.665  0.583  0.500-  32 1.44  26 1.45  30 1.46
  11  0.665  0.833  0.500-  27 1.44  26 1.45  31 1.46
  12  0.917  0.083  0.500-  28 1.45  17 1.46  31 1.46
  13  0.917  0.333  0.500-  18 1.45  28 1.45  29 1.45
  14  0.917  0.583  0.500-  29 1.45  19 1.46  30 1.46
  15  0.917  0.833  0.500-  30 1.45  31 1.45  20 1.45
  16  0.417  0.583  0.500-  23 1.43  26 1.43  22 1.43
  17  0.084  0.168  0.500-   1 1.45   2 1.46  12 1.46
  18  0.083  0.417  0.500-   3 1.44   2 1.44  13 1.45
  19  0.084  0.667  0.500-   4 1.45   3 1.46  14 1.46
  20  0.083  0.917  0.500-   1 1.45  15 1.45   4 1.45
  21  0.333  0.168  0.500-   1 1.45   6 1.46   5 1.46
  22  0.334  0.419  0.500-  16 1.43   6 1.45   2 1.45
  23  0.334  0.666  0.500-  16 1.43   3 1.45   7 1.45
  24  0.333  0.916  0.500-   4 1.45   7 1.46   5 1.46
  25  0.583  0.167  0.500-   5 1.45   9 1.45   8 1.45
  26  0.581  0.666  0.500-  16 1.43  10 1.45  11 1.45
  27  0.583  0.917  0.500-   7 1.44  11 1.44   8 1.45
  28  0.833  0.167  0.500-  12 1.45   8 1.45  13 1.45
  29  0.833  0.417  0.500-  14 1.45   9 1.45  13 1.45
  30  0.832  0.667  0.500-  15 1.45  10 1.46  14 1.46
  31  0.832  0.916  0.500-  15 1.45  11 1.46  12 1.46
  32  0.583  0.417  0.500-   6 1.44  10 1.44   9 1.45
 
  LATTYP: Found a hexagonal cell.
 ALAT       =    10.0487671536
 C/A-ratio  =     3.4944251219
  
  Lattice vectors:
  
 A1 = (   5.0243667045,  -8.7024973730,   0.0000000000)
 A2 = (   5.0243667045,   8.7024973730,   0.0000000000)
 A3 = (   0.0000000000,   0.0000000000,  35.1146643856)


Analysis of symmetry for initial positions (statically):
=====================================================================
 Subroutine PRICEL returns:
 Original cell was already a primitive cell.
 

 Routine SETGRP: Setting up the symmetry group for a 
 hexagonal supercell.


 Subroutine GETGRP returns: Found  4 space group operations
 (whereof  4 operations were pure point group operations)
 out of a pool of 24 trial point group operations.


The static configuration has the point symmetry C_2v.


Analysis of symmetry for dynamics (positions and initial velocities):
=====================================================================
 Subroutine PRICEL returns:
 Original cell was already a primitive cell.
 

 Routine SETGRP: Setting up the symmetry group for a 
 hexagonal supercell.


 Subroutine GETGRP returns: Found  4 space group operations
 (whereof  4 operations were pure point group operations)
 out of a pool of 24 trial point group operations.


The dynamic configuration has the point symmetry C_2v.


Analysis of constrained symmetry for selective dynamics:
=====================================================================
 Subroutine PRICEL returns:
 Original cell was already a primitive cell.
 

 Routine SETGRP: Setting up the symmetry group for a 
 hexagonal supercell.


 Subroutine GETGRP returns: Found  4 space group operations
 (whereof  4 operations were pure point group operations)
 out of a pool of 24 trial point group operations.


The constrained configuration has the point symmetry C_2v.


Analysis of structural, dynamic, and magnetic symmetry:
=====================================================================
 Subroutine PRICEL returns:
 Original cell was already a primitive cell.
 

 Routine SETGRP: Setting up the symmetry group for a 
 hexagonal supercell.


 Subroutine GETGRP returns: Found  4 space group operations
 (whereof  4 operations were pure point group operations)
 out of a pool of 24 trial point group operations.


The magnetic configuration has the point symmetry C_2v.


 Subroutine INISYM returns: Found  4 space group operations
 (whereof  4 operations are pure point group operations),
 and found     1 'primitive' translations

 
 
 KPOINTS: K-Point Grid                            

Automatic generation of k-mesh.
Space group operators:
 irot       det(A)        alpha          n_x          n_y          n_z        tau_x        tau_y        tau_z
    1     1.000000     0.000000     1.000000     0.000000     0.000000     0.000000     0.000000     0.000000
    2    -1.000000   180.000000     0.000000     0.000000     1.000000     0.000000     0.000000     0.000000
    3     1.000000   180.000000     0.000000     1.000000     0.000000     0.000000     0.000000     0.000000
    4    -1.000000   180.000000     1.000000     0.000000     0.000000     0.000000     0.000000     0.000000
 
 Subroutine IBZKPT returns following result:
 ===========================================
 
 Found     14 irreducible k-points:
 
 Following reciprocal coordinates:
            Coordinates               Weight
  0.125000  0.125000  0.000000     16.000000
  0.250000 -0.125000  0.000000     32.000000
  0.375000  0.125000  0.000000     32.000000
  0.500000 -0.375000  0.000000     32.000000
  0.125000  0.500000  0.000000     32.000000
 -0.375000  0.125000  0.000000     32.000000
 -0.250000  0.375000  0.000000     32.000000
  0.125000  0.250000  0.000000     32.000000
 -0.125000  0.125000  0.000000     16.000000
  0.000000  0.125000  0.000000     32.000000
  0.375000  0.375000  0.000000     16.000000
 -0.250000 -0.375000  0.000000     32.000000
 -0.375000  0.375000  0.000000     16.000000
  0.000000  0.375000  0.000000     32.000000
 
 Following cartesian coordinates:
            Coordinates               Weight
  0.024879  0.000000  0.000000     16.000000
  0.012439 -0.021546  0.000000     32.000000
  0.049758 -0.014364  0.000000     32.000000
  0.012439 -0.050273  0.000000     32.000000
  0.062197  0.021546  0.000000     32.000000
 -0.024879  0.028727  0.000000     32.000000
  0.012439  0.035909  0.000000     32.000000
  0.037318  0.007182  0.000000     32.000000
  0.000000  0.014364  0.000000     16.000000
  0.012439  0.007182  0.000000     32.000000
  0.074636  0.000000  0.000000     16.000000
 -0.062197 -0.007182  0.000000     32.000000
  0.000000  0.043091  0.000000     16.000000
  0.037318  0.021546  0.000000     32.000000
 


--------------------------------------------------------------------------------------------------------




 Dimension of arrays:
   k-points           NKPTS =     14   k-points in BZ     NKDIM =     14   number of bands    NBANDS=    100
   number of dos      NEDOS =   1200   number of ions     NIONS =     32
   non local maximal  LDIM  =      4   non local SUM 2l+1 LMDIM =      8
   total plane-waves  NPLWV = ******
   max r-space proj   IRMAX =   6598   max aug-charges    IRDMAX=   8974
   dimension x,y,z NGX =    80 NGY =   80 NGZ =  270
   dimension x,y,z NGXF=   160 NGYF=  160 NGZF=  540
   support grid    NGXF=   160 NGYF=  160 NGZF=  540
   ions per type =              15  17
   NGX,Y,Z   is equivalent  to a cutoff of  13.24, 13.24, 12.78 a.u.
   NGXF,Y,Z  is equivalent  to a cutoff of  26.47, 26.47, 25.57 a.u.

 SYSTEM =  SiC                                     
 POSCAR =  B N                                     

 Startparameter for this run:
   NWRITE =      2    write-flag & timer
   PREC   = accura    normal or accurate (medium, high low for compatibility)
   ISTART =      1    job   : 0-new  1-cont  2-samecut
   ICHARG =      0    charge: 1-file 2-atom 10-const
   ISPIN  =      2    spin polarized calculation?
   LNONCOLLINEAR =      F non collinear calculations
   LSORBIT =      F    spin-orbit coupling
   INIWAV =      1    electr: 0-lowe 1-rand  2-diag
   LASPH  =      T    aspherical Exc in radial PAW
   METAGGA=      F    non-selfconsistent MetaGGA calc.

 Electronic Relaxation 1
   ENCUT  =  550.0 eV  40.42 Ry    6.36 a.u.  19.22 19.22 67.15*2*pi/ulx,y,z
   ENINI  =  550.0     initial cutoff
   ENAUG  =  627.1 eV  augmentation charge cutoff
   NELM   =    100;   NELMIN=  2; NELMDL=  0     # of ELM steps 
   EDIFF  = 0.1E-04   stopping-criterion for ELM
   LREAL  =      T    real-space projection
   NLSPLINE    = F    spline interpolate recip. space projectors
   LCOMPAT=      F    compatible to vasp.4.4
   GGA_COMPAT  = T    GGA compatible to vasp.4.4-vasp.4.6
   LMAXPAW     = -100 max onsite density
   LMAXMIX     =    2 max onsite mixed and CHGCAR
   VOSKOWN=      0    Vosko Wilk Nusair interpolation
   ROPT   =   -0.00025  -0.00025
 Ionic relaxation
   EDIFFG = -.2E-01   stopping-criterion for IOM
   NSW    =    500    number of steps for IOM
   NBLOCK =      1;   KBLOCK =    500    inner block; outer block 
   IBRION =      2    ionic relax: 0-MD 1-quasi-New 2-CG
   NFREE  =      1    steps in history (QN), initial steepest desc. (CG)
   ISIF   =      2    stress and relaxation
   IWAVPR =     11    prediction:  0-non 1-charg 2-wave 3-comb
   ISYM   =      2    0-nonsym 1-usesym 2-fastsym
   LCORR  =      T    Harris-Foulkes like correction to forces

   POTIM  = 0.5000    time-step for ionic-motion
   TEIN   =    0.0    initial temperature
   TEBEG  =    0.0;   TEEND  =   0.0 temperature during run
   SMASS  =  -3.00    Nose mass-parameter (am)
   estimated Nose-frequenzy (Omega)   =  0.10E-29 period in steps =****** mass=  -0.231E-26a.u.
   SCALEE = 1.0000    scale energy and forces
   NPACO  =    256;   APACO  = 16.0  distance and # of slots for P.C.
   PSTRESS=    0.0 pullay stress

  Mass of Ions in am
   POMASS =  10.81 14.00
  Ionic Valenz
   ZVAL   =   3.00  5.00
  Atomic Wigner-Seitz radii
   RWIGS  =  -1.00 -1.00
  virtual crystal weights 
   VCA    =   1.00  1.00
   NELECT =     130.0000    total number of electrons
   NUPDOWN=      -1.0000    fix difference up-down

 DOS related values:
   EMIN   =  10.00;   EMAX   =-10.00  energy-range for DOS
   EFERMI =   0.00
   ISMEAR =     0;   SIGMA  =   0.05  broadening in eV -4-tet -1-fermi 0-gaus

 Electronic relaxation 2 (details)
   IALGO  =     68    algorithm
   LDIAG  =      T    sub-space diagonalisation (order eigenvalues)
   LSUBROT=      F    optimize rotation matrix (better conditioning)
   TURBO    =      0    0=normal 1=particle mesh
   IRESTART =      0    0=no restart 2=restart with 2 vectors
   NREBOOT  =      0    no. of reboots
   NMIN     =      0    reboot dimension
   EREF     =   0.00    reference energy to select bands
   IMIX   =      4    mixing-type and parameters
     AMIX     =   0.40;   BMIX     =  1.00
     AMIX_MAG =   1.60;   BMIX_MAG =  1.00
     AMIN     =   0.10
     WC   =   100.;   INIMIX=   1;  MIXPRE=   1;  MAXMIX= -45

 Intra band minimization:
   WEIMIN = 0.0010     energy-eigenvalue tresh-hold
   EBREAK =  0.25E-07  absolut break condition
   DEPER  =   0.30     relativ break condition  

   TIME   =   0.40     timestep for ELM

  volume/ion in A,a.u.               =      95.96       647.58
  Fermi-wavevector in a.u.,A,eV,Ry     =   0.570569  1.078219  4.429360  0.325549
  Thomas-Fermi vector in A             =   1.610675
 
 Write flags
   LWAVE        =      T    write WAVECAR
   LDOWNSAMPLE  =      F    k-point downsampling of WAVECAR
   LCHARG       =      F    write CHGCAR
   LVTOT        =      F    write LOCPOT, total local potential
   LVHAR        =      T    write LOCPOT, Hartree potential only
   LELF         =      F    write electronic localiz. function (ELF)
   LORBIT       =     11    0 simple, 1 ext, 2 COOP (PROOUT), +10 PAW based schemes


 Dipole corrections
   LMONO  =      F    monopole corrections only (constant potential shift)
   LDIPOL =      F    correct potential (dipole corrections)
   IDIPOL =      0    1-x, 2-y, 3-z, 4-all directions 
   EPSILON=  1.0000000 bulk dielectric constant

 Exchange correlation treatment:
   GGA     =    --    GGA type
   LEXCH   =     8    internal setting for exchange type
   VOSKOWN=      0    Vosko Wilk Nusair interpolation
   LHFCALC =     F    Hartree Fock is set to
   LHFONE  =     F    Hartree Fock one center treatment
   AEXX    =    0.0000 exact exchange contribution

 Linear response parameters
   LEPSILON=     F    determine dielectric tensor
   LRPA    =     F    only Hartree local field effects (RPA)
   LNABLA  =     F    use nabla operator in PAW spheres
   LVEL    =     F    velocity operator in full k-point grid
   LINTERFAST=   F  fast interpolation
   KINTER  =     0    interpolate to denser k-point grid
   CSHIFT  =0.1000    complex shift for real part using Kramers Kronig
   OMEGAMAX=  -1.0    maximum frequency
   DEG_THRESHOLD= 0.2000000E-02 threshold for treating states as degnerate
   RTIME   =   -0.100 relaxation time in fs
  (WPLASMAI=    0.000 imaginary part of plasma frequency in eV, 0.658/RTIME)
   DFIELD  = 0.0000000 0.0000000 0.0000000 field for delta impulse in time
 
 Orbital magnetization related:
   ORBITALMAG=     F  switch on orbital magnetization
   LCHIMAG   =     F  perturbation theory with respect to B field
   DQ        =  0.001000  dq finite difference perturbation B field
   LLRAUG    =     F  two centre corrections for induced B field

 Solvation model:
   LSOL    =     T         switch on solvation model
   EB_K    = 78.400000     relative permittivity of the bulk solvent
   SIGMA_K =  0.600000     width of the dielectric cavity
   NC_K    =  0.002500     cutoff charge density
   TAU     =  0.000000     cavity surface tension
   LAMBDA_D_K    =  3.040000     Debye length in Angstroms
   LRHOB     =     F     write boundcharge  density
   LRHOION     =     F     write ioniccharge density



--------------------------------------------------------------------------------------------------------


 conjugate gradient relaxation of ions
   using selective dynamics as specified on POSCAR
 charge density and potential will be updated during run
 spin polarized calculation
 RMM-DIIS sequential band-by-band and
  variant of blocked Davidson during initial phase
 perform sub-space diagonalisation
    before iterative eigenvector-optimisation
 modified Broyden-mixing scheme, WC =      100.0
 initial mixing is a Kerker type mixing with AMIX =  0.4000 and BMIX =      1.0000
 Hartree-type preconditioning will be used
 using additional bands           35
 real space projection scheme for non local part
 use partial core corrections
 calculate Harris-corrections to forces 
   (improved forces if not selfconsistent)
 use gradient corrections 
 use of overlap-Matrix (Vanderbilt PP)
 Gauss-broadening in eV      SIGMA  =   0.05


--------------------------------------------------------------------------------------------------------


  energy-cutoff  :      550.00
  volume of cell :     3070.74
      direct lattice vectors                 reciprocal lattice vectors
     5.024366704 -8.702497373  0.000000000     0.099515029 -0.057454772  0.000000000
     5.024366704  8.702497373  0.000000000     0.099515029  0.057454772  0.000000000
     0.000000000  0.000000000 35.114664386     0.000000000  0.000000000  0.028478131

  length of vectors
    10.048767154 10.048767154 35.114664386     0.114909929  0.114909929  0.028478131


 
 old parameters found on file WAVECAR:
  energy-cutoff  :      550.00
  volume of cell :     3070.74
      direct lattice vectors                 reciprocal lattice vectors
     5.024366704 -8.702497373  0.000000000     0.099515029 -0.057454772  0.000000000
     5.024366704  8.702497373  0.000000000     0.099515029  0.057454772  0.000000000
     0.000000000  0.000000000 35.114664386     0.000000000  0.000000000  0.028478131

  length of vectors

 
 k-points in units of 2pi/SCALE and weight: K-Point Grid                            
   0.02487876  0.00000000  0.00000000       0.042
   0.01243938 -0.02154554  0.00000000       0.083
   0.04975751 -0.01436369  0.00000000       0.083
   0.01243938 -0.05027293  0.00000000       0.083
   0.06219689  0.02154554  0.00000000       0.083
  -0.02487876  0.02872739  0.00000000       0.083
   0.01243938  0.03590923  0.00000000       0.083
   0.03731814  0.00718185  0.00000000       0.083
   0.00000000  0.01436369  0.00000000       0.042
   0.01243938  0.00718185  0.00000000       0.083
   0.07463627  0.00000000  0.00000000       0.042
  -0.06219689 -0.00718185  0.00000000       0.083
   0.00000000  0.04309108  0.00000000       0.042
   0.03731814  0.02154554  0.00000000       0.083
 
 k-points in reciprocal lattice and weights: K-Point Grid                            
   0.12500000  0.12500000  0.00000000       0.042
   0.25000000 -0.12500000  0.00000000       0.083
   0.37500000  0.12500000  0.00000000       0.083
   0.50000000 -0.37500000  0.00000000       0.083
   0.12500000  0.50000000  0.00000000       0.083
  -0.37500000  0.12500000  0.00000000       0.083
  -0.25000000  0.37500000  0.00000000       0.083
   0.12500000  0.25000000  0.00000000       0.083
  -0.12500000  0.12500000  0.00000000       0.042
   0.00000000  0.12500000  0.00000000       0.083
   0.37500000  0.37500000  0.00000000       0.042
  -0.25000000 -0.37500000  0.00000000       0.083
  -0.37500000  0.37500000  0.00000000       0.042
   0.00000000  0.37500000  0.00000000       0.083
 
 position of ions in fractional coordinates (direct lattice) 
   0.16670836  0.08341610  0.50000000
   0.16749217  0.33491910  0.50000000
   0.16749524  0.58257452  0.50000000
   0.16670882  0.83329218  0.50000000
   0.41661205  0.08330521  0.50000000
   0.41742398  0.33491821  0.50000000
   0.41742647  0.83250576  0.50000000
   0.66663628  0.08327360  0.50000000
   0.66663504  0.33336596  0.50000000
   0.66508279  0.58257701  0.50000000
   0.66508190  0.83250883  0.50000000
   0.91669452  0.08330648  0.50000000
   0.91672740  0.33336472  0.50000000
   0.91669579  0.58338895  0.50000000
   0.91658489  0.83329264  0.50000000
   0.41666804  0.58333296  0.50000000
   0.08436642  0.16750437  0.50000000
   0.08308321  0.41654233  0.50000000
   0.08436831  0.66686260  0.50000000
   0.08333424  0.91666676  0.50000000
   0.33313839  0.16750358  0.50000000
   0.33431879  0.41863745  0.50000000
   0.33432135  0.66567965  0.50000000
   0.33313840  0.91563269  0.50000000
   0.58319317  0.16659834  0.50000000
   0.58136354  0.66568221  0.50000000
   0.58345866  0.91691778  0.50000000
   0.83340374  0.16659726  0.50000000
   0.83340266  0.41680783  0.50000000
   0.83249742  0.66686261  0.50000000
   0.83249663  0.91563458  0.50000000
   0.58345730  0.41654370  0.50000000
 
 position of ions in cartesian coordinates  (Angst):
   1.25671701 -0.72485060 17.55733219
   2.52429848  1.45703242 17.55733219
   3.76862554  3.61222641 17.55733219
   5.02437172  5.80093988 17.55733219
   2.51176760 -2.90060191 17.55733219
   3.78004307 -0.71800629 17.55733219
   6.28011790  3.61222641 17.55733219
   3.76782223 -5.07671213 17.55733219
   5.02437172 -2.90027328 17.55733219
   6.26870037 -0.71800629 17.55733219
   7.52444496  1.45703242 17.55733219
   5.02437172 -7.25255726 17.55733219
   6.28092121 -5.07671213 17.55733219
   7.53697585 -2.90060191 17.55733219
   8.79202644 -0.72485060 17.55733219
   5.02437172  1.45040110 17.55733219
   1.26549120  0.72350773 17.55733219
   2.51030197  2.90192711 17.55733219
   3.77445958  5.06915502 17.55733219
   5.02437172  7.25207402 17.55733219
   2.51540885 -1.44143647 17.55733219
   3.78312830  0.73378293 17.55733219
   5.02437172  2.88364477 17.55733219
   6.27428386  5.06915502 17.55733219
   3.76722746 -3.62541542 17.55733219
   6.26561514  0.73378293 17.55733219
   7.53844147  2.90192711 17.55733219
   5.02437172 -5.80288161 17.55733219
   6.28151598 -3.62541542 17.55733219
   7.53333459 -1.44143647 17.55733219
   8.78325224  0.72350773 17.55733219
   5.02437172 -1.45256519 17.55733219
 


--------------------------------------------------------------------------------------------------------


 k-point  1 :   0.1250 0.1250 0.0000  plane waves:   89921
 k-point  2 :   0.2500-0.1250 0.0000  plane waves:   89921
 k-point  3 :   0.3750 0.1250 0.0000  plane waves:   89970
 k-point  4 :   0.5000-0.3750 0.0000  plane waves:   89970
 k-point  5 :   0.1250 0.5000 0.0000  plane waves:   89970
 k-point  6 :  -0.3750 0.1250 0.0000  plane waves:   89943
 k-point  7 :  -0.2500 0.3750 0.0000  plane waves:   89943
 k-point  8 :   0.1250 0.2500 0.0000  plane waves:   89943
 k-point  9 :  -0.1250 0.1250 0.0000  plane waves:   89893
 k-point 10 :   0.0000 0.1250 0.0000  plane waves:   89893
 k-point 11 :   0.3750 0.3750 0.0000  plane waves:   89957
 k-point 12 :  -0.2500-0.3750 0.0000  plane waves:   89957
 k-point 13 :  -0.3750 0.3750 0.0000  plane waves:   89980
 k-point 14 :   0.0000 0.3750 0.0000  plane waves:   89980

 maximum and minimum number of plane-waves per node :     15049    14933

 maximum number of plane-waves:     89980
 maximum index in each direction: 
   IXMAX=   19   IYMAX=   19   IZMAX=   67
   IXMIN=  -19   IYMIN=  -19   IZMIN=  -67


 real space projection operators:
  total allocation   :      10256.25 KBytes
  max/ min on nodes  :       1787.00       1660.88


 parallel 3D FFT for wavefunctions:
    minimum data exchange during FFTs selected (reduces bandwidth)
 parallel 3D FFT for charge:
    minimum data exchange during FFTs selected (reduces bandwidth)


 total amount of memory used by VASP MPI-rank0   335857. kBytes
=======================================================================

   base      :      30000. kBytes
   nonlr-proj:       5780. kBytes
   fftplans  :      29100. kBytes
   grid      :     101821. kBytes
   one-center:         36. kBytes
   wavefun   :     169120. kBytes
 
     INWAV:  cpu time   19.9136: real time   41.2715
 Broyden mixing: mesh for mixing (old mesh)
   NGX = 39   NGY = 39   NGZ =135
  (NGX  =160   NGY  =160   NGZ  =540)
  gives a total of 205335 points

 charge density for first step will be calculated from the start-wavefunctions


--------------------------------------------------------------------------------------------------------


 Maximum index for non-local projection operator         1233
 Maximum index for augmentation-charges          480 (set IRDMAX)


--------------------------------------------------------------------------------------------------------


 initial charge from wavefunction
 First call to EWALD:  gamma=   0.122
 Maximum number of real-space cells 4x 4x 1
 Maximum number of reciprocal cells 2x 2x 6

    FEWALD:  cpu time    0.0047: real time    0.1770


--------------------------------------- Iteration      1(   1)  ---------------------------------------


    POTLOK:  cpu time   43.3689: real time   44.4952
    SETDIJ:  cpu time    0.9702: real time    0.7914
     EDDAV:  cpu time  156.0585: real time   85.6632
       DOS:  cpu time    0.0951: real time    0.0920
    CHARGE:  cpu time   25.9225: real time   23.8416
    MIXING:  cpu time    0.2031: real time    0.2941
    --------------------------------------------
      LOOP:  cpu time  226.6183: real time  155.1776

 eigenvalue-minimisations  :  3932
 total energy-change (2. order) :-0.3080682E+03  (-0.1820324E-06)
 number of electron     129.9999985 magnetization       0.0000000
 augmentation part        3.8859943 magnetization      -0.0000003

 Broyden mixing:
  rms(total) = 0.32892E-04    rms(broyden)= 0.32872E-04
  rms(prec ) = 0.34317E-04
  weight for this iteration     100.00

 Free energy of the ion-electron system (eV)
  ---------------------------------------------------
  alpha Z        PSCENC =        30.07105360
  Ewald energy   TEWEN  =     42234.08290421
  -Hartree energ DENC   =    -46951.40006154
  -exchange      EXHF   =         0.00000000
  -V(xc)+E(xc)   XCENC  =       568.23114041
  PAW double counting   =     15562.19554967   -15620.96604380
  entropy T*S    EENTRO =        -0.00000000
  eigenvalues    EBANDS =     -1797.42074420
  atomic energy  EATOM  =      5564.66905199
  Solvation  Ediel_sol  =       102.46899047
  ---------------------------------------------------
  free energy    TOTEN  =      -308.06815918 eV

  energy without entropy =     -308.06815918  energy(sigma->0) =     -308.06815918


--------------------------------------------------------------------------------------------------------




--------------------------------------- Iteration      1(   2)  ---------------------------------------


    POTLOK:  cpu time   23.2085: real time   23.2338
    SETDIJ:  cpu time    0.9194: real time    0.7169
    EDDIAG:  cpu time   29.8902: real time   23.8993
  RMM-DIIS:  cpu time  157.2218: real time   85.4119
    ORTHCH:  cpu time    0.4223: real time    0.2116
       DOS:  cpu time    0.0144: real time    0.0072
    --------------------------------------------
      LOOP:  cpu time  211.6766: real time  133.4806

 eigenvalue-minimisations  :  2514
 total energy-change (2. order) : 0.5341280E-07  (-0.2815493E-07)
 number of electron     129.9999985 magnetization       0.0000000
 augmentation part        3.8859943 magnetization      -0.0000003

 Free energy of the ion-electron system (eV)
  ---------------------------------------------------
  alpha Z        PSCENC =        30.07105360
  Ewald energy   TEWEN  =     42234.08290421
  -Hartree energ DENC   =    -46951.40022370
  -exchange      EXHF   =         0.00000000
  -V(xc)+E(xc)   XCENC  =       568.23112362
  PAW double counting   =     15562.19773199   -15620.96822589
  entropy T*S    EENTRO =        -0.00000000
  eigenvalues    EBANDS =     -1797.42066174
  atomic energy  EATOM  =      5564.66905199
  Solvation  Ediel_sol  =       102.46908679
  ---------------------------------------------------
  free energy    TOTEN  =      -308.06815913 eV

  energy without entropy =     -308.06815913  energy(sigma->0) =     -308.06815913


--------------------------------------------------------------------------------------------------------




 average (electrostatic) potential at core
  the test charge radii are     0.7672  0.7089
  (the norm of the test charge is              1.0000)
       1 -38.5705       2 -38.7831       3 -38.7831       4 -38.5705       5 -38.6593
       6 -38.7831       7 -38.7831       8 -38.5727       9 -38.5727      10 -38.7831
      11 -38.7832      12 -38.6593      13 -38.5727      14 -38.6593      15 -38.5705
      16 -78.3380      17 -76.2066      18 -76.1889      19 -76.2065      20 -76.1234
      21 -76.2066      22 -77.5154      23 -77.5155      24 -76.2066      25 -76.1094
      26 -77.5155      27 -76.1889      28 -76.1094      29 -76.1094      30 -76.2066
      31 -76.2066      32 -76.1889
 
 
 
 E-fermi :  -3.4082     XC(G=0):  -1.1919     alpha+bet : -1.0232


 spin component 1

 k-point     1 :       0.1250    0.1250    0.0000
  band No.  band energies     occupation 
      1     -27.4885      1.00000
      2     -24.5821      1.00000
      3     -24.1473      1.00000
      4     -24.0080      1.00000
      5     -23.7941      1.00000
      6     -23.4803      1.00000
      7     -23.2276      1.00000
      8     -22.8177      1.00000
      9     -22.5814      1.00000
     10     -22.1848      1.00000
     11     -22.0948      1.00000
     12     -21.9224      1.00000
     13     -21.8255      1.00000
     14     -21.6503      1.00000
     15     -21.6175      1.00000
     16     -21.4787      1.00000
     17     -18.4070      1.00000
     18     -15.6261      1.00000
     19     -15.5713      1.00000
     20     -14.9688      1.00000
     21     -14.8058      1.00000
     22     -14.7092      1.00000
     23     -14.3390      1.00000
     24     -14.1667      1.00000
     25     -13.8295      1.00000
     26     -13.3622      1.00000
     27     -13.1019      1.00000
     28     -12.9126      1.00000
     29     -12.7338      1.00000
     30     -12.5759      1.00000
     31     -12.3479      1.00000
     32     -11.9783      1.00000
     33     -11.9638      1.00000
     34     -11.7689      1.00000
     35     -11.6831      1.00000
     36     -11.6299      1.00000
     37     -11.0879      1.00000
     38     -10.9285      1.00000
     39     -10.8685      1.00000
     40     -10.7166      1.00000
     41     -10.6482      1.00000
     42     -10.5114      1.00000
     43     -10.4246      1.00000
     44     -10.1007      1.00000
     45      -9.9398      1.00000
     46      -9.9066      1.00000
     47      -9.9045      1.00000
     48      -9.6394      1.00000
     49      -9.5286      1.00000
     50      -9.5039      1.00000
     51      -9.2756      1.00000
     52      -9.1138      1.00000
     53      -8.9878      1.00000
     54      -8.3350      1.00000
     55      -8.0012      1.00000
     56      -7.9029      1.00000
     57      -7.8634      1.00000
     58      -7.7513      1.00000
     59      -7.3952      1.00000
     60      -7.3791      1.00000
     61      -7.2120      1.00000
     62      -6.9784      1.00000
     63      -6.9701      1.00000
     64      -6.7065      1.00000
     65      -3.6514      1.00000
     66      -0.8159      0.00000
     67      -0.7817      0.00000
     68      -0.5899      0.00000
     69      -0.5191      0.00000
     70      -0.4144      0.00000
     71      -0.2875      0.00000
     72      -0.0966      0.00000
     73      -0.0502      0.00000
     74       0.0629      0.00000
     75       0.2151      0.00000
     76       0.2246      0.00000
     77       0.3248      0.00000
     78       0.4312      0.00000
     79       0.4527      0.00000
     80       0.4532      0.00000
     81       0.8383      0.00000
     82       0.8948      0.00000
     83       1.0019      0.00000
     84       1.1021      0.00000
     85       1.1077      0.00000
     86       1.1582      0.00000
     87       1.1692      0.00000
     88       1.1922      0.00000
     89       1.1929      0.00000
     90       1.4346      0.00000
     91       1.4380      0.00000
     92       1.5609      0.00000
     93       1.5630      0.00000
     94       1.6927      0.00000
     95       1.7364      0.00000
     96       1.7499      0.00000
     97       1.8098      0.00000
     98       1.8317      0.00000
     99       1.8695      0.00000
    100       1.9863      0.00000

 k-point     2 :       0.2500   -0.1250    0.0000
  band No.  band energies     occupation 
      1     -27.4885      1.00000
      2     -24.5821      1.00000
      3     -24.1473      1.00000
      4     -24.0080      1.00000
      5     -23.7941      1.00000
      6     -23.4803      1.00000
      7     -23.2276      1.00000
      8     -22.8177      1.00000
      9     -22.5813      1.00000
     10     -22.1848      1.00000
     11     -22.0948      1.00000
     12     -21.9224      1.00000
     13     -21.8255      1.00000
     14     -21.6503      1.00000
     15     -21.6174      1.00000
     16     -21.4787      1.00000
     17     -18.4070      1.00000
     18     -15.6261      1.00000
     19     -15.5713      1.00000
     20     -14.9688      1.00000
     21     -14.8058      1.00000
     22     -14.7092      1.00000
     23     -14.3390      1.00000
     24     -14.1667      1.00000
     25     -13.8295      1.00000
     26     -13.3622      1.00000
     27     -13.1019      1.00000
     28     -12.9126      1.00000
     29     -12.7338      1.00000
     30     -12.5759      1.00000
     31     -12.3478      1.00000
     32     -11.9783      1.00000
     33     -11.9637      1.00000
     34     -11.7689      1.00000
     35     -11.6831      1.00000
     36     -11.6300      1.00000
     37     -11.0880      1.00000
     38     -10.9285      1.00000
     39     -10.8684      1.00000
     40     -10.7166      1.00000
     41     -10.6481      1.00000
     42     -10.5115      1.00000
     43     -10.4246      1.00000
     44     -10.1007      1.00000
     45      -9.9397      1.00000
     46      -9.9066      1.00000
     47      -9.9045      1.00000
     48      -9.6394      1.00000
     49      -9.5287      1.00000
     50      -9.5039      1.00000
     51      -9.2756      1.00000
     52      -9.1137      1.00000
     53      -8.9878      1.00000
     54      -8.3350      1.00000
     55      -8.0013      1.00000
     56      -7.9029      1.00000
     57      -7.8633      1.00000
     58      -7.7513      1.00000
     59      -7.3952      1.00000
     60      -7.3791      1.00000
     61      -7.2120      1.00000
     62      -6.9784      1.00000
     63      -6.9700      1.00000
     64      -6.7065      1.00000
     65      -3.6514      1.00000
     66      -0.8159      0.00000
     67      -0.7817      0.00000
     68      -0.5899      0.00000
     69      -0.5191      0.00000
     70      -0.4144      0.00000
     71      -0.2875      0.00000
     72      -0.0966      0.00000
     73      -0.0502      0.00000
     74       0.0629      0.00000
     75       0.2152      0.00000
     76       0.2246      0.00000
     77       0.3248      0.00000
     78       0.4313      0.00000
     79       0.4527      0.00000
     80       0.4532      0.00000
     81       0.8383      0.00000
     82       0.8948      0.00000
     83       1.0019      0.00000
     84       1.1021      0.00000
     85       1.1078      0.00000
     86       1.1583      0.00000
     87       1.1691      0.00000
     88       1.1921      0.00000
     89       1.1929      0.00000
     90       1.4346      0.00000
     91       1.4380      0.00000
     92       1.5608      0.00000
     93       1.5631      0.00000
     94       1.6927      0.00000
     95       1.7364      0.00000
     96       1.7500      0.00000
     97       1.8097      0.00000
     98       1.8317      0.00000
     99       1.8694      0.00000
    100       1.9862      0.00000

 k-point     3 :       0.3750    0.1250    0.0000
  band No.  band energies     occupation 
      1     -27.4877      1.00000
      2     -24.5793      1.00000
      3     -24.3221      1.00000
      4     -24.0190      1.00000
      5     -23.5628      1.00000
      6     -23.3257      1.00000
      7     -23.1340      1.00000
      8     -22.8375      1.00000
      9     -22.6699      1.00000
     10     -22.3985      1.00000
     11     -22.3100      1.00000
     12     -22.0493      1.00000
     13     -21.8438      1.00000
     14     -21.6149      1.00000
     15     -21.4566      1.00000
     16     -21.2853      1.00000
     17     -18.3787      1.00000
     18     -15.5840      1.00000
     19     -15.3854      1.00000
     20     -14.9199      1.00000
     21     -14.8844      1.00000
     22     -14.6328      1.00000
     23     -14.4956      1.00000
     24     -14.1578      1.00000
     25     -13.9949      1.00000
     26     -13.5630      1.00000
     27     -13.3763      1.00000
     28     -13.2276      1.00000
     29     -12.8381      1.00000
     30     -12.5555      1.00000
     31     -12.3004      1.00000
     32     -11.9521      1.00000
     33     -11.9070      1.00000
     34     -11.3817      1.00000
     35     -11.3471      1.00000
     36     -11.1623      1.00000
     37     -11.0742      1.00000
     38     -10.9248      1.00000
     39     -10.8774      1.00000
     40     -10.6992      1.00000
     41     -10.6359      1.00000
     42     -10.5402      1.00000
     43     -10.3661      1.00000
     44     -10.1819      1.00000
     45     -10.1675      1.00000
     46     -10.1115      1.00000
     47      -9.8393      1.00000
     48      -9.4903      1.00000
     49      -9.3644      1.00000
     50      -9.0842      1.00000
     51      -9.0526      1.00000
     52      -8.8705      1.00000
     53      -8.7422      1.00000
     54      -8.5492      1.00000
     55      -8.5424      1.00000
     56      -8.4652      1.00000
     57      -8.1657      1.00000
     58      -8.0547      1.00000
     59      -7.7521      1.00000
     60      -7.5091      1.00000
     61      -7.1499      1.00000
     62      -6.9517      1.00000
     63      -6.6131      1.00000
     64      -6.3572      1.00000
     65      -3.7039      1.00000
     66      -0.8307      0.00000
     67      -0.7131      0.00000
     68      -0.5871      0.00000
     69      -0.4927      0.00000
     70      -0.2939      0.00000
     71      -0.2419      0.00000
     72       0.0019      0.00000
     73       0.2073      0.00000
     74       0.2214      0.00000
     75       0.2556      0.00000
     76       0.2611      0.00000
     77       0.2785      0.00000
     78       0.4497      0.00000
     79       0.5100      0.00000
     80       0.5291      0.00000
     81       0.6342      0.00000
     82       0.7725      0.00000
     83       0.8017      0.00000
     84       0.8816      0.00000
     85       0.9282      0.00000
     86       0.9976      0.00000
     87       1.0065      0.00000
     88       1.0696      0.00000
     89       1.1418      0.00000
     90       1.2565      0.00000
     91       1.3127      0.00000
     92       1.3774      0.00000
     93       1.3832      0.00000
     94       1.4324      0.00000
     95       1.5601      0.00000
     96       1.6123      0.00000
     97       1.7058      0.00000
     98       1.7509      0.00000
     99       1.8618      0.00000
    100       1.9578      0.00000

 k-point     4 :       0.5000   -0.3750    0.0000
  band No.  band energies     occupation 
      1     -27.4877      1.00000
      2     -24.5793      1.00000
      3     -24.3221      1.00000
      4     -24.0190      1.00000
      5     -23.5628      1.00000
      6     -23.3257      1.00000
      7     -23.1340      1.00000
      8     -22.8375      1.00000
      9     -22.6699      1.00000
     10     -22.3985      1.00000
     11     -22.3100      1.00000
     12     -22.0493      1.00000
     13     -21.8437      1.00000
     14     -21.6148      1.00000
     15     -21.4567      1.00000
     16     -21.2854      1.00000
     17     -18.3787      1.00000
     18     -15.5840      1.00000
     19     -15.3854      1.00000
     20     -14.9199      1.00000
     21     -14.8844      1.00000
     22     -14.6328      1.00000
     23     -14.4956      1.00000
     24     -14.1578      1.00000
     25     -13.9949      1.00000
     26     -13.5630      1.00000
     27     -13.3763      1.00000
     28     -13.2276      1.00000
     29     -12.8380      1.00000
     30     -12.5555      1.00000
     31     -12.3004      1.00000
     32     -11.9521      1.00000
     33     -11.9070      1.00000
     34     -11.3817      1.00000
     35     -11.3472      1.00000
     36     -11.1623      1.00000
     37     -11.0742      1.00000
     38     -10.9248      1.00000
     39     -10.8775      1.00000
     40     -10.6992      1.00000
     41     -10.6358      1.00000
     42     -10.5403      1.00000
     43     -10.3661      1.00000
     44     -10.1818      1.00000
     45     -10.1675      1.00000
     46     -10.1114      1.00000
     47      -9.8393      1.00000
     48      -9.4903      1.00000
     49      -9.3645      1.00000
     50      -9.0842      1.00000
     51      -9.0527      1.00000
     52      -8.8705      1.00000
     53      -8.7422      1.00000
     54      -8.5492      1.00000
     55      -8.5424      1.00000
     56      -8.4653      1.00000
     57      -8.1656      1.00000
     58      -8.0547      1.00000
     59      -7.7520      1.00000
     60      -7.5091      1.00000
     61      -7.1499      1.00000
     62      -6.9516      1.00000
     63      -6.6131      1.00000
     64      -6.3572      1.00000
     65      -3.7039      1.00000
     66      -0.8307      0.00000
     67      -0.7131      0.00000
     68      -0.5871      0.00000
     69      -0.4927      0.00000
     70      -0.2939      0.00000
     71      -0.2419      0.00000
     72       0.0019      0.00000
     73       0.2073      0.00000
     74       0.2214      0.00000
     75       0.2555      0.00000
     76       0.2611      0.00000
     77       0.2785      0.00000
     78       0.4497      0.00000
     79       0.5100      0.00000
     80       0.5291      0.00000
     81       0.6341      0.00000
     82       0.7725      0.00000
     83       0.8017      0.00000
     84       0.8815      0.00000
     85       0.9282      0.00000
     86       0.9976      0.00000
     87       1.0065      0.00000
     88       1.0696      0.00000
     89       1.1418      0.00000
     90       1.2565      0.00000
     91       1.3127      0.00000
     92       1.3774      0.00000
     93       1.3832      0.00000
     94       1.4324      0.00000
     95       1.5601      0.00000
     96       1.6123      0.00000
     97       1.7058      0.00000
     98       1.7509      0.00000
     99       1.8618      0.00000
    100       1.9578      0.00000

 k-point     5 :       0.1250    0.5000    0.0000
  band No.  band energies     occupation 
      1     -27.4877      1.00000
      2     -24.5793      1.00000
      3     -24.3221      1.00000
      4     -24.0190      1.00000
      5     -23.5628      1.00000
      6     -23.3257      1.00000
      7     -23.1340      1.00000
      8     -22.8375      1.00000
      9     -22.6699      1.00000
     10     -22.3985      1.00000
     11     -22.3100      1.00000
     12     -22.0493      1.00000
     13     -21.8438      1.00000
     14     -21.6149      1.00000
     15     -21.4566      1.00000
     16     -21.2854      1.00000
     17     -18.3787      1.00000
     18     -15.5840      1.00000
     19     -15.3854      1.00000
     20     -14.9199      1.00000
     21     -14.8844      1.00000
     22     -14.6328      1.00000
     23     -14.4956      1.00000
     24     -14.1578      1.00000
     25     -13.9949      1.00000
     26     -13.5630      1.00000
     27     -13.3763      1.00000
     28     -13.2276      1.00000
     29     -12.8380      1.00000
     30     -12.5555      1.00000
     31     -12.3003      1.00000
     32     -11.9521      1.00000
     33     -11.9070      1.00000
     34     -11.3817      1.00000
     35     -11.3472      1.00000
     36     -11.1623      1.00000
     37     -11.0742      1.00000
     38     -10.9248      1.00000
     39     -10.8774      1.00000
     40     -10.6992      1.00000
     41     -10.6359      1.00000
     42     -10.5402      1.00000
     43     -10.3661      1.00000
     44     -10.1819      1.00000
     45     -10.1675      1.00000
     46     -10.1115      1.00000
     47      -9.8394      1.00000
     48      -9.4903      1.00000
     49      -9.3644      1.00000
     50      -9.0842      1.00000
     51      -9.0526      1.00000
     52      -8.8705      1.00000
     53      -8.7422      1.00000
     54      -8.5492      1.00000
     55      -8.5424      1.00000
     56      -8.4652      1.00000
     57      -8.1657      1.00000
     58      -8.0546      1.00000
     59      -7.7521      1.00000
     60      -7.5091      1.00000
     61      -7.1499      1.00000
     62      -6.9517      1.00000
     63      -6.6131      1.00000
     64      -6.3572      1.00000
     65      -3.7039      1.00000
     66      -0.8307      0.00000
     67      -0.7131      0.00000
     68      -0.5871      0.00000
     69      -0.4927      0.00000
     70      -0.2940      0.00000
     71      -0.2419      0.00000
     72       0.0019      0.00000
     73       0.2073      0.00000
     74       0.2214      0.00000
     75       0.2556      0.00000
     76       0.2611      0.00000
     77       0.2785      0.00000
     78       0.4498      0.00000
     79       0.5100      0.00000
     80       0.5291      0.00000
     81       0.6342      0.00000
     82       0.7725      0.00000
     83       0.8017      0.00000
     84       0.8816      0.00000
     85       0.9282      0.00000
     86       0.9976      0.00000
     87       1.0065      0.00000
     88       1.0696      0.00000
     89       1.1418      0.00000
     90       1.2565      0.00000
     91       1.3127      0.00000
     92       1.3774      0.00000
     93       1.3832      0.00000
     94       1.4323      0.00000
     95       1.5601      0.00000
     96       1.6123      0.00000
     97       1.7058      0.00000
     98       1.7509      0.00000
     99       1.8617      0.00000
    100       1.9578      0.00000

 k-point     6 :      -0.3750    0.1250    0.0000
  band No.  band energies     occupation 
      1     -27.4880      1.00000
      2     -24.5841      1.00000
      3     -24.2541      1.00000
      4     -24.0029      1.00000
      5     -23.7224      1.00000
      6     -23.3220      1.00000
      7     -23.1015      1.00000
      8     -22.9288      1.00000
      9     -22.6725      1.00000
     10     -22.2934      1.00000
     11     -22.1562      1.00000
     12     -22.0257      1.00000
     13     -21.8423      1.00000
     14     -21.6242      1.00000
     15     -21.5261      1.00000
     16     -21.3549      1.00000
     17     -18.3892      1.00000
     18     -15.5822      1.00000
     19     -15.4711      1.00000
     20     -14.9292      1.00000
     21     -14.8671      1.00000
     22     -14.7297      1.00000
     23     -14.4942      1.00000
     24     -14.1267      1.00000
     25     -13.6698      1.00000
     26     -13.5686      1.00000
     27     -13.3140      1.00000
     28     -13.0847      1.00000
     29     -12.9290      1.00000
     30     -12.5265      1.00000
     31     -12.2835      1.00000
     32     -12.0007      1.00000
     33     -11.9389      1.00000
     34     -11.5798      1.00000
     35     -11.4252      1.00000
     36     -11.2875      1.00000
     37     -11.1708      1.00000
     38     -11.0136      1.00000
     39     -10.8928      1.00000
     40     -10.7002      1.00000
     41     -10.6062      1.00000
     42     -10.4103      1.00000
     43     -10.2068      1.00000
     44     -10.1313      1.00000
     45     -10.0895      1.00000
     46      -9.9809      1.00000
     47      -9.9115      1.00000
     48      -9.7364      1.00000
     49      -9.6381      1.00000
     50      -9.2267      1.00000
     51      -9.0625      1.00000
     52      -8.9120      1.00000
     53      -8.7802      1.00000
     54      -8.6780      1.00000
     55      -8.3080      1.00000
     56      -8.2006      1.00000
     57      -8.0017      1.00000
     58      -7.7927      1.00000
     59      -7.6601      1.00000
     60      -7.4565      1.00000
     61      -7.1695      1.00000
     62      -6.9605      1.00000
     63      -6.7546      1.00000
     64      -6.4831      1.00000
     65      -3.6783      1.00000
     66      -0.7746      0.00000
     67      -0.6850      0.00000
     68      -0.6561      0.00000
     69      -0.5147      0.00000
     70      -0.3829      0.00000
     71      -0.2256      0.00000
     72       0.0252      0.00000
     73       0.0540      0.00000
     74       0.0749      0.00000
     75       0.1675      0.00000
     76       0.1749      0.00000
     77       0.3271      0.00000
     78       0.3459      0.00000
     79       0.4492      0.00000
     80       0.6854      0.00000
     81       0.7508      0.00000
     82       0.8201      0.00000
     83       0.9596      0.00000
     84       0.9871      0.00000
     85       1.0528      0.00000
     86       1.0684      0.00000
     87       1.0758      0.00000
     88       1.1266      0.00000
     89       1.1911      0.00000
     90       1.2493      0.00000
     91       1.3179      0.00000
     92       1.4389      0.00000
     93       1.4500      0.00000
     94       1.5305      0.00000
     95       1.6562      0.00000
     96       1.6830      0.00000
     97       1.7527      0.00000
     98       1.8128      0.00000
     99       1.8542      0.00000
    100       1.8683      0.00000

 k-point     7 :      -0.2500    0.3750    0.0000
  band No.  band energies     occupation 
      1     -27.4880      1.00000
      2     -24.5841      1.00000
      3     -24.2541      1.00000
      4     -24.0029      1.00000
      5     -23.7224      1.00000
      6     -23.3220      1.00000
      7     -23.1015      1.00000
      8     -22.9288      1.00000
      9     -22.6725      1.00000
     10     -22.2934      1.00000
     11     -22.1562      1.00000
     12     -22.0257      1.00000
     13     -21.8423      1.00000
     14     -21.6242      1.00000
     15     -21.5261      1.00000
     16     -21.3549      1.00000
     17     -18.3892      1.00000
     18     -15.5822      1.00000
     19     -15.4711      1.00000
     20     -14.9292      1.00000
     21     -14.8672      1.00000
     22     -14.7297      1.00000
     23     -14.4942      1.00000
     24     -14.1267      1.00000
     25     -13.6698      1.00000
     26     -13.5686      1.00000
     27     -13.3140      1.00000
     28     -13.0846      1.00000
     29     -12.9290      1.00000
     30     -12.5265      1.00000
     31     -12.2835      1.00000
     32     -12.0007      1.00000
     33     -11.9390      1.00000
     34     -11.5798      1.00000
     35     -11.4252      1.00000
     36     -11.2875      1.00000
     37     -11.1708      1.00000
     38     -11.0136      1.00000
     39     -10.8929      1.00000
     40     -10.7001      1.00000
     41     -10.6062      1.00000
     42     -10.4103      1.00000
     43     -10.2068      1.00000
     44     -10.1313      1.00000
     45     -10.0894      1.00000
     46      -9.9809      1.00000
     47      -9.9115      1.00000
     48      -9.7364      1.00000
     49      -9.6381      1.00000
     50      -9.2267      1.00000
     51      -9.0626      1.00000
     52      -8.9120      1.00000
     53      -8.7801      1.00000
     54      -8.6780      1.00000
     55      -8.3080      1.00000
     56      -8.2007      1.00000
     57      -8.0017      1.00000
     58      -7.7927      1.00000
     59      -7.6601      1.00000
     60      -7.4564      1.00000
     61      -7.1695      1.00000
     62      -6.9604      1.00000
     63      -6.7546      1.00000
     64      -6.4831      1.00000
     65      -3.6783      1.00000
     66      -0.7746      0.00000
     67      -0.6850      0.00000
     68      -0.6561      0.00000
     69      -0.5147      0.00000
     70      -0.3828      0.00000
     71      -0.2256      0.00000
     72       0.0252      0.00000
     73       0.0540      0.00000
     74       0.0749      0.00000
     75       0.1675      0.00000
     76       0.1749      0.00000
     77       0.3271      0.00000
     78       0.3459      0.00000
     79       0.4492      0.00000
     80       0.6854      0.00000
     81       0.7508      0.00000
     82       0.8201      0.00000
     83       0.9596      0.00000
     84       0.9871      0.00000
     85       1.0528      0.00000
     86       1.0684      0.00000
     87       1.0758      0.00000
     88       1.1266      0.00000
     89       1.1911      0.00000
     90       1.2493      0.00000
     91       1.3179      0.00000
     92       1.4389      0.00000
     93       1.4500      0.00000
     94       1.5305      0.00000
     95       1.6562      0.00000
     96       1.6830      0.00000
     97       1.7527      0.00000
     98       1.8128      0.00000
     99       1.8542      0.00000
    100       1.8683      0.00000

 k-point     8 :       0.1250    0.2500    0.0000
  band No.  band energies     occupation 
      1     -27.4880      1.00000
      2     -24.5841      1.00000
      3     -24.2541      1.00000
      4     -24.0029      1.00000
      5     -23.7224      1.00000
      6     -23.3220      1.00000
      7     -23.1015      1.00000
      8     -22.9288      1.00000
      9     -22.6725      1.00000
     10     -22.2934      1.00000
     11     -22.1562      1.00000
     12     -22.0257      1.00000
     13     -21.8423      1.00000
     14     -21.6242      1.00000
     15     -21.5261      1.00000
     16     -21.3549      1.00000
     17     -18.3892      1.00000
     18     -15.5822      1.00000
     19     -15.4711      1.00000
     20     -14.9292      1.00000
     21     -14.8672      1.00000
     22     -14.7297      1.00000
     23     -14.4942      1.00000
     24     -14.1267      1.00000
     25     -13.6698      1.00000
     26     -13.5686      1.00000
     27     -13.3140      1.00000
     28     -13.0846      1.00000
     29     -12.9290      1.00000
     30     -12.5265      1.00000
     31     -12.2835      1.00000
     32     -12.0007      1.00000
     33     -11.9389      1.00000
     34     -11.5798      1.00000
     35     -11.4252      1.00000
     36     -11.2875      1.00000
     37     -11.1707      1.00000
     38     -11.0136      1.00000
     39     -10.8929      1.00000
     40     -10.7002      1.00000
     41     -10.6062      1.00000
     42     -10.4103      1.00000
     43     -10.2068      1.00000
     44     -10.1313      1.00000
     45     -10.0894      1.00000
     46      -9.9809      1.00000
     47      -9.9115      1.00000
     48      -9.7364      1.00000
     49      -9.6381      1.00000
     50      -9.2267      1.00000
     51      -9.0626      1.00000
     52      -8.9120      1.00000
     53      -8.7802      1.00000
     54      -8.6780      1.00000
     55      -8.3080      1.00000
     56      -8.2006      1.00000
     57      -8.0018      1.00000
     58      -7.7927      1.00000
     59      -7.6601      1.00000
     60      -7.4564      1.00000
     61      -7.1695      1.00000
     62      -6.9605      1.00000
     63      -6.7546      1.00000
     64      -6.4830      1.00000
     65      -3.6783      1.00000
     66      -0.7746      0.00000
     67      -0.6850      0.00000
     68      -0.6561      0.00000
     69      -0.5147      0.00000
     70      -0.3828      0.00000
     71      -0.2256      0.00000
     72       0.0252      0.00000
     73       0.0540      0.00000
     74       0.0749      0.00000
     75       0.1674      0.00000
     76       0.1749      0.00000
     77       0.3271      0.00000
     78       0.3459      0.00000
     79       0.4492      0.00000
     80       0.6854      0.00000
     81       0.7508      0.00000
     82       0.8201      0.00000
     83       0.9596      0.00000
     84       0.9871      0.00000
     85       1.0528      0.00000
     86       1.0684      0.00000
     87       1.0758      0.00000
     88       1.1266      0.00000
     89       1.1911      0.00000
     90       1.2493      0.00000
     91       1.3179      0.00000
     92       1.4389      0.00000
     93       1.4500      0.00000
     94       1.5305      0.00000
     95       1.6561      0.00000
     96       1.6830      0.00000
     97       1.7527      0.00000
     98       1.8128      0.00000
     99       1.8542      0.00000
    100       1.8683      0.00000

 k-point     9 :      -0.1250    0.1250    0.0000
  band No.  band energies     occupation 
      1     -27.4889      1.00000
      2     -24.5755      1.00000
      3     -24.0573      1.00000
      4     -24.0376      1.00000
      5     -23.7669      1.00000
      6     -23.5854      1.00000
      7     -23.4074      1.00000
      8     -22.6457      1.00000
      9     -22.5413      1.00000
     10     -22.1776      1.00000
     11     -22.0094      1.00000
     12     -21.8783      1.00000
     13     -21.7523      1.00000
     14     -21.7199      1.00000
     15     -21.6497      1.00000
     16     -21.6076      1.00000
     17     -18.4217      1.00000
     18     -15.6707      1.00000
     19     -15.6509      1.00000
     20     -14.8891      1.00000
     21     -14.7698      1.00000
     22     -14.6855      1.00000
     23     -14.2549      1.00000
     24     -14.0949      1.00000
     25     -14.0847      1.00000
     26     -13.1522      1.00000
     27     -13.0533      1.00000
     28     -12.9529      1.00000
     29     -12.5525      1.00000
     30     -12.3818      1.00000
     31     -12.1340      1.00000
     32     -12.1062      1.00000
     33     -12.0030      1.00000
     34     -11.9752      1.00000
     35     -11.9727      1.00000
     36     -11.4091      1.00000
     37     -11.4018      1.00000
     38     -11.0675      1.00000
     39     -10.8618      1.00000
     40     -10.7727      1.00000
     41     -10.7500      1.00000
     42     -10.6289      1.00000
     43     -10.2042      1.00000
     44     -10.1454      1.00000
     45      -9.9131      1.00000
     46      -9.7865      1.00000
     47      -9.7680      1.00000
     48      -9.7347      1.00000
     49      -9.5452      1.00000
     50      -9.5091      1.00000
     51      -9.3473      1.00000
     52      -9.2800      1.00000
     53      -9.0959      1.00000
     54      -8.0539      1.00000
     55      -7.8376      1.00000
     56      -7.7894      1.00000
     57      -7.7840      1.00000
     58      -7.5512      1.00000
     59      -7.4381      1.00000
     60      -7.2999      1.00000
     61      -7.1452      1.00000
     62      -7.1324      1.00000
     63      -6.9985      1.00000
     64      -6.9516      1.00000
     65      -3.6392      1.00000
     66      -0.8825      0.00000
     67      -0.8137      0.00000
     68      -0.7610      0.00000
     69      -0.4905      0.00000
     70      -0.2469      0.00000
     71      -0.1576      0.00000
     72      -0.1124      0.00000
     73      -0.0410      0.00000
     74       0.0028      0.00000
     75       0.0677      0.00000
     76       0.1625      0.00000
     77       0.2632      0.00000
     78       0.4037      0.00000
     79       0.5317      0.00000
     80       0.6187      0.00000
     81       0.7774      0.00000
     82       0.8427      0.00000
     83       0.8769      0.00000
     84       0.9402      0.00000
     85       1.2767      0.00000
     86       1.3080      0.00000
     87       1.3560      0.00000
     88       1.3789      0.00000
     89       1.4970      0.00000
     90       1.4985      0.00000
     91       1.5629      0.00000
     92       1.6142      0.00000
     93       1.6261      0.00000
     94       1.6271      0.00000
     95       1.6734      0.00000
     96       1.7472      0.00000
     97       1.7999      0.00000
     98       1.8456      0.00000
     99       1.8530      0.00000
    100       1.8766      0.00000

 k-point    10 :       0.0000    0.1250    0.0000
  band No.  band energies     occupation 
      1     -27.4889      1.00000
      2     -24.5755      1.00000
      3     -24.0573      1.00000
      4     -24.0376      1.00000
      5     -23.7669      1.00000
      6     -23.5854      1.00000
      7     -23.4074      1.00000
      8     -22.6457      1.00000
      9     -22.5413      1.00000
     10     -22.1776      1.00000
     11     -22.0094      1.00000
     12     -21.8783      1.00000
     13     -21.7523      1.00000
     14     -21.7199      1.00000
     15     -21.6496      1.00000
     16     -21.6076      1.00000
     17     -18.4217      1.00000
     18     -15.6707      1.00000
     19     -15.6509      1.00000
     20     -14.8891      1.00000
     21     -14.7698      1.00000
     22     -14.6855      1.00000
     23     -14.2549      1.00000
     24     -14.0949      1.00000
     25     -14.0847      1.00000
     26     -13.1522      1.00000
     27     -13.0533      1.00000
     28     -12.9529      1.00000
     29     -12.5526      1.00000
     30     -12.3817      1.00000
     31     -12.1340      1.00000
     32     -12.1063      1.00000
     33     -12.0030      1.00000
     34     -11.9752      1.00000
     35     -11.9727      1.00000
     36     -11.4091      1.00000
     37     -11.4018      1.00000
     38     -11.0674      1.00000
     39     -10.8618      1.00000
     40     -10.7727      1.00000
     41     -10.7499      1.00000
     42     -10.6290      1.00000
     43     -10.2042      1.00000
     44     -10.1454      1.00000
     45      -9.9131      1.00000
     46      -9.7866      1.00000
     47      -9.7679      1.00000
     48      -9.7347      1.00000
     49      -9.5451      1.00000
     50      -9.5091      1.00000
     51      -9.3473      1.00000
     52      -9.2800      1.00000
     53      -9.0959      1.00000
     54      -8.0539      1.00000
     55      -7.8376      1.00000
     56      -7.7894      1.00000
     57      -7.7840      1.00000
     58      -7.5512      1.00000
     59      -7.4381      1.00000
     60      -7.2999      1.00000
     61      -7.1452      1.00000
     62      -7.1324      1.00000
     63      -6.9985      1.00000
     64      -6.9516      1.00000
     65      -3.6392      1.00000
     66      -0.8825      0.00000
     67      -0.8137      0.00000
     68      -0.7610      0.00000
     69      -0.4905      0.00000
     70      -0.2469      0.00000
     71      -0.1576      0.00000
     72      -0.1124      0.00000
     73      -0.0410      0.00000
     74       0.0028      0.00000
     75       0.0677      0.00000
     76       0.1625      0.00000
     77       0.2632      0.00000
     78       0.4037      0.00000
     79       0.5317      0.00000
     80       0.6187      0.00000
     81       0.7774      0.00000
     82       0.8428      0.00000
     83       0.8768      0.00000
     84       0.9402      0.00000
     85       1.2767      0.00000
     86       1.3080      0.00000
     87       1.3559      0.00000
     88       1.3789      0.00000
     89       1.4971      0.00000
     90       1.4984      0.00000
     91       1.5629      0.00000
     92       1.6142      0.00000
     93       1.6262      0.00000
     94       1.6271      0.00000
     95       1.6734      0.00000
     96       1.7472      0.00000
     97       1.7999      0.00000
     98       1.8457      0.00000
     99       1.8529      0.00000
    100       1.8767      0.00000

 k-point    11 :       0.3750    0.3750    0.0000
  band No.  band energies     occupation 
      1     -27.4875      1.00000
      2     -24.5379      1.00000
      3     -24.4385      1.00000
      4     -23.8550      1.00000
      5     -23.6142      1.00000
      6     -23.4683      1.00000
      7     -22.9874      1.00000
      8     -22.7897      1.00000
      9     -22.6133      1.00000
     10     -22.4373      1.00000
     11     -22.3743      1.00000
     12     -22.2101      1.00000
     13     -21.8208      1.00000
     14     -21.5307      1.00000
     15     -21.4815      1.00000
     16     -21.2465      1.00000
     17     -18.3782      1.00000
     18     -15.6428      1.00000
     19     -15.3026      1.00000
     20     -14.9688      1.00000
     21     -14.7936      1.00000
     22     -14.4522      1.00000
     23     -14.3681      1.00000
     24     -14.2579      1.00000
     25     -14.1218      1.00000
     26     -13.9204      1.00000
     27     -13.7001      1.00000
     28     -12.9295      1.00000
     29     -12.6801      1.00000
     30     -12.4494      1.00000
     31     -12.1108      1.00000
     32     -12.0395      1.00000
     33     -11.8939      1.00000
     34     -11.6835      1.00000
     35     -11.2463      1.00000
     36     -11.2000      1.00000
     37     -11.0255      1.00000
     38     -10.8997      1.00000
     39     -10.8824      1.00000
     40     -10.6430      1.00000
     41     -10.6019      1.00000
     42     -10.5117      1.00000
     43     -10.4506      1.00000
     44     -10.3445      1.00000
     45     -10.1586      1.00000
     46      -9.9279      1.00000
     47      -9.6489      1.00000
     48      -9.5297      1.00000
     49      -9.3495      1.00000
     50      -9.2804      1.00000
     51      -9.1114      1.00000
     52      -8.7778      1.00000
     53      -8.6221      1.00000
     54      -8.5210      1.00000
     55      -8.4228      1.00000
     56      -8.3185      1.00000
     57      -8.2253      1.00000
     58      -8.1489      1.00000
     59      -8.0383      1.00000
     60      -7.8382      1.00000
     61      -6.9862      1.00000
     62      -6.8156      1.00000
     63      -6.6992      1.00000
     64      -6.2716      1.00000
     65      -3.7222      1.00000
     66      -0.8796      0.00000
     67      -0.7573      0.00000
     68      -0.7332      0.00000
     69      -0.3061      0.00000
     70      -0.2987      0.00000
     71      -0.0745      0.00000
     72      -0.0520      0.00000
     73       0.2727      0.00000
     74       0.3779      0.00000
     75       0.3873      0.00000
     76       0.3908      0.00000
     77       0.4477      0.00000
     78       0.4485      0.00000
     79       0.4628      0.00000
     80       0.6304      0.00000
     81       0.6494      0.00000
     82       0.6961      0.00000
     83       0.7110      0.00000
     84       0.7134      0.00000
     85       0.8189      0.00000
     86       0.8207      0.00000
     87       0.8304      0.00000
     88       0.9477      0.00000
     89       0.9571      0.00000
     90       1.0676      0.00000
     91       1.3215      0.00000
     92       1.3245      0.00000
     93       1.4242      0.00000
     94       1.4976      0.00000
     95       1.4998      0.00000
     96       1.5629      0.00000
     97       1.7461      0.00000
     98       1.8924      0.00000
     99       1.8964      0.00000
    100       1.9263      0.00000

 k-point    12 :      -0.2500   -0.3750    0.0000
  band No.  band energies     occupation 
      1     -27.4875      1.00000
      2     -24.5379      1.00000
      3     -24.4385      1.00000
      4     -23.8550      1.00000
      5     -23.6143      1.00000
      6     -23.4683      1.00000
      7     -22.9874      1.00000
      8     -22.7897      1.00000
      9     -22.6133      1.00000
     10     -22.4373      1.00000
     11     -22.3743      1.00000
     12     -22.2101      1.00000
     13     -21.8208      1.00000
     14     -21.5307      1.00000
     15     -21.4814      1.00000
     16     -21.2465      1.00000
     17     -18.3782      1.00000
     18     -15.6428      1.00000
     19     -15.3025      1.00000
     20     -14.9688      1.00000
     21     -14.7936      1.00000
     22     -14.4521      1.00000
     23     -14.3681      1.00000
     24     -14.2579      1.00000
     25     -14.1218      1.00000
     26     -13.9204      1.00000
     27     -13.7002      1.00000
     28     -12.9295      1.00000
     29     -12.6801      1.00000
     30     -12.4494      1.00000
     31     -12.1108      1.00000
     32     -12.0395      1.00000
     33     -11.8939      1.00000
     34     -11.6835      1.00000
     35     -11.2462      1.00000
     36     -11.2000      1.00000
     37     -11.0255      1.00000
     38     -10.8998      1.00000
     39     -10.8824      1.00000
     40     -10.6430      1.00000
     41     -10.6019      1.00000
     42     -10.5117      1.00000
     43     -10.4506      1.00000
     44     -10.3445      1.00000
     45     -10.1587      1.00000
     46      -9.9279      1.00000
     47      -9.6490      1.00000
     48      -9.5297      1.00000
     49      -9.3495      1.00000
     50      -9.2803      1.00000
     51      -9.1114      1.00000
     52      -8.7778      1.00000
     53      -8.6221      1.00000
     54      -8.5210      1.00000
     55      -8.4228      1.00000
     56      -8.3185      1.00000
     57      -8.2253      1.00000
     58      -8.1488      1.00000
     59      -8.0383      1.00000
     60      -7.8382      1.00000
     61      -6.9863      1.00000
     62      -6.8156      1.00000
     63      -6.6992      1.00000
     64      -6.2716      1.00000
     65      -3.7222      1.00000
     66      -0.8796      0.00000
     67      -0.7573      0.00000
     68      -0.7332      0.00000
     69      -0.3061      0.00000
     70      -0.2988      0.00000
     71      -0.0745      0.00000
     72      -0.0520      0.00000
     73       0.2727      0.00000
     74       0.3779      0.00000
     75       0.3872      0.00000
     76       0.3908      0.00000
     77       0.4476      0.00000
     78       0.4485      0.00000
     79       0.4629      0.00000
     80       0.6304      0.00000
     81       0.6494      0.00000
     82       0.6961      0.00000
     83       0.7110      0.00000
     84       0.7134      0.00000
     85       0.8188      0.00000
     86       0.8208      0.00000
     87       0.8304      0.00000
     88       0.9477      0.00000
     89       0.9570      0.00000
     90       1.0676      0.00000
     91       1.3215      0.00000
     92       1.3245      0.00000
     93       1.4241      0.00000
     94       1.4975      0.00000
     95       1.4999      0.00000
     96       1.5629      0.00000
     97       1.7461      0.00000
     98       1.8925      0.00000
     99       1.8964      0.00000
    100       1.9263      0.00000

 k-point    13 :      -0.3750    0.3750    0.0000
  band No.  band energies     occupation 
      1     -27.4879      1.00000
      2     -24.5907      1.00000
      3     -24.1881      1.00000
[...]
  0.000   0.000   0.000  -2.406   0.000   0.000  -4.133   0.000
  0.000   0.000   0.000   0.000  -2.413   0.000   0.000  -4.152
  0.000   0.000  -4.152   0.000   0.000  -6.938   0.000   0.000
  0.000   0.000   0.000  -4.133   0.000   0.000  -6.898   0.000
  0.000   0.000   0.000   0.000  -4.152   0.000   0.000  -6.938
 total augmentation occupancy for first ion, spin component:           1
  4.498  -1.370   0.012   0.000   0.021  -0.005   0.000  -0.009
 -1.370   0.445  -0.005   0.000  -0.009   0.002   0.000   0.004
  0.012  -0.005   5.147   0.000   0.009  -1.598   0.000  -0.003
  0.000   0.000   0.000   1.690   0.000   0.000  -0.448   0.000
  0.021  -0.009   0.009   0.000   5.158  -0.003   0.000  -1.602
 -0.005   0.002  -1.598   0.000  -0.003   0.511   0.000   0.001
  0.000   0.000   0.000  -0.448   0.000   0.000   0.120   0.000
 -0.009   0.004  -0.003   0.000  -1.602   0.001   0.000   0.512
 total augmentation occupancy for first ion, spin component:           2
  0.000  -0.000   0.000   0.000   0.000  -0.000   0.000  -0.000
 -0.000   0.000  -0.000   0.000  -0.000   0.000   0.000   0.000
  0.000  -0.000   0.000   0.000  -0.000  -0.000   0.000   0.000
  0.000   0.000   0.000   0.000   0.000   0.000  -0.000   0.000
  0.000  -0.000  -0.000   0.000  -0.000   0.000   0.000   0.000
 -0.000   0.000  -0.000   0.000   0.000   0.000   0.000  -0.000
  0.000   0.000   0.000  -0.000   0.000   0.000   0.000   0.000
 -0.000   0.000   0.000   0.000   0.000  -0.000   0.000  -0.000


------------------------ aborting loop because EDIFF is reached ----------------------------------------


 


 total charge     
 
# of ion       s       p       d       tot
------------------------------------------
    1        0.744   1.399   0.000   2.143
    2        0.737   1.399   0.000   2.136
    3        0.737   1.399   0.000   2.136
    4        0.744   1.399   0.000   2.143
    5        0.738   1.377   0.000   2.115
    6        0.738   1.399   0.000   2.136
    7        0.738   1.399   0.000   2.136
    8        0.743   1.395   0.000   2.137
    9        0.743   1.394   0.000   2.137
   10        0.737   1.399   0.000   2.136
   11        0.737   1.399   0.000   2.136
   12        0.738   1.377   0.000   2.115
   13        0.743   1.394   0.000   2.137
   14        0.738   1.377   0.000   2.115
   15        0.744   1.399   0.000   2.143
   16        1.134   2.665   0.000   3.800
   17        1.236   2.813   0.000   4.049
   18        1.237   2.833   0.000   4.070
   19        1.235   2.813   0.000   4.049
   20        1.237   2.822   0.000   4.059
   21        1.236   2.813   0.000   4.049
   22        1.220   2.724   0.000   3.944
   23        1.220   2.724   0.000   3.944
   24        1.236   2.813   0.000   4.049
   25        1.237   2.822   0.000   4.060
   26        1.220   2.724   0.000   3.944
   27        1.237   2.832   0.000   4.069
   28        1.237   2.823   0.000   4.060
   29        1.237   2.823   0.000   4.061
   30        1.235   2.813   0.000   4.049
   31        1.236   2.814   0.000   4.049
   32        1.237   2.832   0.000   4.069
--------------------------------------------------
tot         31.967  68.407   0.000 100.374
 


 magnetization (x)
 
# of ion       s       p       d       tot
------------------------------------------
    1        0.000   0.000   0.000   0.000
    2        0.000  -0.000   0.000  -0.000
    3        0.000  -0.000   0.000  -0.000
    4        0.000  -0.000   0.000  -0.000
    5        0.000  -0.000   0.000   0.000
    6        0.000  -0.000   0.000  -0.000
    7        0.000  -0.000   0.000  -0.000
    8        0.000  -0.000   0.000  -0.000
    9        0.000  -0.000   0.000  -0.000
   10        0.000  -0.000   0.000  -0.000
   11        0.000  -0.000   0.000  -0.000
   12        0.000  -0.000   0.000  -0.000
   13        0.000  -0.000   0.000  -0.000
   14        0.000  -0.000   0.000  -0.000
   15        0.000   0.000   0.000   0.000
   16       -0.000  -0.000   0.000  -0.000
   17       -0.000   0.000   0.000   0.000
   18       -0.000  -0.000   0.000  -0.000
   19       -0.000  -0.000   0.000  -0.000
   20       -0.000  -0.000   0.000  -0.000
   21       -0.000  -0.000   0.000  -0.000
   22        0.000   0.000   0.000   0.000
   23        0.000  -0.000   0.000  -0.000
   24       -0.000  -0.000   0.000  -0.000
   25        0.000  -0.000   0.000  -0.000
   26        0.000   0.000   0.000   0.000
   27       -0.000  -0.000   0.000  -0.000
   28       -0.000   0.000   0.000   0.000
   29        0.000   0.000   0.000   0.000
   30       -0.000  -0.000   0.000  -0.000
   31       -0.000   0.000   0.000   0.000
   32        0.000   0.000   0.000   0.000
--------------------------------------------------
tot         -0.000  -0.000   0.000  -0.000
 
    CHARGE:  cpu time    3.4097: real time    2.6660
    FORLOC:  cpu time    0.2674: real time    0.1476
    FORNL :  cpu time   17.9705: real time    9.1183
    STRESS:  cpu time  423.5992: real time  383.5168
    FORCOR:  cpu time    2.3100: real time    2.3095
    FORHAR:  cpu time    0.2544: real time    0.2543
    MIXING:  cpu time    0.1157: real time    0.1158
    OFIELD:  cpu time    0.0001: real time    0.0001

  FORCE on cell =-STRESS in cart. coord.  units (eV):
  Direction    XX          YY          ZZ          XY          YZ          ZX
  --------------------------------------------------------------------------------------
  Alpha Z    30.07105    30.07105    30.07105
  Ewald   46699.63367 46699.62692-51165.20300    -0.00000     0.00000     0.00000
  Hartree 46454.32095 46454.31635-45957.25333     0.00021    -0.00000    -0.00000
  E(xc)    -525.20335  -525.20363  -528.08335    -0.00563    -0.00000     0.00000
  Local  -94534.38540-94534.37472 95443.09135     0.00339     0.00000     0.00000
  n-local  -245.86348  -245.86266  -260.84227     0.01740    -0.00000     0.00000
  augment    17.01853    17.01841    22.55302     0.00005     0.00000    -0.00000
  Kinetic  2086.74886  2086.74322  2415.26880    -0.20244     0.00000    -0.00000
  Fock        0.00000     0.00000     0.00000     0.00000     0.00000     0.00000
  -------------------------------------------------------------------------------------
  Total     -17.65916   -17.66505    -0.39773     0.00000     0.00000     0.00000
  in kB      -9.21376    -9.21683    -0.20752     0.00000     0.00000     0.00000
  external pressure =       -6.21 kB  Pullay stress =        0.00 kB


 VOLUME and BASIS-vectors are now :
 -----------------------------------------------------------------------------
  energy-cutoff  :      550.00
  volume of cell :     3070.74
      direct lattice vectors                 reciprocal lattice vectors
     5.024366704 -8.702497373  0.000000000     0.099515029 -0.057454772  0.000000000
     5.024366704  8.702497373  0.000000000     0.099515029  0.057454772  0.000000000
     0.000000000  0.000000000 35.114664386     0.000000000  0.000000000  0.028478131

  length of vectors
    10.048767154 10.048767154 35.114664386     0.114909929  0.114909929  0.028478131


 FORCES acting on ions
    electron-ion (+dipol)            ewald-force                    non-local-force                 convergence-correction
 -----------------------------------------------------------------------------------------------
   0.316E+01 0.182E+01 -.176E-07   -.315E+01 -.182E+01 0.710E-19   0.399E-01 0.232E-01 0.000E+00   -.237E-02 -.128E-02 -.599E-13
   0.139E+02 0.241E+01 -.193E-06   -.145E+02 -.180E+01 0.156E-18   0.768E+00 -.588E+00 0.000E+00   0.104E-02 -.627E-03 -.399E-13
   0.485E+01 -.132E+02 -.423E-07   -.570E+01 0.135E+02 0.147E-18   0.893E+00 -.371E+00 0.000E+00   0.113E-02 -.616E-03 -.989E-12
   0.129E-03 -.365E+01 -.324E-09   -.168E-10 0.364E+01 0.598E-20   0.867E-18 -.460E-01 0.000E+00   -.312E-07 0.270E-02 -.100E-11
   0.190E+01 -.110E+01 0.147E-07   -.173E+01 0.999E+00 -.427E-18   -.172E+00 0.995E-01 0.000E+00   0.801E-03 -.588E-03 -.921E-12
   0.903E+01 0.108E+02 -.168E-06   -.882E+01 -.117E+02 0.516E-19   -.126E+00 0.959E+00 0.000E+00   -.103E-03 0.128E-02 0.283E-12
   -.485E+01 -.132E+02 0.419E-07   0.570E+01 0.135E+02 -.623E-18   -.893E+00 -.371E+00 0.000E+00   -.113E-02 -.616E-03 -.125E-11
   -.275E+01 -.159E+01 -.168E-08   0.283E+01 0.163E+01 -.516E-18   -.108E+00 -.623E-01 0.000E+00   0.279E-02 0.156E-02 -.120E-11
   0.136E-03 0.318E+01 -.216E-09   0.404E-11 -.326E+01 0.988E-19   0.000E+00 0.124E+00 0.000E+00   -.471E-07 -.329E-02 -.579E-12
   -.903E+01 0.108E+02 0.168E-06   0.882E+01 -.117E+02 0.281E-18   0.126E+00 0.959E+00 0.000E+00   0.103E-03 0.128E-02 -.194E-12
   -.139E+02 0.241E+01 0.192E-06   0.145E+02 -.180E+01 -.228E-18   -.768E+00 -.588E+00 0.000E+00   -.104E-02 -.627E-03 -.790E-12
   0.154E-03 0.220E+01 0.338E-09   -.462E-11 -.200E+01 0.638E-19   -.173E-17 -.199E+00 0.000E+00   -.135E-07 0.104E-02 -.500E-12
   0.275E+01 -.159E+01 0.174E-08   -.283E+01 0.163E+01 0.228E-18   0.108E+00 -.623E-01 0.000E+00   -.279E-02 0.156E-02 -.157E-11
   -.190E+01 -.110E+01 -.155E-07   0.173E+01 0.999E+00 0.517E-18   0.172E+00 0.995E-01 0.000E+00   -.801E-03 -.588E-03 -.155E-11
   -.316E+01 0.182E+01 0.175E-07   0.315E+01 -.182E+01 0.381E-18   -.399E-01 0.232E-01 0.000E+00   0.237E-02 -.128E-02 -.369E-13
   -.257E-02 0.225E-02 -.615E-10   0.388E-12 -.232E-02 -.272E-18   0.000E+00 0.494E-03 0.000E+00   -.225E-07 0.375E-04 0.205E-11
   0.728E+01 0.194E+00 -.439E-06   -.758E+01 -.263E+00 0.962E-19   0.412E+00 0.672E-01 0.000E+00   0.842E-03 0.183E-03 0.818E-13
   0.146E+02 -.841E+01 0.140E-06   -.154E+02 0.888E+01 0.460E-18   0.971E+00 -.560E+00 0.000E+00   0.679E-03 -.650E-03 -.139E-11
   0.347E+01 -.640E+01 -.201E-06   -.356E+01 0.669E+01 0.517E-18   0.148E+00 -.390E+00 0.000E+00   0.152E-03 -.840E-03 -.238E-11
   -.305E-02 0.126E-02 -.717E-11   -.380E-11 -.167E-02 0.274E-18   0.000E+00 0.867E-04 0.000E+00   -.246E-06 0.210E-03 0.264E-13
   0.380E+01 0.621E+01 -.479E-07   -.401E+01 -.643E+01 -.275E-18   0.264E+00 0.324E+00 0.000E+00   0.250E-03 0.763E-03 -.239E-12
   0.561E+02 0.324E+02 -.518E-06   -.654E+02 -.378E+02 0.613E-19   0.952E+01 0.549E+01 0.000E+00   0.779E-04 0.632E-03 0.177E-11
   -.322E-02 -.648E+02 -.369E-10   0.159E-10 0.755E+02 -.390E-18   0.000E+00 -.110E+02 0.000E+00   -.538E-07 -.383E-04 -.747E-12
   -.348E+01 -.640E+01 0.201E-06   0.356E+01 0.669E+01 -.790E-18   -.148E+00 -.390E+00 0.000E+00   -.152E-03 -.840E-03 -.403E-11
   -.405E+00 0.232E+00 0.466E-07   0.466E+00 -.268E+00 -.559E-18   -.803E-01 0.463E-01 0.000E+00   0.667E-02 -.437E-02 -.801E-12
   -.561E+02 0.324E+02 0.518E-06   0.654E+02 -.378E+02 -.125E-18   -.952E+01 0.549E+01 0.000E+00   -.780E-04 0.632E-03 0.935E-12
   -.146E+02 -.841E+01 -.140E-06   0.154E+02 0.888E+01 -.941E-18   -.971E+00 -.560E+00 0.000E+00   -.679E-03 -.650E-03 -.245E-11
   -.303E-02 -.462E+00 0.429E-10   -.220E-11 0.535E+00 -.180E-18   0.000E+00 -.921E-01 0.000E+00   -.168E-06 0.775E-02 -.232E-11
   0.399E+00 0.232E+00 -.466E-07   -.466E+00 -.268E+00 0.739E-18   0.803E-01 0.463E-01 0.000E+00   -.667E-02 -.437E-02 -.354E-11
   -.381E+01 0.621E+01 0.479E-07   0.401E+01 -.643E+01 0.852E-18   -.264E+00 0.324E+00 0.000E+00   -.249E-03 0.763E-03 -.639E-12
   -.728E+01 0.194E+00 0.439E-06   0.758E+01 -.263E+00 0.435E-19   -.412E+00 0.672E-01 0.000E+00   -.842E-03 0.183E-03 -.165E-11
   -.310E-02 0.168E+02 -.921E-10   0.346E-11 -.178E+02 0.283E-18   0.000E+00 0.112E+01 0.000E+00   0.771E-07 0.847E-03 0.477E-12
 -----------------------------------------------------------------------------------------------
   -.489E-01 -.242E-02 -.111E-07   -.308E-14 -.174E-12 0.000E+00   -.389E-15 0.179E-02 0.000E+00   0.543E-08 0.146E-03 -.252E-10
 
 
 POSITION                                       TOTAL-FORCE (eV/Angst)
 -----------------------------------------------------------------------------------
      1.25632     -0.72508     17.55733         0.003198      0.002011      0.000000
      2.52427      1.45699     17.55733        -0.001661      0.000929      0.000000
      3.76865      3.61228     17.55733        -0.001834      0.000943      0.000000
      5.02437      5.80139     17.55733         0.000000     -0.003675      0.000000
      2.51189     -2.90067     17.55733        -0.000650      0.000496      0.000000
      3.78000     -0.71802     17.55733        -0.000092     -0.001720      0.000000
      6.28010      3.61228     17.55733         0.001834      0.000943      0.000000
      3.76818     -5.07651     17.55733        -0.003039     -0.001994      0.000000
      5.02437     -2.90069     17.55733         0.000000      0.002982      0.000000
      6.26874     -0.71802     17.55733         0.000092     -0.001720      0.000000
      7.52447      1.45699     17.55733         0.001661      0.000929      0.000000
      5.02437     -7.25241     17.55733         0.000000     -0.000830      0.000000
      6.28056     -5.07651     17.55733         0.003039     -0.001994      0.000000
      7.53685     -2.90067     17.55733         0.000650      0.000496      0.000000
      8.79242     -0.72508     17.55733        -0.003198      0.002011      0.000000
      5.02437      1.45040     17.55733         0.000000      0.000443      0.000000
      1.26548      0.72342     17.55733        -0.005855     -0.003746      0.000000
      2.51021      2.90197     17.55733        -0.007446      0.004427      0.000000
      3.77452      5.06921     17.55733         0.000323      0.007050      0.000000
      5.02437      7.25208     17.55733        -0.000000     -0.000125      0.000000
      2.51533     -1.44141     17.55733        -0.005826     -0.003214      0.000000
      3.78312      0.73379     17.55733         0.000266     -0.000434      0.000000
      5.02437      2.88366     17.55733         0.000000      0.000194      0.000000
      6.27422      5.06921     17.55733        -0.000323      0.007050      0.000000
      3.76731     -3.62547     17.55733         0.000936     -0.000333      0.000000
      6.26562      0.73379     17.55733        -0.000266     -0.000434      0.000000
      7.53853      2.90197     17.55733         0.007446      0.004427      0.000000
      5.02437     -5.80278     17.55733         0.000000      0.001111      0.000000
      6.28143     -3.62547     17.55733        -0.000936     -0.000333      0.000000
      7.53342     -1.44141     17.55733         0.005826     -0.003214      0.000000
      8.78327      0.72342     17.55733         0.005855     -0.003746      0.000000
      5.02437     -1.45267     17.55733        -0.000000     -0.008929      0.000000
 -----------------------------------------------------------------------------------
    total drift:                               -0.048933     -0.000483     -0.000000


--------------------------------------------------------------------------------------------------------



  FREE ENERGIE OF THE ION-ELECTRON SYSTEM (eV)
  ---------------------------------------------------
  free  energy   TOTEN  =      -308.06818917 eV

  energy  without entropy=     -308.06818917  energy(sigma->0) =     -308.06818917
 
 d Force = 0.5291506E-04[ 0.529E-05, 0.101E-03]  d Energy = 0.5393522E-04-0.102E-05
 d Force =-0.2491095E-01[-0.252E-01,-0.247E-01]  d Ewald  =-0.2491098E-01 0.250E-07


--------------------------------------------------------------------------------------------------------


    POTLOK:  cpu time   29.7942: real time   29.5815


--------------------------------------------------------------------------------------------------------




--------------------------------------------------------------------------------------------------------


  
 reached required accuracy - stopping structural energy minimisation
 writing wavefunctions
     LOOP+:  cpu time 1386.8008: real time 1022.0315
    4ORBIT:  cpu time    0.0000: real time    0.0000
 


 total charge     
 
# of ion       s       p       d       tot
------------------------------------------
    1        0.744   1.399   0.000   2.143
    2        0.737   1.399   0.000   2.136
    3        0.737   1.399   0.000   2.136
    4        0.744   1.399   0.000   2.143
    5        0.738   1.377   0.000   2.115
    6        0.738   1.399   0.000   2.136
    7        0.738   1.399   0.000   2.136
    8        0.743   1.395   0.000   2.137
    9        0.743   1.394   0.000   2.137
   10        0.737   1.399   0.000   2.136
   11        0.737   1.399   0.000   2.136
   12        0.738   1.377   0.000   2.115
   13        0.743   1.394   0.000   2.137
   14        0.738   1.377   0.000   2.115
   15        0.744   1.399   0.000   2.143
   16        1.134   2.665   0.000   3.800
   17        1.236   2.813   0.000   4.049
   18        1.237   2.833   0.000   4.070
   19        1.235   2.813   0.000   4.049
   20        1.237   2.822   0.000   4.059
   21        1.236   2.813   0.000   4.049
   22        1.220   2.724   0.000   3.944
   23        1.220   2.724   0.000   3.944
   24        1.236   2.813   0.000   4.049
   25        1.237   2.822   0.000   4.060
   26        1.220   2.724   0.000   3.944
   27        1.237   2.832   0.000   4.069
   28        1.237   2.823   0.000   4.060
   29        1.237   2.823   0.000   4.061
   30        1.235   2.813   0.000   4.049
   31        1.236   2.814   0.000   4.049
   32        1.237   2.832   0.000   4.069
--------------------------------------------------
tot         31.967  68.407   0.000 100.374
 


 magnetization (x)
 
# of ion       s       p       d       tot
------------------------------------------
    1        0.000   0.000   0.000   0.000
    2        0.000  -0.000   0.000  -0.000
    3        0.000  -0.000   0.000  -0.000
    4        0.000  -0.000   0.000  -0.000
    5        0.000  -0.000   0.000   0.000
    6        0.000  -0.000   0.000  -0.000
    7        0.000  -0.000   0.000  -0.000
    8        0.000  -0.000   0.000  -0.000
    9        0.000  -0.000   0.000  -0.000
   10        0.000  -0.000   0.000  -0.000
   11        0.000  -0.000   0.000  -0.000
   12        0.000  -0.000   0.000  -0.000
   13        0.000  -0.000   0.000  -0.000
   14        0.000  -0.000   0.000  -0.000
   15        0.000   0.000   0.000   0.000
   16       -0.000  -0.000   0.000  -0.000
   17       -0.000   0.000   0.000   0.000
   18       -0.000  -0.000   0.000  -0.000
   19       -0.000  -0.000   0.000  -0.000
   20       -0.000  -0.000   0.000  -0.000
   21       -0.000  -0.000   0.000  -0.000
   22        0.000   0.000   0.000   0.000
   23        0.000  -0.000   0.000  -0.000
   24       -0.000  -0.000   0.000  -0.000
   25        0.000  -0.000   0.000  -0.000
   26        0.000   0.000   0.000   0.000
   27       -0.000  -0.000   0.000  -0.000
   28       -0.000   0.000   0.000   0.000
   29        0.000   0.000   0.000   0.000
   30       -0.000  -0.000   0.000  -0.000
   31       -0.000   0.000   0.000   0.000
   32        0.000   0.000   0.000   0.000
--------------------------------------------------
tot         -0.000  -0.000   0.000  -0.000
 

 total amount of memory used by VASP MPI-rank0   335857. kBytes
=======================================================================

   base      :      30000. kBytes
   nonlr-proj:       5780. kBytes
   fftplans  :      29100. kBytes
   grid      :     101821. kBytes
   one-center:         36. kBytes
   wavefun   :     169120. kBytes
 
  
  
 General timing and accounting informations for this job:
 ========================================================
  
                  Total CPU time used (sec):     3933.284
                            User time (sec):     3624.341
                          System time (sec):      308.942
                         Elapsed time (sec):     2914.733
  
                   Maximum memory used (kb):     1166428.
                   Average memory used (kb):           0.
  
                          Minor page faults:      4073806
                          Major page faults:           23
                 Voluntary context switches:        23994
