 vasp.5.4.4.18Apr17-6-g9f103f2a35 (build May 01 2020 14:57:12) complex          
  
 executed on             LinuxIFC date 2021.03.16  14:51:17
 running on   48 total cores
 distrk:  each k-point on   12 cores,    4 groups
 distr:  one band on NCORES_PER_BAND=   1 cores,   12 groups


--------------------------------------------------------------------------------------------------------


 INCAR:
 POTCAR:    PAW_PBE B 06Sep2000                   
 POTCAR:    PAW_PBE N 08Apr2002                   
 POTCAR:    PAW_PBE C 08Apr2002                   
 POTCAR:    PAW_PBE F 08Apr2002                   
 POTCAR:    PAW_PBE O 08Apr2002                   

 ----------------------------------------------------------------------------- 
|                                                                             |
|           W    W    AA    RRRRR   N    N  II  N    N   GGGG   !!!           |
|           W    W   A  A   R    R  NN   N  II  NN   N  G    G  !!!           |
|           W    W  A    A  R    R  N N  N  II  N N  N  G       !!!           |
|           W WW W  AAAAAA  RRRRR   N  N N  II  N  N N  G  GGG   !            |
|           WW  WW  A    A  R   R   N   NN  II  N   NN  G    G                |
|           W    W  A    A  R    R  N    N  II  N    N   GGGG   !!!           |
|                                                                             |
|      For optimal performance we recommend to set                            |
|        NCORE= 4 - approx SQRT( number of cores)                             |
|      NCORE specifies how many cores store one orbital (NPAR=cpu/NCORE).     |
|      This setting can  greatly improve the performance of VASP for DFT.     |
|      The default,   NCORE=1            might be grossly inefficient         |
|      on modern multi-core architectures or massively parallel machines.     |
|      Do your own testing !!!!                                               |
|      Unfortunately you need to use the default for GW and RPA calculations. |
|      (for HF NCORE is supported but not extensively tested yet)             |
|                                                                             |
 ----------------------------------------------------------------------------- 


 ----------------------------------------------------------------------------- 
|                                                                             |
|           W    W    AA    RRRRR   N    N  II  N    N   GGGG   !!!           |
|           W    W   A  A   R    R  NN   N  II  NN   N  G    G  !!!           |
|           W    W  A    A  R    R  N N  N  II  N N  N  G       !!!           |
|           W WW W  AAAAAA  RRRRR   N  N N  II  N  N N  G  GGG   !            |
|           WW  WW  A    A  R   R   N   NN  II  N   NN  G    G                |
|           W    W  A    A  R    R  N    N  II  N    N   GGGG   !!!           |
|                                                                             |
|      You have enabled k-point parallelism (KPAR>1).                         |
|      This developmental code was originally  written by Paul Kent at ORNL,  |
|      and carefully double checked in Vienna.                                |
|      GW as well as linear response parallelism added by Martijn Marsman     |
|      and Georg Kresse.                                                      |
|      Carefully verify results versus KPAR=1.                                |
|      Report problems to Paul Kent and Vienna.                               |
|                                                                             |
 ----------------------------------------------------------------------------- 

 POTCAR:    PAW_PBE B 06Sep2000                   
   VRHFIN =B: s2p1                                                              
   LEXCH  = PE                                                                  
   EATOM  =    71.1703 eV,    5.2309 Ry                                         
                                                                                
   TITEL  = PAW_PBE B 06Sep2000                                                 
   LULTRA =        F    use ultrasoft PP ?                                      
   IUNSCR =        1    unscreen: 0-lin 1-nonlin 2-no                           
   RPACOR =    1.200    partial core radius                                     
   POMASS =   10.811; ZVAL   =    3.000    mass and valenz                      
   RCORE  =    1.700    outmost cutoff radius                                   
   RWIGS  =    1.710; RWIGS  =    0.905    wigner-seitz radius (au A)           
   ENMAX  =  318.614; ENMIN  =  238.960 eV                                      
   ICORE  =        2    local potential                                         
   LCOR   =        T    correct aug charges                                     
   LPAW   =        T    paw PP                                                  
   EAUG   =  535.514                                                            
   DEXC   =    0.000                                                            
   RMAX   =    1.732    core radius for proj-oper                               
   RAUG   =    1.300    factor for augmentation sphere                          
   RDEP   =    1.757    radius for radial grids                                 
   RDEPT  =    1.436    core radius for aug-charge                              
                                                                                
   Atomic configuration                                                         
    4 entries                                                                   
     n  l   j            E        occ.                                          
     1  0  0.50      -180.5896   2.0000                                         
     2  0  0.50        -9.4431   2.0000                                         
     2  1  0.50        -3.6068   1.0000                                         
     3  2  1.50        -4.0817   0.0000                                         
   Description                                                                  
     l       E           TYP  RCUT    TYP  RCUT                                 
     0     -9.4430752     23  1.500                                             
     0      0.8675899     23  1.500                                             
     1     -3.6067955     23  1.700                                             
     1      6.1086146     23  1.700                                             
     2     -4.0817478      7  1.700                                             
  local pseudopotential read in
  partial core-charges read in
  partial kinetic energy density read in
  atomic valenz-charges read in
  non local Contribution for L=           0  read in
    real space projection operators read in
  non local Contribution for L=           0  read in
    real space projection operators read in
  non local Contribution for L=           1  read in
    real space projection operators read in
  non local Contribution for L=           1  read in
    real space projection operators read in
    PAW grid and wavefunctions read in
 
   number of l-projection  operators is LMAX  =           4
   number of lm-projection operators is LMMAX =           8
 
 POTCAR:    PAW_PBE N 08Apr2002                   
   VRHFIN =N: s2p3                                                              
   LEXCH  = PE                                                                  
   EATOM  =   264.5486 eV,   19.4438 Ry                                         
                                                                                
   TITEL  = PAW_PBE N 08Apr2002                                                 
   LULTRA =        F    use ultrasoft PP ?                                      
   IUNSCR =        1    unscreen: 0-lin 1-nonlin 2-no                           
   RPACOR =    1.200    partial core radius                                     
   POMASS =   14.001; ZVAL   =    5.000    mass and valenz                      
   RCORE  =    1.500    outmost cutoff radius                                   
   RWIGS  =    1.400; RWIGS  =    0.741    wigner-seitz radius (au A)           
   ENMAX  =  400.000; ENMIN  =  300.000 eV                                      
   ICORE  =        2    local potential                                         
   LCOR   =        T    correct aug charges                                     
   LPAW   =        T    paw PP                                                  
   EAUG   =  627.112                                                            
   DEXC   =    0.000                                                            
   RMAX   =    1.529    core radius for proj-oper                               
   RAUG   =    1.300    factor for augmentation sphere                          
   RDEP   =    1.514    radius for radial grids                                 
   RDEPT  =    1.338    core radius for aug-charge                              
                                                                                
   Atomic configuration                                                         
    4 entries                                                                   
     n  l   j            E        occ.                                          
     1  0  0.50      -384.7179   2.0000                                         
     2  0  0.50       -18.5828   2.0000                                         
     2  1  0.50        -7.0898   3.0000                                         
     3  2  1.50        -6.8029   0.0000                                         
   Description                                                                  
     l       E           TYP  RCUT    TYP  RCUT                                 
     0    -18.5828119     23  1.200                                             
     0    -13.5018863     23  1.200                                             
     1     -7.0897853     23  1.500                                             
     1      9.5240782     23  1.500                                             
     2     -6.8029130      7  1.500                                             
  local pseudopotential read in
  partial core-charges read in
  partial kinetic energy density read in
  atomic valenz-charges read in
  non local Contribution for L=           0  read in
    real space projection operators read in
  non local Contribution for L=           0  read in
    real space projection operators read in
  non local Contribution for L=           1  read in
    real space projection operators read in
  non local Contribution for L=           1  read in
    real space projection operators read in
    PAW grid and wavefunctions read in
 
   number of l-projection  operators is LMAX  =           4
   number of lm-projection operators is LMMAX =           8
 
 POTCAR:    PAW_PBE C 08Apr2002                   
   VRHFIN =C: s2p2                                                              
   LEXCH  = PE                                                                  
   EATOM  =   147.1560 eV,   10.8157 Ry                                         
                                                                                
   TITEL  = PAW_PBE C 08Apr2002                                                 
   LULTRA =        F    use ultrasoft PP ?                                      
   IUNSCR =        1    unscreen: 0-lin 1-nonlin 2-no                           
   RPACOR =    1.200    partial core radius                                     
   POMASS =   12.011; ZVAL   =    4.000    mass and valenz                      
   RCORE  =    1.500    outmost cutoff radius                                   
   RWIGS  =    1.630; RWIGS  =    0.863    wigner-seitz radius (au A)           
   ENMAX  =  400.000; ENMIN  =  300.000 eV                                      
   ICORE  =        2    local potential                                         
   LCOR   =        T    correct aug charges                                     
   LPAW   =        T    paw PP                                                  
   EAUG   =  644.873                                                            
   DEXC   =    0.000                                                            
   RMAX   =    1.529    core radius for proj-oper                               
   RAUG   =    1.300    factor for augmentation sphere                          
   RDEP   =    1.501    radius for radial grids                                 
   RDEPT  =    1.300    core radius for aug-charge                              
                                                                                
   Atomic configuration                                                         
    4 entries                                                                   
     n  l   j            E        occ.                                          
     1  0  0.50      -273.3789   2.0000                                         
     2  0  0.50       -13.7508   2.0000                                         
     2  1  0.50        -5.2854   2.0000                                         
     3  2  1.50        -5.4423   0.0000                                         
   Description                                                                  
     l       E           TYP  RCUT    TYP  RCUT                                 
     0    -13.7508458     23  1.200                                             
     0     -8.2022199     23  1.200                                             
     1     -5.2854383     23  1.500                                             
     1     34.0145650     23  1.500                                             
     2     -5.4423304      7  1.500                                             
  local pseudopotential read in
  partial core-charges read in
  partial kinetic energy density read in
  atomic valenz-charges read in
  non local Contribution for L=           0  read in
    real space projection operators read in
  non local Contribution for L=           0  read in
    real space projection operators read in
  non local Contribution for L=           1  read in
    real space projection operators read in
  non local Contribution for L=           1  read in
    real space projection operators read in
    PAW grid and wavefunctions read in
 
   number of l-projection  operators is LMAX  =           4
   number of lm-projection operators is LMMAX =           8
 
 POTCAR:    PAW_PBE F 08Apr2002                   
   VRHFIN =F: s2p5                                                              
   LEXCH  = PE                                                                  
   EATOM  =   659.6475 eV,   48.4827 Ry                                         
                                                                                
   TITEL  = PAW_PBE F 08Apr2002                                                 
   LULTRA =        F    use ultrasoft PP ?                                      
   IUNSCR =        1    unscreen: 0-lin 1-nonlin 2-no                           
   RPACOR =    1.200    partial core radius                                     
   POMASS =   18.998; ZVAL   =    7.000    mass and valenz                      
   RCORE  =    1.520    outmost cutoff radius                                   
   RWIGS  =    1.500; RWIGS  =    0.794    wigner-seitz radius (au A)           
   ENMAX  =  400.000; ENMIN  =  300.000 eV                                      
   ICORE  =        2    local potential                                         
   LCOR   =        T    correct aug charges                                     
   LPAW   =        T    paw PP                                                  
   EAUG   =  613.614                                                            
   RMAX   =    1.555    core radius for proj-oper                               
   RAUG   =    1.300    factor for augmentation sphere                          
   RDEP   =    1.539    radius for radial grids                                 
   RDEPT  =    1.299    core radius for aug-charge                              
                                                                                
   Atomic configuration                                                         
    4 entries                                                                   
     n  l   j            E        occ.                                          
     1  0  0.50      -663.3661   2.0000                                         
     2  0  0.50       -29.8995   2.0000                                         
     2  1  0.50       -11.1114   5.0000                                         
     3  2  1.50       -10.8847   0.0000                                         
   Description                                                                  
     l       E           TYP  RCUT    TYP  RCUT                                 
     0    -29.8995018     23  1.200                                             
     0     -9.5240782     23  1.200                                             
     1    -11.1113914     23  1.520                                             
     1      1.3605826     23  1.520                                             
     2    -10.8846608      7  1.500                                             
  local pseudopotential read in
  partial core-charges read in
  partial kinetic energy density read in
  atomic valenz-charges read in
  non local Contribution for L=           0  read in
    real space projection operators read in
  non local Contribution for L=           0  read in
    real space projection operators read in
  non local Contribution for L=           1  read in
    real space projection operators read in
  non local Contribution for L=           1  read in
    real space projection operators read in
    PAW grid and wavefunctions read in
 
   number of l-projection  operators is LMAX  =           4
   number of lm-projection operators is LMMAX =           8
 
 POTCAR:    PAW_PBE O 08Apr2002                   
   VRHFIN =O: s2p4                                                              
   LEXCH  = PE                                                                  
   EATOM  =   432.3788 eV,   31.7789 Ry                                         
                                                                                
   TITEL  = PAW_PBE O 08Apr2002                                                 
   LULTRA =        F    use ultrasoft PP ?                                      
   IUNSCR =        1    unscreen: 0-lin 1-nonlin 2-no                           
   RPACOR =    1.200    partial core radius                                     
   POMASS =   16.000; ZVAL   =    6.000    mass and valenz                      
   RCORE  =    1.520    outmost cutoff radius                                   
   RWIGS  =    1.550; RWIGS  =    0.820    wigner-seitz radius (au A)           
   ENMAX  =  400.000; ENMIN  =  300.000 eV                                      
   ICORE  =        2    local potential                                         
   LCOR   =        T    correct aug charges                                     
   LPAW   =        T    paw PP                                                  
   EAUG   =  605.392                                                            
   DEXC   =    0.000                                                            
   RMAX   =    1.553    core radius for proj-oper                               
   RAUG   =    1.300    factor for augmentation sphere                          
   RDEP   =    1.550    radius for radial grids                                 
   RDEPT  =    1.329    core radius for aug-charge                              
                                                                                
   Atomic configuration                                                         
    4 entries                                                                   
     n  l   j            E        occ.                                          
     1  0  0.50      -514.6923   2.0000                                         
     2  0  0.50       -23.9615   2.0000                                         
     2  1  0.50        -9.0305   4.0000                                         
     3  2  1.50        -9.5241   0.0000                                         
   Description                                                                  
     l       E           TYP  RCUT    TYP  RCUT                                 
     0    -23.9615318     23  1.200                                             
     0     -9.5240782     23  1.200                                             
     1     -9.0304911     23  1.520                                             
     1      8.1634956     23  1.520                                             
     2     -9.5240782      7  1.500                                             
  local pseudopotential read in
  partial core-charges read in
  partial kinetic energy density read in
  kinetic energy density of atom read in
  atomic valenz-charges read in
  non local Contribution for L=           0  read in
    real space projection operators read in
  non local Contribution for L=           0  read in
    real space projection operators read in
  non local Contribution for L=           1  read in
    real space projection operators read in
  non local Contribution for L=           1  read in
    real space projection operators read in
    PAW grid and wavefunctions read in
 
   number of l-projection  operators is LMAX  =           4
   number of lm-projection operators is LMMAX =           8
 
 Optimization of the real space projectors (new method)

 maximal supplied QI-value         = 22.11
 optimisation between [QCUT,QGAM] = [ 11.94, 23.88] = [ 39.92,159.67] Ry 
 Optimized for a Real-space Cutoff    1.18 Angstroem

   l    n(q)    QCUT    max X(q) W(low)/X(q) W(high)/X(q)  e(spline) 
   0      8    11.939    53.033    0.11E-03    0.34E-03    0.60E-07
   0      8    11.939    34.740    0.11E-03    0.34E-03    0.59E-07
   1      8    11.939    30.949    0.22E-03    0.20E-03    0.17E-06
   1      8    11.939    19.518    0.20E-03    0.18E-03    0.16E-06
 Optimization of the real space projectors (new method)

 maximal supplied QI-value         = 25.13
 optimisation between [QCUT,QGAM] = [ 11.81, 23.88] = [ 39.08,159.64] Ry 
 Optimized for a Real-space Cutoff    1.41 Angstroem

   l    n(q)    QCUT    max X(q) W(low)/X(q) W(high)/X(q)  e(spline) 
   0     10    11.813    79.467    0.48E-04    0.30E-04    0.67E-06
   0     10    11.813    66.151    0.47E-04    0.30E-04    0.67E-06
   1     10    11.813    20.169    0.11E-03    0.17E-03    0.11E-05
   1     10    11.813    14.454    0.11E-03    0.17E-03    0.11E-05
 Optimization of the real space projectors (new method)

 maximal supplied QI-value         = 25.13
 optimisation between [QCUT,QGAM] = [ 11.81, 23.88] = [ 39.08,159.64] Ry 
 Optimized for a Real-space Cutoff    1.18 Angstroem

   l    n(q)    QCUT    max X(q) W(low)/X(q) W(high)/X(q)  e(spline) 
   0      8    11.813   115.676    0.10E-03    0.16E-03    0.35E-06
   0      8    11.813    87.132    0.10E-03    0.16E-03    0.35E-06
   1      8    11.813     4.429    0.16E-03    0.13E-04    0.22E-06
   1      8    11.813     2.733    0.13E-03    0.10E-04    0.18E-06
 Optimization of the real space projectors (new method)

 maximal supplied QI-value         = 24.76
 optimisation between [QCUT,QGAM] = [ 11.88, 24.01] = [ 39.54,161.47] Ry 
 Optimized for a Real-space Cutoff    1.18 Angstroem

   l    n(q)    QCUT    max X(q) W(low)/X(q) W(high)/X(q)  e(spline) 
   0      8    11.883    14.049    0.56E-04    0.86E-04    0.22E-06
   0      8    11.883     8.945    0.81E-04    0.11E-03    0.30E-06
   1      8    11.883     7.086    0.16E-03    0.15E-04    0.31E-06
   1      8    11.883     6.747    0.15E-03    0.14E-04    0.28E-06
 Optimization of the real space projectors (new method)

 maximal supplied QI-value         = 24.76
 optimisation between [QCUT,QGAM] = [ 11.88, 24.01] = [ 39.54,161.47] Ry 
 Optimized for a Real-space Cutoff    1.18 Angstroem

   l    n(q)    QCUT    max X(q) W(low)/X(q) W(high)/X(q)  e(spline) 
   0      8    11.883    20.381    0.86E-04    0.11E-03    0.31E-06
   0      8    11.883    15.268    0.94E-04    0.12E-03    0.33E-06
   1      8    11.883     5.964    0.19E-03    0.18E-04    0.33E-06
   1      8    11.883     5.382    0.17E-03    0.20E-04    0.29E-06
  PAW_PBE B 06Sep2000                   :
 energy of atom  1       EATOM=  -71.1703
 kinetic energy error for atom=    0.0009 (will be added to EATOM!!)
  PAW_PBE N 08Apr2002                   :
 energy of atom  2       EATOM= -264.5486
 kinetic energy error for atom=    0.0116 (will be added to EATOM!!)
  PAW_PBE C 08Apr2002                   :
 energy of atom  3       EATOM= -147.1560
 kinetic energy error for atom=    0.0066 (will be added to EATOM!!)
  PAW_PBE F 08Apr2002                   :
 energy of atom  4       EATOM= -659.6475
 kinetic energy error for atom=    0.0296 (will be added to EATOM!!)
  PAW_PBE O 08Apr2002                   :
 energy of atom  5       EATOM= -432.3788
 kinetic energy error for atom=    0.0194 (will be added to EATOM!!)
 
 
 POSCAR: B N C F O                               
  positions in direct lattice
  velocities in cartesian coordinates

 METAGGA = SCAN     LMAXTAU =  6    LMIXTAU =  F

 exchange correlation table for  LEXCH =        8
   RHO(1)=    0.500       N(1)  =     2000
   RHO(2)=  100.500       N(2)  =     4000
 


--------------------------------------------------------------------------------------------------------


 ion  position               nearest neighbor table
   1  0.111  0.056  0.500-  37 1.45  42 1.45  43 1.45
   2  0.111  0.222  0.500-  38 1.45  37 1.45  44 1.45
   3  0.111  0.389  0.500-  45 1.45  38 1.45  39 1.45
   4  0.111  0.556  0.500-  46 1.45  39 1.45  40 1.45
   5  0.111  0.722  0.500-  40 1.45  47 1.45  41 1.45
   6  0.111  0.889  0.500-  42 1.45  41 1.45  48 1.45
   7  0.278  0.056  0.500-  48 1.45  49 1.45  43 1.45
   8  0.278  0.222  0.500-  43 1.45  44 1.45  50 1.45
   9  0.278  0.389  0.500-  45 1.45  51 1.45  44 1.45
  10  0.278  0.556  0.500-  45 1.45  52 1.45  46 1.45
  11  0.278  0.722  0.500-  46 1.45  53 1.45  47 1.45
  12  0.278  0.889  0.500-  47 1.45  54 1.45  48 1.45
  13  0.444  0.056  0.500-  54 1.45  55 1.45  49 1.45
  14  0.444  0.222  0.500-  56 1.45  49 1.45  50 1.45
  15  0.444  0.389  0.500-  51 1.45  57 1.45  50 1.45
  16  0.444  0.556  0.500-  52 1.45  58 1.45  51 1.45
  17  0.444  0.722  0.500-  52 1.45  59 1.45  53 1.45
  18  0.444  0.889  0.500-  53 1.45  60 1.45  54 1.45
  19  0.611  0.056  0.500-  60 1.45  61 1.45  55 1.45
  20  0.611  0.222  0.500-  62 1.45  55 1.45  56 1.45
  21  0.611  0.389  0.500-  57 1.45  63 1.45  56 1.45
  22  0.611  0.556  0.500-  58 1.45  57 1.45  64 1.45
  23  0.611  0.722  0.500-  58 1.45  59 1.45  65 1.45
  24  0.611  0.889  0.500-  59 1.45  66 1.45  60 1.45
  25  0.778  0.056  0.500-  67 1.45  66 1.45  61 1.45
  26  0.778  0.222  0.500-  68 1.45  61 1.45  62 1.45
  27  0.778  0.389  0.500-  63 1.45  69 1.45  62 1.45
  28  0.778  0.556  0.500-  64 1.45  63 1.45  70 1.45
  29  0.778  0.722  0.500-  64 1.45  65 1.45  71 1.45
  30  0.778  0.889  0.500-  65 1.45  66 1.45  72 1.45
  31  0.944  0.056  0.500-  67 1.45  37 1.45  72 1.45
  32  0.944  0.222  0.500-  38 1.45  67 1.45  68 1.45
  33  0.944  0.389  0.500-  39 1.45  68 1.45  69 1.45
  34  0.944  0.556  0.500-  69 1.45  40 1.45  70 1.45
  35  0.944  0.722  0.500-  70 1.45  71 1.45  41 1.45
  36  0.944  0.889  0.500-  71 1.45  72 1.45  42 1.45
  37  0.056  0.111  0.500-   1 1.45   2 1.45  31 1.45
  38  0.056  0.278  0.500-   2 1.45  32 1.45   3 1.45
  39  0.056  0.444  0.500-  33 1.45   4 1.45   3 1.45
  40  0.056  0.611  0.500-   5 1.45  34 1.45   4 1.45
  41  0.056  0.778  0.500-   6 1.45  35 1.45   5 1.45
  42  0.056  0.944  0.500-   1 1.45   6 1.45  36 1.45
  43  0.222  0.111  0.500-   8 1.45   7 1.45   1 1.45
  44  0.222  0.278  0.500-   8 1.45   2 1.45   9 1.45
  45  0.222  0.444  0.500-   9 1.45   3 1.45  10 1.45
  46  0.222  0.611  0.500-  11 1.45   4 1.45  10 1.45
  47  0.222  0.778  0.500-  12 1.45   5 1.45  11 1.45
  48  0.222  0.944  0.500-   7 1.45   6 1.45  12 1.45
  49  0.389  0.111  0.500-  14 1.45   7 1.45  13 1.45
  50  0.389  0.278  0.500-   8 1.45  14 1.45  15 1.45
  51  0.389  0.444  0.500-  15 1.45   9 1.45  16 1.45
  52  0.389  0.611  0.500-  17 1.45  16 1.45  10 1.45
  53  0.389  0.778  0.500-  18 1.45  11 1.45  17 1.45
  54  0.389  0.944  0.500-  13 1.45  12 1.45  18 1.45
  55  0.556  0.111  0.500-  13 1.45  20 1.45  19 1.45
  56  0.556  0.278  0.500-  14 1.45  20 1.45  21 1.45
  57  0.556  0.444  0.500-  15 1.45  21 1.45  22 1.45
  58  0.556  0.611  0.500-  22 1.45  23 1.45  16 1.45
  59  0.556  0.778  0.500-  24 1.45  23 1.45  17 1.45
  60  0.556  0.944  0.500-  19 1.45  18 1.45  24 1.45
  61  0.722  0.111  0.500-  19 1.45  26 1.45  25 1.45
  62  0.722  0.278  0.500-  20 1.45  26 1.45  27 1.45
  63  0.722  0.444  0.500-  27 1.45  28 1.45  21 1.45
  64  0.722  0.611  0.500-  29 1.45  28 1.45  22 1.45
  65  0.722  0.778  0.500-  30 1.45  29 1.45  23 1.45
  66  0.722  0.944  0.500-  25 1.45  30 1.45  24 1.45
  67  0.889  0.111  0.500-  25 1.45  31 1.45  32 1.45
  68  0.889  0.278  0.500-  26 1.45  32 1.45  33 1.45
  69  0.889  0.444  0.500-  34 1.45  27 1.45  33 1.45
  70  0.889  0.611  0.500-  35 1.45  34 1.45  28 1.45
  71  0.889  0.778  0.500-  36 1.45  35 1.45  29 1.45
  72  0.889  0.944  0.500-  36 1.45  31 1.45  30 1.45
  73  0.372  0.314  0.673-  76 1.34  78 1.34  77 1.35  74 1.54
  74  0.354  0.317  0.630-  80 1.37  79 1.37  73 1.54  75 1.55
  75  0.342  0.410  0.618-  82 1.25  81 1.25  74 1.55
  76  0.461  0.396  0.684-  73 1.34
  77  0.377  0.229  0.682-  73 1.35
  78  0.296  0.312  0.693-  73 1.34
  79  0.434  0.317  0.612-  74 1.37
  80  0.268  0.226  0.622-  74 1.37
  81  0.424  0.491  0.613-  75 1.25
  82  0.253  0.394  0.615-  75 1.25
 

IMPORTANT INFORMATION: All symmetrisations will be switched off!
NOSYMM: (Re-)initialisation of all symmetry stuff for point group C_1.

 
 
 KPOINTS: K-Point Grid                            

Automatic generation of k-mesh.
Space group operators:
 irot       det(A)        alpha          n_x          n_y          n_z        tau_x        tau_y        tau_z
    1     1.000000     0.000000     1.000000     0.000000     0.000000     0.000000     0.000000     0.000000
 
 Subroutine IBZKPT returns following result:
 ===========================================
 
 Found      5 irreducible k-points:
 
 Following reciprocal coordinates:
            Coordinates               Weight
  0.000000  0.000000  0.000000      1.000000
  0.333333  0.000000  0.000000      2.000000
  0.000000  0.333333  0.000000      2.000000
  0.333333  0.333333  0.000000      2.000000
 -0.333333  0.333333  0.000000      2.000000
 
 Following cartesian coordinates:
            Coordinates               Weight
  0.000000  0.000000  0.000000      1.000000
  0.022114 -0.012768  0.000000      2.000000
  0.022114  0.012768  0.000000      2.000000
  0.044229  0.000000  0.000000      2.000000
  0.000000  0.025535  0.000000      2.000000
 


--------------------------------------------------------------------------------------------------------




 Dimension of arrays:
   k-points           NKPTS =      5   k-points in BZ     NKDIM =      5   number of bands    NBANDS=    264
   number of dos      NEDOS =   1200   number of ions     NIONS =     82
   non local maximal  LDIM  =      4   non local SUM 2l+1 LMDIM =      8
   total plane-waves  NPLWV = ******
   max r-space proj   IRMAX =   6598   max aug-charges    IRDMAX=   8974
   dimension x,y,z NGX =   120 NGY =  120 NGZ =  270
   dimension x,y,z NGXF=   240 NGYF=  240 NGZF=  540
   support grid    NGXF=   240 NGYF=  240 NGZF=  540
   ions per type =              36  36   3   5   2
   NGX,Y,Z   is equivalent  to a cutoff of  13.24, 13.24, 12.78 a.u.
   NGXF,Y,Z  is equivalent  to a cutoff of  26.47, 26.47, 25.57 a.u.

 SYSTEM =  SiC                                     
 POSCAR =  B N C F O                               

 Startparameter for this run:
   NWRITE =      2    write-flag & timer
   PREC   = accura    normal or accurate (medium, high low for compatibility)
   ISTART =      0    job   : 0-new  1-cont  2-samecut
   ICHARG =      2    charge: 1-file 2-atom 10-const
   ISPIN  =      2    spin polarized calculation?
   LNONCOLLINEAR =      F non collinear calculations
   LSORBIT =      F    spin-orbit coupling
   INIWAV =      1    electr: 0-lowe 1-rand  2-diag
   LASPH  =      T    aspherical Exc in radial PAW
   METAGGA=      F    non-selfconsistent MetaGGA calc.

 Electronic Relaxation 1
   ENCUT  =  550.0 eV  40.42 Ry    6.36 a.u.  28.82 28.82 67.15*2*pi/ulx,y,z
   ENINI  =  550.0     initial cutoff
   ENAUG  =  644.9 eV  augmentation charge cutoff
   NELM   =    100;   NELMIN=  2; NELMDL= -5     # of ELM steps 
   EDIFF  = 0.1E-04   stopping-criterion for ELM
   LREAL  =      T    real-space projection
   NLSPLINE    = F    spline interpolate recip. space projectors
   LCOMPAT=      F    compatible to vasp.4.4
   GGA_COMPAT  = T    GGA compatible to vasp.4.4-vasp.4.6
   LMAXPAW     = -100 max onsite density
   LMAXMIX     =    2 max onsite mixed and CHGCAR
   VOSKOWN=      0    Vosko Wilk Nusair interpolation
   ROPT   =   -0.00025  -0.00025  -0.00025  -0.00025
   ROPT   =   -0.00025
 Ionic relaxation
   EDIFFG = -.2E-01   stopping-criterion for IOM
   NSW    =    500    number of steps for IOM
   NBLOCK =      1;   KBLOCK =    500    inner block; outer block 
   IBRION =      2    ionic relax: 0-MD 1-quasi-New 2-CG
   NFREE  =      1    steps in history (QN), initial steepest desc. (CG)
   ISIF   =      2    stress and relaxation
   IWAVPR =     11    prediction:  0-non 1-charg 2-wave 3-comb
   ISYM   =      0    0-nonsym 1-usesym 2-fastsym
   LCORR  =      T    Harris-Foulkes like correction to forces

   POTIM  = 0.5000    time-step for ionic-motion
   TEIN   =    0.0    initial temperature
   TEBEG  =    0.0;   TEEND  =   0.0 temperature during run
   SMASS  =  -3.00    Nose mass-parameter (am)
   estimated Nose-frequenzy (Omega)   =  0.10E-29 period in steps =****** mass=  -0.519E-26a.u.
   SCALEE = 1.0000    scale energy and forces
   NPACO  =    256;   APACO  = 16.0  distance and # of slots for P.C.
   PSTRESS=    0.0 pullay stress

  Mass of Ions in am
   POMASS =  10.81 14.00 12.01 19.00 16.00
  Ionic Valenz
   ZVAL   =   3.00  5.00  4.00  7.00  6.00
  Atomic Wigner-Seitz radii
   RWIGS  =  -1.00 -1.00 -1.00 -1.00 -1.00
  virtual crystal weights 
   VCA    =   1.00  1.00  1.00  1.00  1.00
   NELECT =     346.7000    total number of electrons
   NUPDOWN=      -1.0000    fix difference up-down

 DOS related values:
   EMIN   =  10.00;   EMAX   =-10.00  energy-range for DOS
   EFERMI =   0.00
   ISMEAR =     0;   SIGMA  =   0.05  broadening in eV -4-tet -1-fermi 0-gaus

 Electronic relaxation 2 (details)
   IALGO  =     68    algorithm
   LDIAG  =      T    sub-space diagonalisation (order eigenvalues)
   LSUBROT=      F    optimize rotation matrix (better conditioning)
   TURBO    =      0    0=normal 1=particle mesh
   IRESTART =      0    0=no restart 2=restart with 2 vectors
   NREBOOT  =      0    no. of reboots
   NMIN     =      0    reboot dimension
   EREF     =   0.00    reference energy to select bands
   IMIX   =      4    mixing-type and parameters
     AMIX     =   0.40;   BMIX     =  1.00
     AMIX_MAG =   1.60;   BMIX_MAG =  1.00
     AMIN     =   0.10
     WC   =   100.;   INIMIX=   1;  MIXPRE=   1;  MAXMIX= -45

 Intra band minimization:
   WEIMIN = 0.0010     energy-eigenvalue tresh-hold
   EBREAK =  0.95E-08  absolut break condition
   DEPER  =   0.30     relativ break condition  

   TIME   =   0.40     timestep for ELM

  volume/ion in A,a.u.               =      84.26       568.60
  Fermi-wavevector in a.u.,A,eV,Ry     =   0.603834  1.141080  4.960890  0.364615
  Thomas-Fermi vector in A             =   1.656962
 
 Write flags
   LWAVE        =      T    write WAVECAR
   LDOWNSAMPLE  =      F    k-point downsampling of WAVECAR
   LCHARG       =      F    write CHGCAR
   LVTOT        =      F    write LOCPOT, total local potential
   LVHAR        =      T    write LOCPOT, Hartree potential only
   LELF         =      F    write electronic localiz. function (ELF)
   LORBIT       =     11    0 simple, 1 ext, 2 COOP (PROOUT), +10 PAW based schemes


 Dipole corrections
   LMONO  =      F    monopole corrections only (constant potential shift)
   LDIPOL =      F    correct potential (dipole corrections)
   IDIPOL =      0    1-x, 2-y, 3-z, 4-all directions 
   EPSILON=  1.0000000 bulk dielectric constant

 Exchange correlation treatment:
   GGA     =    --    GGA type
   LEXCH   =     8    internal setting for exchange type
   VOSKOWN=      0    Vosko Wilk Nusair interpolation
   LHFCALC =     F    Hartree Fock is set to
   LHFONE  =     F    Hartree Fock one center treatment
   AEXX    =    0.0000 exact exchange contribution

 Linear response parameters
   LEPSILON=     F    determine dielectric tensor
   LRPA    =     F    only Hartree local field effects (RPA)
   LNABLA  =     F    use nabla operator in PAW spheres
   LVEL    =     F    velocity operator in full k-point grid
   LINTERFAST=   F  fast interpolation
   KINTER  =     0    interpolate to denser k-point grid
   CSHIFT  =0.1000    complex shift for real part using Kramers Kronig
   OMEGAMAX=  -1.0    maximum frequency
   DEG_THRESHOLD= 0.2000000E-02 threshold for treating states as degnerate
   RTIME   =   -0.100 relaxation time in fs
  (WPLASMAI=    0.000 imaginary part of plasma frequency in eV, 0.658/RTIME)
   DFIELD  = 0.0000000 0.0000000 0.0000000 field for delta impulse in time
 
 Orbital magnetization related:
   ORBITALMAG=     F  switch on orbital magnetization
   LCHIMAG   =     F  perturbation theory with respect to B field
   DQ        =  0.001000  dq finite difference perturbation B field
   LLRAUG    =     F  two centre corrections for induced B field

 Solvation model:
   LSOL    =     T         switch on solvation model
   EB_K    = 78.400000     relative permittivity of the bulk solvent
   SIGMA_K =  0.600000     width of the dielectric cavity
   NC_K    =  0.002500     cutoff charge density
   TAU     =  0.000000     cavity surface tension
   LAMBDA_D_K    =  3.040000     Debye length in Angstroms
   LRHOB     =     F     write boundcharge  density
   LRHOION     =     F     write ioniccharge density



--------------------------------------------------------------------------------------------------------


 conjugate gradient relaxation of ions
   using selective dynamics as specified on POSCAR
 charge density and potential will be updated during run
 spin polarized calculation
 RMM-DIIS sequential band-by-band and
  variant of blocked Davidson during initial phase
 perform sub-space diagonalisation
    before iterative eigenvector-optimisation
 modified Broyden-mixing scheme, WC =      100.0
 initial mixing is a Kerker type mixing with AMIX =  0.4000 and BMIX =      1.0000
 Hartree-type preconditioning will be used
 using additional bands           90
 real space projection scheme for non local part
 use partial core corrections
 calculate Harris-corrections to forces 
   (improved forces if not selfconsistent)
 use gradient corrections 
 use of overlap-Matrix (Vanderbilt PP)
 Gauss-broadening in eV      SIGMA  =   0.05


--------------------------------------------------------------------------------------------------------


  energy-cutoff  :      550.00
  volume of cell :     6909.18
      direct lattice vectors                 reciprocal lattice vectors
     7.536550057-13.053746059  0.000000000     0.066343353 -0.038303181  0.000000000
     7.536550057 13.053746059  0.000000000     0.066343353  0.038303181  0.000000000
     0.000000000  0.000000000 35.114664386     0.000000000  0.000000000  0.028478131

  length of vectors
    15.073150730 15.073150730 35.114664386     0.076606620  0.076606620  0.028478131


 
 k-points in units of 2pi/SCALE and weight: K-Point Grid                            
   0.00000000  0.00000000  0.00000000       0.111
   0.02211445 -0.01276773  0.00000000       0.222
   0.02211445  0.01276773  0.00000000       0.222
   0.04422890  0.00000000  0.00000000       0.222
   0.00000000  0.02553545  0.00000000       0.222
 
 k-points in reciprocal lattice and weights: K-Point Grid                            
   0.00000000  0.00000000  0.00000000       0.111
   0.33333333  0.00000000  0.00000000       0.222
   0.00000000  0.33333333  0.00000000       0.222
   0.33333333  0.33333333  0.00000000       0.222
  -0.33333333  0.33333333  0.00000000       0.222
 
 position of ions in fractional coordinates (direct lattice) 
   0.11110754  0.05555501  0.50000958
   0.11110740  0.22222331  0.49997531
   0.11111707  0.38889198  0.49993656
   0.11111440  0.55555401  0.49998128
   0.11111213  0.72222105  0.50001455
   0.11111105  0.88888907  0.50001906
   0.27777834  0.05555412  0.50001579
   0.27777250  0.22221854  0.49996277
   0.27777625  0.38890184  0.49987898
   0.27778008  0.55555146  0.49991479
   0.27777813  0.72221776  0.49999155
   0.27777789  0.88888711  0.50002156
   0.44444521  0.05555464  0.50002202
   0.44444586  0.22222121  0.50000325
   0.44444731  0.38890092  0.49991828
   0.44443874  0.55554990  0.49991197
   0.44444248  0.72221425  0.49996566
   0.44444403  0.88888491  0.50001208
   0.61111112  0.05555393  0.50001643
   0.61111168  0.22222218  0.50001698
   0.61110938  0.38889187  0.49999033
   0.61110456  0.55555602  0.49996196
   0.61110473  0.72221505  0.49997556
   0.61110922  0.88888418  0.50000616
   0.77777886  0.05555469  0.50001565
   0.77777929  0.22222310  0.50001484
   0.77777724  0.38889028  0.50001816
   0.77777438  0.55555533  0.50000611
   0.77777353  0.72221938  0.50000403
   0.77777521  0.88888524  0.50001531
   0.94444425  0.05555612  0.50001439
   0.94444741  0.22222344  0.49999734
   0.94444831  0.38889060  0.50000318
   0.94444479  0.55555557  0.50001709
   0.94444316  0.72222117  0.50001675
   0.94444339  0.88888814  0.50001977
   0.05555593  0.11111201  0.49999790
   0.05555616  0.27777788  0.49995902
   0.05555549  0.44444419  0.49996783
   0.05555615  0.61111066  0.50000571
   0.05555573  0.77777756  0.50001499
   0.05555539  0.94444448  0.50001552
   0.22222169  0.11111016  0.49999789
   0.22222442  0.27777922  0.49993686
   0.22221895  0.44444586  0.49985170
   0.22222307  0.61111046  0.49995446
   0.22222292  0.77777708  0.50001158
   0.22222271  0.94444423  0.50001837
   0.38888916  0.11111178  0.50001541
   0.38888566  0.27777870  0.49996643
   0.38887965  0.44443388  0.49984805
   0.38888901  0.61110852  0.49990499
   0.38888928  0.77777597  0.49998757
   0.38888947  0.94444405  0.50001995
   0.55555580  0.11111099  0.50001594
   0.55555366  0.27777753  0.50000363
   0.55555348  0.44444322  0.49994152
   0.55554995  0.61110729  0.49992901
   0.55555484  0.77777639  0.49997735
   0.55555564  0.94444356  0.50001055
   0.72222255  0.11111090  0.50001166
   0.72222187  0.27777766  0.50001570
   0.72222087  0.44444401  0.50000314
   0.72221930  0.61110970  0.49998600
   0.72221975  0.77777555  0.49999739
   0.72222193  0.94444355  0.50001239
   0.88888907  0.11111093  0.50000856
   0.88888958  0.27777785  0.50000277
   0.88888870  0.44444437  0.50001631
   0.88888802  0.61111063  0.50001406
   0.88888783  0.77777697  0.50001305
   0.88888840  0.94444396  0.50001847
   0.37249932  0.31361884  0.67311109
   0.35370486  0.31685019  0.63027780
   0.34249501  0.40960121  0.61792043
   0.46093932  0.39582025  0.68383255
   0.37732181  0.22924559  0.68191174
   0.29596482  0.31185208  0.69338405
   0.43386300  0.31736054  0.61183716
   0.26779644  0.22629392  0.62164487
   0.42446739  0.49117269  0.61255764
   0.25338009  0.39395050  0.61529110
 
 position of ions in cartesian coordinates  (Angst):
   1.25606060 -0.72516865 17.55766849
   2.51216359  1.45047891 17.55646536
   3.76834320  3.62600320 17.55510468
   5.02437984  5.80160180 17.55667500
   6.28045721  7.97726069 17.55784301
   7.53655094 10.15291672 17.55800154
   2.51217681 -2.90085857 17.55788653
   3.76820748 -0.72518726 17.55602498
   5.02445278  1.45060525 17.55308248
   6.28044490  3.62595701 17.55434009
   7.53651904  5.80160208 17.55703553
   8.79262924  7.97726457 17.55808935
   3.76827387 -5.07647882 17.55810554
   5.02436968 -2.90086417 17.55744623
   6.28057072 -0.72508847 17.55446246
   7.53646440  1.45041684 17.55424100
   8.79256680  3.62596219 17.55612653
  10.04870026  5.80161842 17.55775655
   5.02435452 -7.25210256 17.55790925
   6.28046237 -5.07646484 17.55792845
   7.53655946 -2.90077087 17.55699266
   8.79259585 -0.72511656 17.55599629
  10.04863126  1.45040584 17.55647386
  11.30477534  3.62600380 17.55754848
   6.28046006 -9.42773088 17.55788161
   7.53656808 -7.25208949 17.55785323
   8.79264815 -5.07643161 17.55796974
  10.04870612 -2.90079111 17.55754659
  11.30477164 -0.72518965 17.55747386
  12.56086987  1.45040207 17.55786981
   7.53655281-11.60331993 17.55783757
   8.79267332 -9.42772833 17.55723879
  10.04877546 -7.25210933 17.55744398
  11.30482781 -5.07646122 17.55793247
  12.56089921 -2.90082945 17.55792042
  13.81699485 -0.72520418 17.55802639
   1.25610129  0.72521506 17.55725860
   2.51218872  2.90082592 17.55589333
   3.76827261  5.07645427 17.55620247
   5.02436776  7.25206753 17.55753272
   6.28045806  9.42770036 17.55785871
   7.53654912 11.60333242 17.55787703
   2.51217218 -1.45042167 17.55725810
   3.76830247  0.72519824 17.55511517
   5.02435272  2.90089355 17.55212478
   6.28045981  5.07643725 17.55573301
   7.53655004  7.25206297 17.55773877
   8.79264373  9.42769631 17.55797712
   3.76828207 -3.62603538 17.55787346
   5.02434930 -1.45036211 17.55615345
   6.28030916  0.72519079 17.55199657
   7.53653141  2.90079699 17.55399579
   8.79263106  5.07642812 17.55689565
  10.04873483  7.25206837 17.55803281
   5.02436760 -5.80166970 17.55789187
   6.28044217 -3.62601909 17.55745962
   7.53652523 -1.45040514 17.55527854
   8.79257074  0.72523141 17.55483951
  10.04871756  2.90082378 17.55653675
  11.30481910  5.07644415 17.55770257
   6.28045930 -7.97729632 17.55774180
   7.53654655 -5.80166185 17.55788344
   8.79262829 -3.62602853 17.55744249
  10.04870081 -1.45039648 17.55684047
  11.30478966  0.72521133 17.55724041
  12.56090780  2.90082462 17.55776744
   7.53655005-10.15291824 17.55763278
   8.79264743 -7.97729731 17.55742958
  10.04873141 -5.80166336 17.55790495
  11.30481496 -3.62603555 17.55782578
  12.56090269 -1.45041287 17.55779060
  13.81700110  0.72520823 17.55798059
   5.17096385 -0.76861079 23.63607018
   5.05367170 -0.48109155 22.13199343
   5.66821082  0.87598737 21.69806841
   6.45701138 -0.85004774 24.01255046
   4.57142556 -1.93294937 23.94510191
   4.58084249  0.20738833 24.34794825
   5.66163381 -1.52079360 21.48445647
   3.72373673 -0.54176329 21.82885090
   6.90076731  0.87075398 21.50975578
   4.87863936  1.83497042 21.60574052
 


--------------------------------------------------------------------------------------------------------


 k-point  1 :   0.0000 0.0000 0.0000  plane waves:  202395
 k-point  2 :   0.3333 0.0000 0.0000  plane waves:  202358
 k-point  3 :   0.0000 0.3333 0.0000  plane waves:  202358
 k-point  4 :   0.3333 0.3333 0.0000  plane waves:  202335
 k-point  5 :  -0.3333 0.3333 0.0000  plane waves:  202358

 maximum and minimum number of plane-waves per node :    202395   202335

 maximum number of plane-waves:    202395
 maximum index in each direction: 
   IXMAX=   29   IYMAX=   28   IZMAX=   67
   IXMIN=  -29   IYMIN=  -29   IZMIN=  -67


 serial   3D FFT for wavefunctions
 parallel 3D FFT for charge:
    minimum data exchange during FFTs selected (reduces bandwidth)


 total amount of memory used by VASP MPI-rank0  1757881. kBytes
=======================================================================

   base      :      30000. kBytes
   nonlr-proj:      37393. kBytes
   fftplans  :     102830. kBytes
   grid      :     872370. kBytes
   one-center:        503. kBytes
   wavefun   :     714785. kBytes
 
     INWAV:  cpu time    0.0000: real time    0.0000
 Broyden mixing: mesh for mixing (old mesh)
   NGX = 57   NGY = 57   NGZ =135
  (NGX  =240   NGY  =240   NGZ  =540)
  gives a total of 438615 points

 initial charge density was supplied:
 charge density of overlapping atoms calculated
 number of electron     347.0000000 magnetization      82.0000000
 keeping initial charge density in first step


--------------------------------------------------------------------------------------------------------


 Maximum index for non-local projection operator         6375
 Maximum index for augmentation-charges          736 (set IRDMAX)


--------------------------------------------------------------------------------------------------------


 First call to EWALD:  gamma=   0.093
 Maximum number of real-space cells 4x 4x 2
 Maximum number of reciprocal cells 2x 2x 5

    FEWALD:  cpu time    0.0191: real time    0.0189


--------------------------------------- Iteration      1(   1)  ---------------------------------------


    POTLOK:  cpu time  129.3268: real time  129.5842
    SETDIJ:  cpu time    1.2068: real time    0.8209
     EDDAV:  cpu time  360.5074: real time  236.3438
       DOS:  cpu time    0.0935: real time    0.0914
    --------------------------------------------
      LOOP:  cpu time  491.1346: real time  366.8403

 eigenvalue-minimisations  :  6300
 total energy-change (2. order) : 0.3445752E+04  (-0.1184498E+05)
 number of electron     347.0000000 magnetization      82.0000000
 augmentation part      347.0000000 magnetization      82.0000000

 Free energy of the ion-electron system (eV)
  ---------------------------------------------------
  alpha Z        PSCENC =        92.14382556
  Ewald energy   TEWEN  =    110881.22190047
  -Hartree energ DENC   =   -123576.06008128
  -exchange      EXHF   =         0.00000000
  -V(xc)+E(xc)   XCENC  =      1477.58463827
  PAW double counting   =     12389.81687870   -12541.43845553
  entropy T*S    EENTRO =        -0.05041111
  eigenvalues    EBANDS =     -2357.89344429
  atomic energy  EATOM  =     16689.68470767
  Solvation  Ediel_sol  =       390.74239378
  ---------------------------------------------------
  free energy    TOTEN  =      3445.75195225 eV

  energy without entropy =     3445.80236336  energy(sigma->0) =     3445.77715780


--------------------------------------------------------------------------------------------------------




--------------------------------------- Iteration      1(   2)  ---------------------------------------


     EDDAV:  cpu time  435.1289: real time  283.1393
       DOS:  cpu time    0.0024: real time    0.0012
    --------------------------------------------
      LOOP:  cpu time  435.1313: real time  283.1405

 eigenvalue-minimisations  :  8460
 total energy-change (2. order) :-0.3392011E+04  (-0.3085091E+04)
 number of electron     347.0000000 magnetization      82.0000000
 augmentation part      347.0000000 magnetization      82.0000000

 Free energy of the ion-electron system (eV)
  ---------------------------------------------------
  alpha Z        PSCENC =        92.14382556
  Ewald energy   TEWEN  =    110881.22190047
  -Hartree energ DENC   =   -123576.06008128
  -exchange      EXHF   =         0.00000000
  -V(xc)+E(xc)   XCENC  =      1477.58463827
  PAW double counting   =     12389.81687870   -12541.43845553
  entropy T*S    EENTRO =        -0.00199015
  eigenvalues    EBANDS =     -5749.95289157
  atomic energy  EATOM  =     16689.68470767
  Solvation  Ediel_sol  =       390.74239378
  ---------------------------------------------------
  free energy    TOTEN  =        53.74092593 eV

  energy without entropy =       53.74291608  energy(sigma->0) =       53.74192101


--------------------------------------------------------------------------------------------------------




--------------------------------------- Iteration      1(   3)  ---------------------------------------


     EDDAV:  cpu time  377.6475: real time  247.0792
       DOS:  cpu time    0.0024: real time    0.0012
    --------------------------------------------
      LOOP:  cpu time  377.6499: real time  247.0804

 eigenvalue-minimisations  :  6828
 total energy-change (2. order) :-0.9170733E+03  (-0.9094755E+03)
 number of electron     347.0000000 magnetization      82.0000000
 augmentation part      347.0000000 magnetization      82.0000000

 Free energy of the ion-electron system (eV)
  ---------------------------------------------------
  alpha Z        PSCENC =        92.14382556
  Ewald energy   TEWEN  =    110881.22190047
  -Hartree energ DENC   =   -123576.06008128
  -exchange      EXHF   =         0.00000000
  -V(xc)+E(xc)   XCENC  =      1477.58463827
  PAW double counting   =     12389.81687870   -12541.43845553
  entropy T*S    EENTRO =        -0.01132121
  eigenvalues    EBANDS =     -6667.01686618
  atomic energy  EATOM  =     16689.68470767
  Solvation  Ediel_sol  =       390.74239378
  ---------------------------------------------------
  free energy    TOTEN  =      -863.33237974 eV

  energy without entropy =     -863.32105853  energy(sigma->0) =     -863.32671914


--------------------------------------------------------------------------------------------------------




--------------------------------------- Iteration      1(   4)  ---------------------------------------


     EDDAV:  cpu time  368.5151: real time  240.9556
       DOS:  cpu time    0.0023: real time    0.0011
    --------------------------------------------
      LOOP:  cpu time  368.5174: real time  240.9567

 eigenvalue-minimisations  :  6564
 total energy-change (2. order) :-0.4421173E+02  (-0.4382494E+02)
 number of electron     347.0000000 magnetization      82.0000000
 augmentation part      347.0000000 magnetization      82.0000000

 Free energy of the ion-electron system (eV)
  ---------------------------------------------------
  alpha Z        PSCENC =        92.14382556
  Ewald energy   TEWEN  =    110881.22190047
  -Hartree energ DENC   =   -123576.06008128
  -exchange      EXHF   =         0.00000000
  -V(xc)+E(xc)   XCENC  =      1477.58463827
  PAW double counting   =     12389.81687870   -12541.43845553
  entropy T*S    EENTRO =        -0.01229264
  eigenvalues    EBANDS =     -6711.22762250
  atomic energy  EATOM  =     16689.68470767
  Solvation  Ediel_sol  =       390.74239378
  ---------------------------------------------------
  free energy    TOTEN  =      -907.54410749 eV

  energy without entropy =     -907.53181485  energy(sigma->0) =     -907.53796117


--------------------------------------------------------------------------------------------------------




--------------------------------------- Iteration      1(   5)  ---------------------------------------


     EDDAV:  cpu time  369.2142: real time  241.7696
       DOS:  cpu time    0.0022: real time    0.0011
    CHARGE:  cpu time   40.2595: real time   39.0401
    MIXING:  cpu time    0.1592: real time    0.1696
    --------------------------------------------
      LOOP:  cpu time  409.6352: real time  280.9805

 eigenvalue-minimisations  :  6696
 total energy-change (2. order) :-0.9081115E+00  (-0.9059432E+00)
 number of electron     346.6999962 magnetization      77.9941997
 augmentation part       18.3757662 magnetization      77.4130939

 Broyden mixing:
  rms(total) = 0.65293E+01    rms(broyden)= 0.65283E+01
  rms(prec ) = 0.66247E+01
  weight for this iteration     100.00

 Free energy of the ion-electron system (eV)
  ---------------------------------------------------
  alpha Z        PSCENC =        92.14382556
  Ewald energy   TEWEN  =    110881.22190047
  -Hartree energ DENC   =   -123576.06008128
  -exchange      EXHF   =         0.00000000
  -V(xc)+E(xc)   XCENC  =      1477.58463827
  PAW double counting   =     12389.81687870   -12541.43845553
  entropy T*S    EENTRO =        -0.01229273
  eigenvalues    EBANDS =     -6712.13573386
  atomic energy  EATOM  =     16689.68470767
  Solvation  Ediel_sol  =       390.74239378
  ---------------------------------------------------
  free energy    TOTEN  =      -908.45221895 eV

  energy without entropy =     -908.43992622  energy(sigma->0) =     -908.44607258


--------------------------------------------------------------------------------------------------------




--------------------------------------- Iteration      1(   6)  ---------------------------------------


    POTLOK:  cpu time  122.0755: real time  122.3424
    SETDIJ:  cpu time    0.8299: real time    0.5252
    EDDIAG:  cpu time   59.1618: real time   58.1457
  RMM-DIIS:  cpu time  376.6538: real time  272.6789
    ORTHCH:  cpu time    2.9472: real time    1.4802
       DOS:  cpu time    0.0031: real time    0.0015
    CHARGE:  cpu time   40.2683: real time   39.0389
    MIXING:  cpu time    0.1648: real time    0.1656
    --------------------------------------------
      LOOP:  cpu time  602.1044: real time  494.3785

 eigenvalue-minimisations  :  5280
 total energy-change (2. order) : 0.2385132E+03  (-0.2741424E+02)
 number of electron     346.6999969 magnetization      73.3161490
 augmentation part       17.4133040 magnetization      71.0627631

 Broyden mixing:
  rms(total) = 0.33875E+01    rms(broyden)= 0.33871E+01
  rms(prec ) = 0.34317E+01
  weight for this iteration     100.00

 eigenvalues of (default mixing * dielectric matrix)
  average eigenvalue GAMMA=   1.0520
  1.0520

 Free energy of the ion-electron system (eV)
  ---------------------------------------------------
  alpha Z        PSCENC =        92.14382556
  Ewald energy   TEWEN  =    110881.22190047
  -Hartree energ DENC   =   -124206.03778347
  -exchange      EXHF   =         0.00000000
  -V(xc)+E(xc)   XCENC  =      1621.54591259
  PAW double counting   =     20253.45771465   -20412.11320436
  entropy T*S    EENTRO =        -0.01331915
  eigenvalues    EBANDS =     -5878.44836563
  atomic energy  EATOM  =     16689.68470767
  Solvation  Ediel_sol  =       288.61955738
  ---------------------------------------------------
  free energy    TOTEN  =      -669.93905428 eV

  energy without entropy =     -669.92573514  energy(sigma->0) =     -669.93239471


--------------------------------------------------------------------------------------------------------




--------------------------------------- Iteration      1(   7)  ---------------------------------------


    POTLOK:  cpu time  120.0948: real time  120.3607
    SETDIJ:  cpu time    0.6172: real time    0.4205
    EDDIAG:  cpu time   59.1681: real time   48.5728
  RMM-DIIS:  cpu time  376.9231: real time  272.7581
    ORTHCH:  cpu time    2.9359: real time    1.4735
       DOS:  cpu time    0.0030: real time    0.0015
    CHARGE:  cpu time   40.2957: real time   39.0956
    MIXING:  cpu time    0.1651: real time    0.1655
    --------------------------------------------
      LOOP:  cpu time  600.2029: real time  482.8482

 eigenvalue-minimisations  :  5280
 total energy-change (2. order) :-0.3737721E+02  (-0.7957612E+01)
 number of electron     346.6999971 magnetization      69.6046710
 augmentation part       16.2217639 magnetization      68.8034526

 Broyden mixing:
  rms(total) = 0.24176E+01    rms(broyden)= 0.24170E+01
  rms(prec ) = 0.24381E+01
  weight for this iteration     100.00

 eigenvalues of (default mixing * dielectric matrix)
  average eigenvalue GAMMA=   1.0492
  1.3199  0.7784

 Free energy of the ion-electron system (eV)
  ---------------------------------------------------
  alpha Z        PSCENC =        92.14382556
  Ewald energy   TEWEN  =    110881.22190047
  -Hartree energ DENC   =   -124631.37121931
  -exchange      EXHF   =         0.00000000
  -V(xc)+E(xc)   XCENC  =      1621.11946081
  PAW double counting   =     28787.50355247   -28951.70870018
  entropy T*S    EENTRO =        -0.01338753
  eigenvalues    EBANDS =     -5367.43893811
  atomic energy  EATOM  =     16689.68470767
  Solvation  Ediel_sol  =       171.54252930
  ---------------------------------------------------
  free energy    TOTEN  =      -707.31626885 eV

  energy without entropy =     -707.30288133  energy(sigma->0) =     -707.30957509


--------------------------------------------------------------------------------------------------------




--------------------------------------- Iteration      1(   8)  ---------------------------------------


    POTLOK:  cpu time  117.4942: real time  117.7537
    SETDIJ:  cpu time    0.6335: real time    0.4277
    EDDIAG:  cpu time   59.0384: real time   48.5132
  RMM-DIIS:  cpu time  377.0361: real time  272.8861
    ORTHCH:  cpu time    2.9305: real time    1.4707
       DOS:  cpu time    0.0024: real time    0.0012
    CHARGE:  cpu time   40.2822: real time   39.0522
    MIXING:  cpu time    0.1685: real time    0.1688
    --------------------------------------------
      LOOP:  cpu time  597.5857: real time  480.2737

 eigenvalue-minimisations  :  5280
 total energy-change (2. order) :-0.1284387E+01  (-0.1286443E+01)
 number of electron     346.6999974 magnetization      64.9373222
 augmentation part       16.2336277 magnetization      62.5296434

 Broyden mixing:
  rms(total) = 0.18602E+01    rms(broyden)= 0.18600E+01
  rms(prec ) = 0.18726E+01
  weight for this iteration     100.00

 eigenvalues of (default mixing * dielectric matrix)
  average eigenvalue GAMMA=   0.9984
  1.2318  1.1458  0.6175

 Free energy of the ion-electron system (eV)
  ---------------------------------------------------
  alpha Z        PSCENC =        92.14382556
  Ewald energy   TEWEN  =    110881.22190047
  -Hartree energ DENC   =   -124754.74155505
  -exchange      EXHF   =         0.00000000
  -V(xc)+E(xc)   XCENC  =      1623.99988111
  PAW double counting   =     33547.13481920   -33713.15151576
  entropy T*S    EENTRO =        -0.01554050
  eigenvalues    EBANDS =     -5185.11444913
  atomic energy  EATOM  =     16689.68470767
  Solvation  Ediel_sol  =       110.23727017
  ---------------------------------------------------
  free energy    TOTEN  =      -708.60065626 eV

  energy without entropy =     -708.58511577  energy(sigma->0) =     -708.59288602


--------------------------------------------------------------------------------------------------------




--------------------------------------- Iteration      1(   9)  ---------------------------------------


    POTLOK:  cpu time  119.1799: real time  119.4418
    SETDIJ:  cpu time    0.6216: real time    0.4249
    EDDIAG:  cpu time   59.1921: real time   48.6409
  RMM-DIIS:  cpu time  377.0962: real time  272.8930
    ORTHCH:  cpu time    2.9540: real time    1.4828
       DOS:  cpu time    0.0023: real time    0.0012
    CHARGE:  cpu time   40.2465: real time   39.0405
    MIXING:  cpu time    0.1654: real time    0.1657
    --------------------------------------------
      LOOP:  cpu time  599.4580: real time  482.0909

 eigenvalue-minimisations  :  5280
 total energy-change (2. order) :-0.2547092E+02  (-0.1416854E+01)
 number of electron     346.6999975 magnetization      58.0614693
 augmentation part       16.2362391 magnetization      55.8351515

 Broyden mixing:
  rms(total) = 0.13004E+01    rms(broyden)= 0.13004E+01
  rms(prec ) = 0.13069E+01
  weight for this iteration     100.00

 eigenvalues of (default mixing * dielectric matrix)
  average eigenvalue GAMMA=   1.3024
  2.4406  1.3806  0.6943  0.6943

 Free energy of the ion-electron system (eV)
  ---------------------------------------------------
  alpha Z        PSCENC =        92.14382556
  Ewald energy   TEWEN  =    110881.22190047
  -Hartree energ DENC   =   -124833.60962607
  -exchange      EXHF   =         0.00000000
  -V(xc)+E(xc)   XCENC  =      1611.60710645
  PAW double counting   =     37783.78990454   -37950.43110508
  entropy T*S    EENTRO =        -0.01390113
  eigenvalues    EBANDS =     -5055.72279111
  atomic energy  EATOM  =     16689.68470767
  Solvation  Ediel_sol  =        47.25840603
  ---------------------------------------------------
  free energy    TOTEN  =      -734.07157267 eV

  energy without entropy =     -734.05767153  energy(sigma->0) =     -734.06462210


--------------------------------------------------------------------------------------------------------




--------------------------------------- Iteration      1(  10)  ---------------------------------------


    POTLOK:  cpu time  121.0916: real time  121.3594
    SETDIJ:  cpu time    0.6265: real time    0.4299
    EDDIAG:  cpu time   59.0541: real time   48.5052
  RMM-DIIS:  cpu time  377.2195: real time  273.0436
    ORTHCH:  cpu time    2.9405: real time    1.4757
       DOS:  cpu time    0.0023: real time    0.0011
    CHARGE:  cpu time   40.5779: real time   39.3102
    MIXING:  cpu time    0.1705: real time    0.1708
    --------------------------------------------
      LOOP:  cpu time  601.6828: real time  484.2960

 eigenvalue-minimisations  :  5280
 total energy-change (2. order) :-0.3386271E+02  (-0.1899323E+01)
 number of electron     346.6999975 magnetization      54.4075503
 augmentation part       16.2340284 magnetization      52.8088168

 Broyden mixing:
  rms(total) = 0.10042E+01    rms(broyden)= 0.10041E+01
  rms(prec ) = 0.10082E+01
  weight for this iteration     100.00

 eigenvalues of (default mixing * dielectric matrix)
  average eigenvalue GAMMA=   1.2504
  2.6192  1.3822  0.8107  0.8107  0.6293

 Free energy of the ion-electron system (eV)
  ---------------------------------------------------
  alpha Z        PSCENC =        92.14382556
  Ewald energy   TEWEN  =    110881.22190047
  -Hartree energ DENC   =   -124924.07008833
  -exchange      EXHF   =         0.00000000
  -V(xc)+E(xc)   XCENC  =      1591.96382123
  PAW double counting   =     41995.25913464   -42162.86929464
  entropy T*S    EENTRO =        -0.01863992
  eigenvalues    EBANDS =     -4915.02172873
  atomic energy  EATOM  =     16689.68470767
  Solvation  Ediel_sol  =       -16.22792414
  ---------------------------------------------------
  free energy    TOTEN  =      -767.93428619 eV

  energy without entropy =     -767.91564627  energy(sigma->0) =     -767.92496623


--------------------------------------------------------------------------------------------------------




--------------------------------------- Iteration      1(  11)  ---------------------------------------


    POTLOK:  cpu time  115.7592: real time  116.0099
    SETDIJ:  cpu time    1.1437: real time    0.7514
    EDDIAG:  cpu time   59.2316: real time   48.6705
  RMM-DIIS:  cpu time  378.1239: real time  273.4837
    ORTHCH:  cpu time    2.9357: real time    1.4745
       DOS:  cpu time    0.0028: real time    0.0014
    CHARGE:  cpu time   40.3245: real time   39.1041
    MIXING:  cpu time    0.1712: real time    0.1715
    --------------------------------------------
      LOOP:  cpu time  597.6925: real time  479.6671

 eigenvalue-minimisations  :  5280
 total energy-change (2. order) :-0.1081459E+02  (-0.4907284E+00)
 number of electron     346.6999976 magnetization      39.8688651
 augmentation part       16.1409732 magnetization      38.4565226

 Broyden mixing:
  rms(total) = 0.89040E+00    rms(broyden)= 0.89037E+00
  rms(prec ) = 0.89351E+00
  weight for this iteration     100.00

 eigenvalues of (default mixing * dielectric matrix)
  average eigenvalue GAMMA=   1.3621
  2.4396  2.4396  0.9156  0.9156  0.8166  0.6457

 Free energy of the ion-electron system (eV)
  ---------------------------------------------------
  alpha Z        PSCENC =        92.14382556
  Ewald energy   TEWEN  =    110881.22190047
  -Hartree energ DENC   =   -124942.65325314
  -exchange      EXHF   =         0.00000000
  -V(xc)+E(xc)   XCENC  =      1585.59342052
  PAW double counting   =     41999.34585700   -42167.07290240
  entropy T*S    EENTRO =        -0.01933810
  eigenvalues    EBANDS =     -4898.84839600
  atomic energy  EATOM  =     16689.68470767
  Solvation  Ediel_sol  =       -18.14469324
  ---------------------------------------------------
  free energy    TOTEN  =      -778.74887168 eV

  energy without entropy =     -778.72953357  energy(sigma->0) =     -778.73920262


--------------------------------------------------------------------------------------------------------




--------------------------------------- Iteration      1(  12)  ---------------------------------------


    POTLOK:  cpu time  121.0942: real time  121.3549
    SETDIJ:  cpu time    0.7901: real time    0.5067
    EDDIAG:  cpu time   59.3050: real time   48.7097
  RMM-DIIS:  cpu time  377.2457: real time  273.3526
    ORTHCH:  cpu time    2.9491: real time    1.4801
       DOS:  cpu time    0.0027: real time    0.0013
    CHARGE:  cpu time   40.5309: real time   39.2881
    MIXING:  cpu time    0.1863: real time    0.1867
    --------------------------------------------
      LOOP:  cpu time  602.1040: real time  484.8802

 eigenvalue-minimisations  :  5280
 total energy-change (2. order) :-0.2185233E+02  (-0.2309323E+01)
 number of electron     346.6999974 magnetization      37.5348274
 augmentation part       15.9199770 magnetization      36.7161242

 Broyden mixing:
  rms(total) = 0.99239E+00    rms(broyden)= 0.99152E+00
  rms(prec ) = 0.10242E+01
  weight for this iteration     100.00

 eigenvalues of (default mixing * dielectric matrix)
  average eigenvalue GAMMA=   1.3284
  2.8793  2.4287  0.9913  0.9913  0.9305  0.6267  0.4510

 Free energy of the ion-electron system (eV)
  ---------------------------------------------------
  alpha Z        PSCENC =        92.14382556
  Ewald energy   TEWEN  =    110881.22190047
  -Hartree energ DENC   =   -124921.91296246
  -exchange      EXHF   =         0.00000000
  -V(xc)+E(xc)   XCENC  =      1567.22526135
  PAW double counting   =     40390.52969974   -40557.08732719
  entropy T*S    EENTRO =        -0.01429640
  eigenvalues    EBANDS =     -4957.08213166
  atomic energy  EATOM  =     16689.68470767
  Solvation  Ediel_sol  =        14.69012603
  ---------------------------------------------------
  free energy    TOTEN  =      -800.60119689 eV

  energy without entropy =     -800.58690049  energy(sigma->0) =     -800.59404869


--------------------------------------------------------------------------------------------------------




--------------------------------------- Iteration      1(  13)  ---------------------------------------


    POTLOK:  cpu time  116.4451: real time  116.6942
    SETDIJ:  cpu time    0.7093: real time    0.4681
    EDDIAG:  cpu time   59.2186: real time   48.6562
  RMM-DIIS:  cpu time  377.7196: real time  273.2088
    ORTHCH:  cpu time    2.9430: real time    1.4771
       DOS:  cpu time    0.0054: real time    0.0027
    CHARGE:  cpu time   40.3580: real time   39.1299
    MIXING:  cpu time    0.1786: real time    0.1790
    --------------------------------------------
      LOOP:  cpu time  597.5777: real time  479.8159

 eigenvalue-minimisations  :  5280
 total energy-change (2. order) :-0.1362784E+01  (-0.2089077E+00)
 number of electron     346.6999975 magnetization      32.8313361
 augmentation part       15.9765493 magnetization      31.6768970

 Broyden mixing:
  rms(total) = 0.72760E+00    rms(broyden)= 0.72741E+00
  rms(prec ) = 0.74635E+00
  weight for this iteration     100.00

 eigenvalues of (default mixing * dielectric matrix)
  average eigenvalue GAMMA=   1.4122
  3.3352  2.4382  1.3458  1.3458  0.9806  0.7154  0.5681  0.5681

 Free energy of the ion-electron system (eV)
  ---------------------------------------------------
  alpha Z        PSCENC =        92.14382556
  Ewald energy   TEWEN  =    110881.22190047
  -Hartree energ DENC   =   -124917.91512827
  -exchange      EXHF   =         0.00000000
  -V(xc)+E(xc)   XCENC  =      1564.89649227
  PAW double counting   =     40561.33280782   -40727.78041076
  entropy T*S    EENTRO =        -0.00616478
  eigenvalues    EBANDS =     -4967.77093952
  atomic energy  EATOM  =     16689.68470767
  Solvation  Ediel_sol  =        22.22892907
  ---------------------------------------------------
  free energy    TOTEN  =      -801.96398045 eV

  energy without entropy =     -801.95781567  energy(sigma->0) =     -801.96089806


--------------------------------------------------------------------------------------------------------




--------------------------------------- Iteration      1(  14)  ---------------------------------------


    POTLOK:  cpu time  116.4565: real time  116.7040
    SETDIJ:  cpu time    0.9073: real time    0.5662
    EDDIAG:  cpu time   59.2263: real time   48.6236
  RMM-DIIS:  cpu time  377.8860: real time  273.2692
    ORTHCH:  cpu time    2.9466: real time    1.4788
       DOS:  cpu time    0.0023: real time    0.0012
    CHARGE:  cpu time   40.4760: real time   39.2322
    MIXING:  cpu time    0.1824: real time    0.1828
    --------------------------------------------
      LOOP:  cpu time  598.0835: real time  480.0579

 eigenvalue-minimisations  :  5280
 total energy-change (2. order) : 0.3847591E+00  (-0.3812748E+00)
 number of electron     346.6999975 magnetization      28.8784603
 augmentation part       16.0423270 magnetization      27.8901416

 Broyden mixing:
  rms(total) = 0.57085E+00    rms(broyden)= 0.57066E+00
  rms(prec ) = 0.58483E+00
  weight for this iteration     100.00

 eigenvalues of (default mixing * dielectric matrix)
  average eigenvalue GAMMA=   1.5507
  5.4487  2.3786  1.0916  1.0916  1.0624  1.0624  0.7321  0.5818  0.5069

 Free energy of the ion-electron system (eV)
  ---------------------------------------------------
  alpha Z        PSCENC =        92.14382556
  Ewald energy   TEWEN  =    110881.22190047
  -Hartree energ DENC   =   -124911.54722219
  -exchange      EXHF   =         0.00000000
  -V(xc)+E(xc)   XCENC  =      1564.53865791
  PAW double counting   =     40608.08026564   -40774.77118948
  entropy T*S    EENTRO =        -0.00486922
  eigenvalues    EBANDS =     -4995.48315249
  atomic energy  EATOM  =     16689.68470767
  Solvation  Ediel_sol  =        44.55785478
  ---------------------------------------------------
  free energy    TOTEN  =      -801.57922134 eV

  energy without entropy =     -801.57435212  energy(sigma->0) =     -801.57678673


--------------------------------------------------------------------------------------------------------




--------------------------------------- Iteration      1(  15)  ---------------------------------------


    POTLOK:  cpu time  113.0222: real time  113.2652
    SETDIJ:  cpu time    1.1055: real time    0.7125
    EDDIAG:  cpu time   59.2045: real time   48.6447
  RMM-DIIS:  cpu time  377.7045: real time  273.3299
    ORTHCH:  cpu time    2.9528: real time    1.4819
       DOS:  cpu time    0.0030: real time    0.0015
    CHARGE:  cpu time   40.3341: real time   39.0920
    MIXING:  cpu time    0.1900: real time    0.1904
    --------------------------------------------
      LOOP:  cpu time  594.5167: real time  476.7181

 eigenvalue-minimisations  :  5290
 total energy-change (2. order) : 0.8508659E+00  (-0.1109889E+00)
 number of electron     346.6999977 magnetization      28.1187417
 augmentation part       16.1323030 magnetization      27.4372472

 Broyden mixing:
  rms(total) = 0.85598E+00    rms(broyden)= 0.85502E+00
  rms(prec ) = 0.86343E+00
  weight for this iteration     100.00

 eigenvalues of (default mixing * dielectric matrix)
  average eigenvalue GAMMA=   1.4828
  6.2067  2.4298  1.2309  0.6793  0.6793  0.8556  0.8556  0.7680  0.6320  0.4910

 Free energy of the ion-electron system (eV)
  ---------------------------------------------------
  alpha Z        PSCENC =        92.14382556
  Ewald energy   TEWEN  =    110881.22190047
  -Hartree energ DENC   =   -124918.03523240
  -exchange      EXHF   =         0.00000000
  -V(xc)+E(xc)   XCENC  =      1565.32671023
  PAW double counting   =     40492.27415873   -40658.93564384
  entropy T*S    EENTRO =        -0.02319083
  eigenvalues    EBANDS =     -5002.20400400
  atomic energy  EATOM  =     16689.68470767
  Solvation  Ediel_sol  =        57.81841302
  ---------------------------------------------------
  free energy    TOTEN  =      -800.72835539 eV

  energy without entropy =     -800.70516457  energy(sigma->0) =     -800.71675998


--------------------------------------------------------------------------------------------------------




--------------------------------------- Iteration      1(  16)  ---------------------------------------


    POTLOK:  cpu time  114.6305: real time  114.8804
    SETDIJ:  cpu time    0.8080: real time    0.5143
    EDDIAG:  cpu time   59.1214: real time   48.5656
  RMM-DIIS:  cpu time  376.9651: real time  272.8283
    ORTHCH:  cpu time    2.9529: real time    1.4819
       DOS:  cpu time    0.0024: real time    0.0012
    CHARGE:  cpu time   40.2481: real time   39.0431
    MIXING:  cpu time    0.1921: real time    0.1925
    --------------------------------------------
      LOOP:  cpu time  594.9206: real time  477.5074

 eigenvalue-minimisations  :  5280
 total energy-change (2. order) :-0.9948047E-01  (-0.8731291E-01)
 number of electron     346.6999977 magnetization      26.4334658
 augmentation part       16.1239511 magnetization      25.8028809

 Broyden mixing:
  rms(total) = 0.70412E+00    rms(broyden)= 0.70405E+00
  rms(prec ) = 0.71129E+00
  weight for this iteration     100.00

 eigenvalues of (default mixing * dielectric matrix)
  average eigenvalue GAMMA=   1.4881
  6.4941  2.3911  0.9281  0.9281  1.2945  0.9459  0.9459  0.7539  0.5924  0.5924
  0.5028

 Free energy of the ion-electron system (eV)
  ---------------------------------------------------
  alpha Z        PSCENC =        92.14382556
  Ewald energy   TEWEN  =    110881.22190047
  -Hartree energ DENC   =   -124918.77866586
  -exchange      EXHF   =         0.00000000
  -V(xc)+E(xc)   XCENC  =      1565.70237037
  PAW double counting   =     40483.67344780   -40650.24985480
  entropy T*S    EENTRO =        -0.02491364
  eigenvalues    EBANDS =     -4999.76283956
  atomic energy  EATOM  =     16689.68470767
  Solvation  Ediel_sol  =        55.56218612
  ---------------------------------------------------
  free energy    TOTEN  =      -800.82783587 eV

  energy without entropy =     -800.80292223  energy(sigma->0) =     -800.81537905


--------------------------------------------------------------------------------------------------------




--------------------------------------- Iteration      1(  17)  ---------------------------------------


    POTLOK:  cpu time  115.4104: real time  115.6649
    SETDIJ:  cpu time    0.6831: real time    0.4615
    EDDIAG:  cpu time   59.0767: real time   48.5217
  RMM-DIIS:  cpu time  377.1632: real time  272.8348
    ORTHCH:  cpu time    2.9495: real time    1.4806
       DOS:  cpu time    0.0024: real time    0.0012
    CHARGE:  cpu time   40.1858: real time   38.9906
    MIXING:  cpu time    0.1981: real time    0.1986
    --------------------------------------------
      LOOP:  cpu time  595.6691: real time  478.1538

 eigenvalue-minimisations  :  5280
 total energy-change (2. order) : 0.3280702E+00  (-0.2277251E+00)
 number of electron     346.6999975 magnetization      20.1306200
 augmentation part       15.9994918 magnetization      19.2140171

 Broyden mixing:
[...]
   -.324E+02 0.101E+02 0.920E+02   0.319E+02 -.971E+01 -.907E+02   0.389E-02 -.200E-02 0.522E-02   -.368E-03 0.253E-03 0.157E-02
   -.202E+02 -.319E+01 0.800E+02   0.197E+02 0.323E+01 -.789E+02   0.392E-02 -.168E-02 0.243E-02   -.351E-03 0.243E-04 0.125E-02
   -.308E+01 -.438E+01 0.708E+02   0.292E+01 0.427E+01 -.698E+02   0.120E-02 -.121E-03 -.455E-02   -.996E-04 -.945E-04 0.969E-03
   0.191E+02 -.105E+02 0.786E+02   -.187E+02 0.103E+02 -.775E+02   -.161E-02 -.893E-03 -.128E-02   0.313E-03 -.998E-04 0.117E-02
   0.994E+01 -.940E+01 0.769E+02   -.963E+01 0.916E+01 -.759E+02   -.174E-02 0.109E-02 0.110E-02   0.293E-03 -.217E-03 0.112E-02
   -.470E+01 0.390E-01 0.739E+02   0.475E+01 -.173E+00 -.729E+02   0.181E-03 0.178E-02 -.383E-02   0.489E-04 -.148E-03 0.942E-03
   -.112E+02 0.609E+01 0.730E+02   0.110E+02 -.603E+01 -.720E+02   0.201E-02 0.166E-03 -.361E-02   -.123E-03 0.325E-04 0.986E-03
   -.308E+01 0.391E+01 0.734E+02   0.292E+01 -.380E+01 -.725E+02   0.225E-02 -.105E-02 -.344E-02   -.117E-03 0.969E-04 0.102E-02
   0.125E+02 -.324E+01 0.761E+02   -.124E+02 0.327E+01 -.752E+02   0.532E-03 -.125E-02 -.361E-02   0.774E-04 0.390E-04 0.102E-02
   0.574E+00 0.223E+02 -.419E+03   -.119E+01 -.198E+02 0.408E+03   0.869E+00 -.169E+01 0.103E+02   0.574E-03 0.109E-02 -.436E-03
   -.759E+01 -.369E+02 -.317E+03   0.136E+02 0.478E+02 0.322E+03   -.554E+01 -.967E+01 -.385E+01   0.997E-03 0.224E-02 0.808E-04
   -.340E+02 -.970E+02 -.306E+03   0.337E+02 0.968E+02 0.307E+03   0.880E+00 0.176E+01 -.134E+00   0.138E-02 0.383E-02 -.470E-03
   -.536E+03 0.845E+02 -.916E+03   0.592E+03 -.866E+02 0.932E+03   -.553E+02 0.345E+01 -.164E+02   0.846E-03 0.228E-02 -.179E-02
   0.244E+03 0.526E+03 -.877E+03   -.270E+03 -.574E+03 0.891E+03   0.252E+02 0.495E+02 -.139E+02   0.106E-02 0.126E-02 -.501E-03
   0.248E+03 -.358E+03 -.104E+04   -.273E+03 0.401E+03 0.107E+04   0.253E+02 -.415E+02 -.307E+02   0.611E-03 0.144E-02 -.245E-02
   -.211E+03 0.432E+03 -.313E+03   0.237E+03 -.471E+03 0.288E+03   -.240E+02 0.399E+02 0.265E+02   0.125E-02 0.257E-02 0.628E-03
   0.562E+03 0.419E+02 -.440E+03   -.614E+03 -.411E+02 0.429E+03   0.522E+02 0.141E+01 0.132E+02   0.155E-02 0.317E-02 0.557E-03
   -.450E+03 -.154E+03 -.429E+03   0.502E+03 0.156E+03 0.423E+03   -.503E+02 -.975E-01 0.814E+01   -.151E-02 0.102E-02 0.148E-03
   0.188E+03 -.450E+03 -.465E+03   -.220E+03 0.492E+03 0.463E+03   0.322E+02 -.394E+02 0.399E+01   0.233E-02 -.571E-03 0.781E-03
 -----------------------------------------------------------------------------------------------
   -.143E+01 -.361E+01 0.277E+01   -.284E-12 0.171E-12 -.284E-12   0.143E+01 0.359E+01 -.285E+01   0.896E-02 0.183E-01 0.889E-01
 
 
 POSITION                                       TOTAL-FORCE (eV/Angst)
 -----------------------------------------------------------------------------------
      1.25602     -0.72517     17.55814        -0.000462     -0.000262      0.001108
      2.51214      1.45047     17.55775        -0.001699      0.000149      0.002099
      3.76834      3.62599     17.55610        -0.001679      0.001173      0.001599
      5.02436      5.80160     17.55660        -0.000181      0.000694      0.000365
      6.28043      7.97725     17.55781        -0.000016      0.000508     -0.000239
      7.53652     10.15291     17.55827        -0.000283     -0.000117      0.000148
      2.51214     -2.90087     17.55851        -0.000214     -0.000404      0.001157
      3.76818     -0.72520     17.55829        -0.001103     -0.001054      0.003398
      5.02445      1.45059     17.55648        -0.001409      0.000178      0.002113
      6.28043      3.62594     17.55584         0.000433      0.001537      0.002032
      7.53650      5.80160     17.55681         0.000233      0.000521      0.000183
      8.79260      7.97726     17.55802         0.000084      0.000136     -0.000063
      3.76824     -5.07650     17.55838         0.000104     -0.000019      0.000542
      5.02433     -2.90088     17.55901        -0.000152     -0.001378      0.001516
      6.28055     -0.72509     17.55766         0.000200     -0.001759      0.003322
      7.53643      1.45040     17.55690         0.001787      0.000419      0.002350
      8.79254      3.62595     17.55645         0.001148      0.000965      0.001173
     10.04868      5.80161     17.55751         0.000302      0.000205     -0.000240
      5.02433     -7.25211     17.55812         0.000151      0.000079     -0.000097
      6.28043     -5.07649     17.55831        -0.000235     -0.000333      0.000774
      7.53653     -2.90079     17.55802         0.000016     -0.001045      0.001682
      8.79257     -0.72513     17.55721         0.000849     -0.000496      0.002401
     10.04861      1.45040     17.55680         0.000910      0.000325      0.000891
     11.30476      3.62600     17.55740         0.000414      0.000382     -0.000114
      6.28043     -9.42774     17.55794        -0.000124      0.000412     -0.000249
      7.53654     -7.25210     17.55788        -0.000540      0.000018     -0.000137
      8.79262     -5.07645     17.55783        -0.000237      0.000011      0.000031
     10.04868     -2.90081     17.55758         0.000088     -0.000259      0.000280
     11.30474     -0.72520     17.55740         0.000420     -0.000246      0.000169
     12.56085      1.45040     17.55763         0.000165      0.000220     -0.000207
      7.53652    -11.60332     17.55781        -0.000399      0.000113      0.000260
      8.79265     -9.42773     17.55730        -0.000908      0.000414      0.000431
     10.04875     -7.25212     17.55718        -0.000529      0.000343     -0.000096
     11.30480     -5.07647     17.55772        -0.000120      0.000216     -0.000337
     12.56086     -2.90084     17.55808         0.000219     -0.000009     -0.000193
     13.81696     -0.72521     17.55804        -0.000137     -0.000062     -0.000059
      1.25606      0.72521     17.55764         0.000950      0.000257      0.000984
      2.51215      2.90083     17.55659         0.001503     -0.000552      0.001031
      3.76824      5.07646     17.55619         0.000576     -0.001116      0.000382
      5.02434      7.25207     17.55730         0.000040     -0.000546     -0.000198
      6.28043      9.42770     17.55816        -0.000064     -0.000199     -0.000258
      7.53651     11.60332     17.55807         0.000249      0.000231      0.000317
      2.51213     -1.45044     17.55822         0.001080      0.000805      0.001828
      3.76826      0.72518     17.55782         0.002190      0.000670      0.002457
      5.02434      2.90088     17.55448         0.000620     -0.001240      0.000962
      6.28044      5.07645     17.55592        -0.000336     -0.001580      0.000424
      7.53653      7.25207     17.55748        -0.000226     -0.000526     -0.000148
      8.79261      9.42769     17.55820         0.000056     -0.000010      0.000248
      3.76824     -3.62606     17.55861         0.000450      0.000736      0.001239
      5.02432     -1.45038     17.55897         0.000503      0.001714      0.002051
      6.28029      0.72517     17.55601        -0.000718      0.000483      0.001097
      7.53652      2.90079     17.55575        -0.001500     -0.001153      0.000787
      8.79261      5.07643     17.55655        -0.000511     -0.000775      0.000199
     10.04871      7.25206     17.55793        -0.000235     -0.000133     -0.000149
      5.02434     -5.80168     17.55819        -0.000033      0.000041      0.000365
      6.28041     -3.62605     17.55843         0.000019      0.001134      0.001469
      7.53650     -1.45044     17.55731        -0.000948      0.001577      0.001760
      8.79256      0.72522     17.55637        -0.001840      0.000316      0.001135
     10.04871      2.90082     17.55646        -0.000995     -0.000523      0.000603
     11.30480      5.07644     17.55765        -0.000384     -0.000297     -0.000256
      6.28043     -7.97730     17.55803         0.000170     -0.000174     -0.000282
      7.53652     -5.80168     17.55789         0.000218      0.000023      0.000149
      8.79260     -3.62605     17.55754        -0.000209      0.000413      0.000602
     10.04868     -1.45042     17.55699        -0.000619      0.000506      0.000710
     11.30478      0.72520     17.55699        -0.000733      0.000102      0.000252
     12.56089      2.90082     17.55767        -0.000217     -0.000291     -0.000378
      7.53652    -10.15292     17.55757         0.000412     -0.000143      0.000111
      8.79261     -7.97730     17.55725         0.000518     -0.000284     -0.000036
     10.04870     -5.80167     17.55756         0.000231     -0.000252     -0.000445
     11.30479     -3.62605     17.55779        -0.000132     -0.000052     -0.000209
     12.56087     -1.45042     17.55783        -0.000229      0.000108     -0.000165
     13.81697      0.72520     17.55781         0.000070     -0.000054     -0.000288
      5.17051     -0.76978     23.63226         0.001709      0.001614     -0.001781
      5.05349     -0.48244     22.12792         0.000435      0.005238     -0.017801
      5.66924      0.87524     21.69526        -0.005344      0.017588     -0.007089
      6.45760     -0.84721     24.00685        -0.007120      0.010427      0.000706
      4.57444     -1.93399     23.94829         0.000354      0.002479     -0.018629
      4.57814      0.20805     24.34019         0.010015     -0.002953     -0.002928
      5.66134     -1.52028     21.47761        -0.005247     -0.008423      0.002314
      3.72383     -0.53945     21.82303        -0.000996     -0.011766      0.001581
      6.90100      0.87006     21.50374         0.016298     -0.012424     -0.004695
      4.87923      1.83432     21.60426        -0.007123     -0.002571      0.001981
 -----------------------------------------------------------------------------------
    total drift:                                0.006181      0.001492      0.007774


--------------------------------------------------------------------------------------------------------



  FREE ENERGIE OF THE ION-ELECTRON SYSTEM (eV)
  ---------------------------------------------------
  free  energy   TOTEN  =      -777.46346440 eV

  energy  without entropy=     -777.43097179  energy(sigma->0) =     -777.44721809
 
 d Force = 0.3782237E-04[ 0.285E-04, 0.472E-04]  d Energy = 0.3579412E-04 0.203E-05
 d Force =-0.3010716E+01[-0.301E+01,-0.301E+01]  d Ewald  =-0.3010716E+01-0.713E-07


--------------------------------------------------------------------------------------------------------


    POTLOK:  cpu time   84.4199: real time   84.2622


--------------------------------------------------------------------------------------------------------


 Conjugate gradient step on ions:
 trial-energy change:   -0.000036  1 .order   -0.000038   -0.000047   -0.000028
  (g-gl).g = 0.157E-03      g.g   = 0.170E-03  gl.gl    = 0.188E-03
 g(Force)  = 0.170E-03   g(Stress)= 0.000E+00 ortho     = 0.368E-06
 gamma     =   0.83265
 trial     =   0.27643
 opt step  =   0.69751  (harmonic =   0.69751) maximal distance =0.00102927
 next E    =  -777.463488   (d E  =  -0.00006)


--------------------------------------------------------------------------------------------------------


 writing wavefunctions
     LOOP+:  cpu time 5044.2484: real time 4118.0468
    4ORBIT:  cpu time    0.0000: real time    0.0000
 


 total charge     
 
# of ion       s       p       d       tot
------------------------------------------
    1        0.744   1.392   0.000   2.136
    2        0.744   1.392   0.000   2.135
    3        0.744   1.392   0.000   2.136
    4        0.744   1.392   0.000   2.136
    5        0.744   1.392   0.000   2.136
    6        0.744   1.392   0.000   2.136
    7        0.744   1.392   0.000   2.136
    8        0.744   1.392   0.000   2.136
    9        0.744   1.392   0.000   2.136
   10        0.744   1.392   0.000   2.135
   11        0.744   1.392   0.000   2.136
   12        0.744   1.392   0.000   2.136
   13        0.744   1.392   0.000   2.136
   14        0.744   1.392   0.000   2.136
   15        0.744   1.392   0.000   2.136
   16        0.744   1.392   0.000   2.135
   17        0.744   1.392   0.000   2.136
   18        0.744   1.392   0.000   2.136
   19        0.744   1.392   0.000   2.136
   20        0.744   1.392   0.000   2.136
   21        0.744   1.392   0.000   2.136
   22        0.744   1.392   0.000   2.135
   23        0.744   1.392   0.000   2.136
   24        0.744   1.392   0.000   2.136
   25        0.744   1.392   0.000   2.136
   26        0.744   1.392   0.000   2.136
   27        0.744   1.392   0.000   2.136
   28        0.744   1.392   0.000   2.136
   29        0.744   1.392   0.000   2.136
   30        0.744   1.392   0.000   2.136
   31        0.744   1.392   0.000   2.136
   32        0.744   1.392   0.000   2.136
   33        0.744   1.392   0.000   2.136
   34        0.744   1.392   0.000   2.136
   35        0.744   1.392   0.000   2.136
   36        0.744   1.392   0.000   2.136
   37        1.239   2.817   0.000   4.056
   38        1.239   2.817   0.000   4.056
   39        1.239   2.817   0.000   4.056
   40        1.239   2.817   0.000   4.056
   41        1.239   2.817   0.000   4.056
   42        1.239   2.817   0.000   4.056
   43        1.239   2.817   0.000   4.056
   44        1.239   2.817   0.000   4.056
   45        1.239   2.817   0.000   4.056
   46        1.239   2.817   0.000   4.056
   47        1.239   2.817   0.000   4.056
   48        1.239   2.817   0.000   4.056
   49        1.239   2.817   0.000   4.056
   50        1.239   2.817   0.000   4.056
   51        1.239   2.817   0.000   4.056
   52        1.239   2.817   0.000   4.056
   53        1.239   2.817   0.000   4.056
   54        1.239   2.817   0.000   4.056
   55        1.239   2.817   0.000   4.056
   56        1.239   2.817   0.000   4.056
   57        1.239   2.817   0.000   4.056
   58        1.239   2.817   0.000   4.056
   59        1.239   2.817   0.000   4.056
   60        1.239   2.817   0.000   4.056
   61        1.239   2.817   0.000   4.056
   62        1.239   2.817   0.000   4.056
   63        1.239   2.817   0.000   4.056
   64        1.239   2.817   0.000   4.056
   65        1.239   2.817   0.000   4.056
   66        1.239   2.817   0.000   4.056
   67        1.239   2.817   0.000   4.056
   68        1.239   2.817   0.000   4.056
   69        1.239   2.817   0.000   4.056
   70        1.239   2.817   0.000   4.056
   71        1.239   2.817   0.000   4.056
   72        1.239   2.817   0.000   4.056
   73        0.819   1.559   0.000   2.379
   74        0.836   1.594   0.000   2.430
   75        0.877   1.725   0.000   2.602
   76        1.758   4.414   0.000   6.171
   77        1.757   4.412   0.000   6.170
   78        1.758   4.413   0.000   6.171
   79        1.755   4.402   0.000   6.157
   80        1.755   4.403   0.000   6.159
   81        1.591   3.564   0.000   5.155
   82        1.591   3.565   0.000   5.155
--------------------------------------------------
tot         85.884 185.578   0.000 271.461
 


 magnetization (x)
 
# of ion       s       p       d       tot
------------------------------------------
    1       -0.000  -0.002   0.000  -0.002
    2       -0.000  -0.002   0.000  -0.002
    3       -0.000  -0.002   0.000  -0.002
    4       -0.000  -0.002   0.000  -0.002
    5       -0.000  -0.002   0.000  -0.002
    6       -0.000  -0.002   0.000  -0.002
    7       -0.000  -0.002   0.000  -0.002
    8       -0.000  -0.002   0.000  -0.002
    9       -0.000  -0.002   0.000  -0.002
   10       -0.000  -0.002   0.000  -0.002
   11       -0.000  -0.002   0.000  -0.002
   12       -0.000  -0.002   0.000  -0.002
   13       -0.000  -0.002   0.000  -0.002
   14       -0.000  -0.002   0.000  -0.002
   15       -0.000  -0.002   0.000  -0.002
   16       -0.000  -0.002   0.000  -0.002
   17       -0.000  -0.002   0.000  -0.002
   18       -0.000  -0.002   0.000  -0.002
   19       -0.000  -0.002   0.000  -0.002
   20       -0.000  -0.002   0.000  -0.002
   21       -0.000  -0.002   0.000  -0.002
   22       -0.000  -0.002   0.000  -0.002
   23       -0.000  -0.002   0.000  -0.002
   24       -0.000  -0.002   0.000  -0.002
   25       -0.000  -0.002   0.000  -0.002
   26       -0.000  -0.002   0.000  -0.002
   27       -0.000  -0.002   0.000  -0.002
   28       -0.000  -0.002   0.000  -0.002
   29       -0.000  -0.002   0.000  -0.002
   30       -0.000  -0.002   0.000  -0.002
   31       -0.000  -0.002   0.000  -0.002
   32       -0.000  -0.002   0.000  -0.002
   33       -0.000  -0.002   0.000  -0.002
   34       -0.000  -0.002   0.000  -0.002
   35       -0.000  -0.002   0.000  -0.002
   36       -0.000  -0.002   0.000  -0.002
   37        0.001   0.013   0.000   0.013
   38        0.001   0.013   0.000   0.013
   39        0.001   0.013   0.000   0.013
   40        0.001   0.013   0.000   0.013
   41        0.001   0.012   0.000   0.013
   42        0.001   0.012   0.000   0.013
   43        0.001   0.012   0.000   0.013
   44        0.001   0.013   0.000   0.013
   45        0.001   0.013   0.000   0.013
   46        0.001   0.013   0.000   0.013
   47        0.001   0.012   0.000   0.013
   48        0.001   0.012   0.000   0.013
   49        0.001   0.012   0.000   0.013
   50        0.001   0.012   0.000   0.013
   51        0.001   0.013   0.000   0.013
   52        0.001   0.013   0.000   0.013
   53        0.001   0.013   0.000   0.013
   54        0.001   0.012   0.000   0.013
   55        0.001   0.012   0.000   0.013
   56        0.001   0.012   0.000   0.013
   57        0.001   0.012   0.000   0.013
   58        0.001   0.013   0.000   0.013
   59        0.001   0.013   0.000   0.013
   60        0.001   0.012   0.000   0.013
   61        0.001   0.013   0.000   0.013
   62        0.001   0.012   0.000   0.013
   63        0.001   0.012   0.000   0.013
   64        0.001   0.013   0.000   0.013
   65        0.001   0.013   0.000   0.013
   66        0.001   0.012   0.000   0.013
   67        0.001   0.012   0.000   0.013
   68        0.001   0.013   0.000   0.013
   69        0.001   0.013   0.000   0.013
   70        0.001   0.012   0.000   0.013
   71        0.001   0.012   0.000   0.013
   72        0.001   0.013   0.000   0.013
   73       -0.000  -0.000   0.000  -0.000
   74       -0.000  -0.001   0.000  -0.002
   75       -0.001  -0.007   0.000  -0.008
   76        0.000   0.000   0.000   0.000
   77       -0.000  -0.000   0.000  -0.000
   78        0.000   0.000   0.000   0.000
   79        0.000   0.002   0.000   0.002
   80        0.000   0.002   0.000   0.003
   81        0.001   0.093   0.000   0.094
   82        0.001   0.090   0.000   0.091
--------------------------------------------------
tot          0.003   0.566   0.000   0.569
 

 total amount of memory used by VASP MPI-rank0  1757881. kBytes
=======================================================================

   base      :      30000. kBytes
   nonlr-proj:      37393. kBytes
   fftplans  :     102830. kBytes
   grid      :     872370. kBytes
   one-center:        503. kBytes
   wavefun   :     714785. kBytes
 
  
  
 General timing and accounting informations for this job:
 ========================================================
  
                  Total CPU time used (sec):    88136.531
                            User time (sec):    86217.328
                          System time (sec):     1919.203
                         Elapsed time (sec):    71597.065
  
                   Maximum memory used (kb):     3639100.
                   Average memory used (kb):           0.
  
                          Minor page faults:    378299499
                          Major page faults:           77
                 Voluntary context switches:       551242
