 vasp.5.4.4.18Apr17-6-g9f103f2a35 (build Oct 02 2017 16:27:17) complex          
  
 executed on             LinuxIFC date 2020.04.09  02:06:00
 running on   48 total cores
 distrk:  each k-point on   12 cores,    4 groups
 distr:  one band on NCORES_PER_BAND=   1 cores,   12 groups


--------------------------------------------------------------------------------------------------------


 INCAR:
 POTCAR:    PAW_PBE B 28Sep2005                   
 POTCAR:    PAW_PBE N_GW 10Apr2007                

 ----------------------------------------------------------------------------- 
|                                                                             |
|           W    W    AA    RRRRR   N    N  II  N    N   GGGG   !!!           |
|           W    W   A  A   R    R  NN   N  II  NN   N  G    G  !!!           |
|           W    W  A    A  R    R  N N  N  II  N N  N  G       !!!           |
|           W WW W  AAAAAA  RRRRR   N  N N  II  N  N N  G  GGG   !            |
|           WW  WW  A    A  R   R   N   NN  II  N   NN  G    G                |
|           W    W  A    A  R    R  N    N  II  N    N   GGGG   !!!           |
|                                                                             |
|      For optimal performance we recommend to set                            |
|        NCORE= 4 - approx SQRT( number of cores)                             |
|      NCORE specifies how many cores store one orbital (NPAR=cpu/NCORE).     |
|      This setting can  greatly improve the performance of VASP for DFT.     |
|      The default,   NCORE=1            might be grossly inefficient         |
|      on modern multi-core architectures or massively parallel machines.     |
|      Do your own testing !!!!                                               |
|      Unfortunately you need to use the default for GW and RPA calculations. |
|      (for HF NCORE is supported but not extensively tested yet)             |
|                                                                             |
 ----------------------------------------------------------------------------- 


 ----------------------------------------------------------------------------- 
|                                                                             |
|           W    W    AA    RRRRR   N    N  II  N    N   GGGG   !!!           |
|           W    W   A  A   R    R  NN   N  II  NN   N  G    G  !!!           |
|           W    W  A    A  R    R  N N  N  II  N N  N  G       !!!           |
|           W WW W  AAAAAA  RRRRR   N  N N  II  N  N N  G  GGG   !            |
|           WW  WW  A    A  R   R   N   NN  II  N   NN  G    G                |
|           W    W  A    A  R    R  N    N  II  N    N   GGGG   !!!           |
|                                                                             |
|      You have enabled k-point parallelism (KPAR>1).                         |
|      This developmental code was originally  written by Paul Kent at ORNL,  |
|      and carefully double checked in Vienna.                                |
|      GW as well as linear response parallelism added by Martijn Marsman     |
|      and Georg Kresse.                                                      |
|      Carefully verify results versus KPAR=1.                                |
|      Report problems to Paul Kent and Vienna.                               |
|                                                                             |
 ----------------------------------------------------------------------------- 

 POTCAR:    PAW_PBE B 28Sep2005                   
   VRHFIN =B: s2p1                                                              
   LEXCH  = PE                                                                  
   EATOM  =    71.1703 eV,    5.2309 Ry                                         
                                                                                
   TITEL  = PAW_PBE B 28Sep2005                                                 
   LULTRA =        F    use ultrasoft PP ?                                      
   IUNSCR =        0    unscreen: 0-lin 1-nonlin 2-no                           
   RPACOR =    0.000    partial core radius                                     
   POMASS =   10.811; ZVAL   =    3.000    mass and valenz                      
   RCORE  =    1.700    outmost cutoff radius                                   
   RWIGS  =    1.710; RWIGS  =    0.905    wigner-seitz radius (au A)           
   ENMAX  =  318.614; ENMIN  =  238.960 eV                                      
   ICORE  =        2    local potential                                         
   LCOR   =        T    correct aug charges                                     
   LPAW   =        T    paw PP                                                  
   EAUG   =  535.514                                                            
   DEXC   =    0.000                                                            
   RMAX   =    1.732    core radius for proj-oper                               
   RAUG   =    1.300    factor for augmentation sphere                          
   RDEP   =    1.757    radius for radial grids                                 
   RDEPT  =    1.436    core radius for aug-charge                              
                                                                                
   Atomic configuration                                                         
    4 entries                                                                   
     n  l   j            E        occ.                                          
     1  0  0.50      -180.5896   2.0000                                         
     2  0  0.50        -9.4431   2.0000                                         
     2  1  0.50        -3.6068   1.0000                                         
     3  2  1.50        -4.0817   0.0000                                         
   Description                                                                  
     l       E           TYP  RCUT    TYP  RCUT                                 
     0     -9.4430752     23  1.500                                             
     0     95.2407820     23  1.500                                             
     1     -3.6067956     23  1.700                                             
     1    108.8466080     23  1.700                                             
     2     -4.0817478      7  1.700                                             
  local pseudopotential read in
  kinetic energy density of atom read in
  atomic valenz-charges read in
  non local Contribution for L=           0  read in
    real space projection operators read in
  non local Contribution for L=           0  read in
    real space projection operators read in
  non local Contribution for L=           1  read in
    real space projection operators read in
  non local Contribution for L=           1  read in
    real space projection operators read in
    PAW grid and wavefunctions read in
 
   number of l-projection  operators is LMAX  =           4
   number of lm-projection operators is LMMAX =           8
 
 POTCAR:    PAW_PBE N_GW 10Apr2007                
   VRHFIN =N: s2p3                                                              
   LEXCH  = PE                                                                  
   EATOM  =   264.5486 eV,   19.4438 Ry                                         
                                                                                
   TITEL  = PAW_PBE N_GW 10Apr2007                                              
   LULTRA =        F    use ultrasoft PP ?                                      
   IUNSCR =        0    unscreen: 0-lin 1-nonlin 2-no                           
   RPACOR =    0.000    partial core radius                                     
   POMASS =   14.001; ZVAL   =    5.000    mass and valenz                      
   RCORE  =    1.500    outmost cutoff radius                                   
   RWIGS  =    1.400; RWIGS  =    0.741    wigner-seitz radius (au A)           
   ENMAX  =  420.902; ENMIN  =  315.677 eV                                      
   ICORE  =        2    local potential                                         
   LCOR   =        T    correct aug charges                                     
   LPAW   =        T    paw PP                                                  
   EAUG   =  904.640                                                            
   DEXC   =    0.000                                                            
   RMAX   =    1.529    core radius for proj-oper                               
   RAUG   =    1.300    factor for augmentation sphere                          
   RDEP   =    1.514    radius for radial grids                                 
   RDEPT  =    1.100    core radius for aug-charge                              
                                                                                
   Atomic configuration                                                         
    4 entries                                                                   
     n  l   j            E        occ.                                          
     1  0  0.50      -384.7179   2.0000                                         
     2  0  0.50       -18.5828   2.0000                                         
     2  1  0.50        -7.0898   3.0000                                         
     3  2  1.50        -8.1635   0.0000                                         
   Description                                                                  
     l       E           TYP  RCUT    TYP  RCUT                                 
     0    -18.5828120     23  1.300                                             
     0     81.6349560     23  1.300                                             
     1     -7.0897854     23  1.500                                             
     1     81.6349560     23  1.500                                             
     2     -8.1634956      7  1.500                                             
  local pseudopotential read in
  kinetic energy density of atom read in
  atomic valenz-charges read in
  non local Contribution for L=           0  read in
    real space projection operators read in
  non local Contribution for L=           0  read in
    real space projection operators read in
  non local Contribution for L=           1  read in
    real space projection operators read in
  non local Contribution for L=           1  read in
    real space projection operators read in
    PAW grid and wavefunctions read in
 
   number of l-projection  operators is LMAX  =           4
   number of lm-projection operators is LMMAX =           8
 
  PAW_PBE B 28Sep2005                   :
 energy of atom  1       EATOM=  -71.1703
 kinetic energy error for atom=    0.0005 (will be added to EATOM!!)
  PAW_PBE N_GW 10Apr2007                :
 energy of atom  2       EATOM= -264.5486
 kinetic energy error for atom=    0.0081 (will be added to EATOM!!)
 
 
 POSCAR: B N                                     
  positions in direct lattice
  velocities in cartesian coordinates
 exchange correlation table for  LEXCH =        8
   RHO(1)=    0.500       N(1)  =     2000
   RHO(2)=  100.500       N(2)  =     4000
 


--------------------------------------------------------------------------------------------------------


 ion  position               nearest neighbor table
   1  0.333  0.667  0.111-   2 1.45   2 1.45   2 1.45
   2  0.667  0.333  0.111-   1 1.45   1 1.45   1 1.45
 
  LATTYP: Found a hexagonal cell.
 ALAT       =     2.5104528693
 C/A-ratio  =     5.9693414622
  
  Lattice vectors:
  
 A1 = (   1.2552264347,  -2.1741126873,   0.0000000000)
 A2 = (   1.2552264347,   2.1741126873,   0.0000000000)
 A3 = (   0.0000000000,   0.0000000000,  14.9857504017)


Analysis of symmetry for initial positions (statically):
=====================================================================
 Subroutine PRICEL returns:
 Original cell was already a primitive cell.
 

 Routine SETGRP: Setting up the symmetry group for a 
 hexagonal supercell.


 Subroutine GETGRP returns: Found 12 space group operations
 (whereof  6 operations were pure point group operations)
 out of a pool of 24 trial point group operations.


The static configuration has the point symmetry C_3v.
 The point group associated with its full space group is D_3h.


Analysis of symmetry for dynamics (positions and initial velocities):
=====================================================================
 Subroutine PRICEL returns:
 Original cell was already a primitive cell.
 

 Routine SETGRP: Setting up the symmetry group for a 
 hexagonal supercell.


 Subroutine GETGRP returns: Found 12 space group operations
 (whereof  6 operations were pure point group operations)
 out of a pool of 24 trial point group operations.


The dynamic configuration has the point symmetry C_3v.
 The point group associated with its full space group is D_3h.


Analysis of constrained symmetry for selective dynamics:
=====================================================================
 Subroutine PRICEL returns:
 Original cell was already a primitive cell.
 

 Routine SETGRP: Setting up the symmetry group for a 
 hexagonal supercell.


 Subroutine GETGRP returns: Found 12 space group operations
 (whereof  6 operations were pure point group operations)
 out of a pool of 24 trial point group operations.


The constrained configuration has the point symmetry C_3v.
 The point group associated with its full space group is D_3h.


Analysis of structural, dynamic, and magnetic symmetry:
=====================================================================
 Subroutine PRICEL returns:
 Original cell was already a primitive cell.
 

 Routine SETGRP: Setting up the symmetry group for a 
 hexagonal supercell.


 Subroutine GETGRP returns: Found 12 space group operations
 (whereof  6 operations were pure point group operations)
 out of a pool of 24 trial point group operations.


The magnetic configuration has the point symmetry C_3v.
 The point group associated with its full space group is D_3h.


 Subroutine INISYM returns: Found 12 space group operations
 (whereof  6 operations are pure point group operations),
 and found     1 'primitive' translations

 
 
 KPOINTS: 12x12x1                                 

Automatic generation of k-mesh.
Space group operators:
 irot       det(A)        alpha          n_x          n_y          n_z        tau_x        tau_y        tau_z
    1     1.000000     0.000000     1.000000     0.000000     0.000000     0.000000     0.000000     0.000000
    2     1.000000   120.000000     0.000000     0.000000    -1.000000     0.000000     0.000000     0.000000
    3     1.000000   120.000000     0.000000     0.000000     1.000000     0.000000     0.000000     0.000000
    4    -1.000000   180.000000     0.499999    -0.866026     0.000000     0.000000     0.000000     0.000000
    5    -1.000000   180.000000    -0.499999    -0.866026     0.000000     0.000000     0.000000     0.000000
    6    -1.000000   180.000000     1.000000     0.000000     0.000000     0.000000     0.000000     0.000000
    7    -1.000000    60.000000     0.000000     0.000000    -1.000000     0.000000     0.000000     0.222825
    8    -1.000000   179.999999     0.000000     0.000000     1.000000     0.000000     0.000000     0.222825
    9    -1.000000    60.000000     0.000000     0.000000     1.000000     0.000000     0.000001     0.222825
   10     1.000000   180.000000     0.000000     1.000000     0.000000     0.000000     0.000000     0.222825
   11     1.000000   180.000000     0.866025     0.500001     0.000000     0.000000     0.000000     0.222825
   12     1.000000   180.000000     0.866025    -0.500001     0.000000     0.000000     0.000001     0.222825
 
 Subroutine IBZKPT returns following result:
 ===========================================
 
 Found     19 irreducible k-points:
 
 Following reciprocal coordinates:
            Coordinates               Weight
  0.000000  0.000000  0.000000      1.000000
  0.083333 -0.000000  0.000000      6.000000
  0.166667  0.000000  0.000000      6.000000
  0.250000 -0.000000  0.000000      6.000000
  0.333333 -0.000000  0.000000      6.000000
  0.416667 -0.000000  0.000000      6.000000
  0.500000 -0.000000  0.000000      3.000000
  0.083333  0.083333  0.000000      6.000000
  0.166667  0.083333  0.000000     12.000000
  0.250000  0.083333  0.000000     12.000000
  0.333333  0.083333  0.000000     12.000000
  0.416667  0.083333  0.000000     12.000000
  0.166667  0.166667  0.000000      6.000000
  0.250000  0.166667  0.000000     12.000000
  0.333333  0.166667  0.000000     12.000000
  0.416667  0.166667  0.000000      6.000000
  0.250000  0.250000  0.000000      6.000000
  0.333333  0.250000  0.000000     12.000000
  0.333333  0.333333  0.000000      2.000000
 
 Following cartesian coordinates:
            Coordinates               Weight
  0.000000  0.000000  0.000000      1.000000
  0.033195 -0.019165  0.000000      6.000000
  0.066389 -0.038330  0.000000      6.000000
  0.099584 -0.057495  0.000000      6.000000
  0.132778 -0.076660  0.000000      6.000000
  0.165973 -0.095825  0.000000      6.000000
  0.199167 -0.114989  0.000000      3.000000
  0.066389  0.000000  0.000000      6.000000
  0.099584 -0.019165  0.000000     12.000000
  0.132778 -0.038330  0.000000     12.000000
  0.165973 -0.057495  0.000000     12.000000
  0.199167 -0.076660  0.000000     12.000000
  0.132778  0.000000  0.000000      6.000000
  0.165973 -0.019165  0.000000     12.000000
  0.199167 -0.038330  0.000000     12.000000
  0.232362 -0.057495  0.000000      6.000000
  0.199167  0.000000  0.000000      6.000000
  0.232362 -0.019165  0.000000     12.000000
  0.265556  0.000000  0.000000      2.000000
 


--------------------------------------------------------------------------------------------------------




 Dimension of arrays:
   k-points           NKPTS =     19   k-points in BZ     NKDIM =     19   number of bands    NBANDS=    192
   number of dos      NEDOS =   1200   number of ions     NIONS =      2
   non local maximal  LDIM  =      4   non local SUM 2l+1 LMDIM =      8
   total plane-waves  NPLWV =  72576
   max r-space proj   IRMAX =      1   max aug-charges    IRDMAX=  14035
   dimension x,y,z NGX =    24 NGY =   24 NGZ =  126
   dimension x,y,z NGXF=    48 NGYF=   48 NGZF=  252
   support grid    NGXF=    48 NGYF=   48 NGZF=  252
   ions per type =               1   1
   NGX,Y,Z   is equivalent  to a cutoff of  15.89, 15.89, 13.98 a.u.
   NGXF,Y,Z  is equivalent  to a cutoff of  31.79, 31.79, 27.96 a.u.

 SYSTEM =  hBN                                     
 POSCAR =  B N                                     

 Startparameter for this run:
   NWRITE =      2    write-flag & timer
   PREC   = accura    normal or accurate (medium, high low for compatibility)
   ISTART =      1    job   : 0-new  1-cont  2-samecut
   ICHARG =      1    charge: 1-file 2-atom 10-const
   ISPIN  =      2    spin polarized calculation?
   LNONCOLLINEAR =      F non collinear calculations
   LSORBIT =      F    spin-orbit coupling
   INIWAV =      1    electr: 0-lowe 1-rand  2-diag
   LASPH  =      F    aspherical Exc in radial PAW
   METAGGA=      F    non-selfconsistent MetaGGA calc.

 Electronic Relaxation 1
   ENCUT  =  650.0 eV  47.77 Ry    6.91 a.u.   5.22  5.22 31.15*2*pi/ulx,y,z
   ENINI  =  650.0     initial cutoff
   ENAUG  =  904.6 eV  augmentation charge cutoff
   NELM   =      1;   NELMIN=  2; NELMDL=  0     # of ELM steps 
   EDIFF  = 0.1E-07   stopping-criterion for ELM
   LREAL  =      F    real-space projection
   NLSPLINE    = F    spline interpolate recip. space projectors
   LCOMPAT=      F    compatible to vasp.4.4
   GGA_COMPAT  = T    GGA compatible to vasp.4.4-vasp.4.6
   LMAXPAW     = -100 max onsite density
   LMAXMIX     =    2 max onsite mixed and CHGCAR
   VOSKOWN=      0    Vosko Wilk Nusair interpolation
   ROPT   =    0.00000   0.00000
 Ionic relaxation
   EDIFFG = -.1E-01   stopping-criterion for IOM
   NSW    =      0    number of steps for IOM
   NBLOCK =      1;   KBLOCK =      1    inner block; outer block 
   IBRION =     -1    ionic relax: 0-MD 1-quasi-New 2-CG
   NFREE  =      1    steps in history (QN), initial steepest desc. (CG)
   ISIF   =      2    stress and relaxation
   IWAVPR =     10    prediction:  0-non 1-charg 2-wave 3-comb
   ISYM   =      2    0-nonsym 1-usesym 2-fastsym
   LCORR  =      T    Harris-Foulkes like correction to forces

   POTIM  = 0.5000    time-step for ionic-motion
   TEIN   =    0.0    initial temperature
   TEBEG  =    0.0;   TEEND  =   0.0 temperature during run
   SMASS  =  -3.00    Nose mass-parameter (am)
   estimated Nose-frequenzy (Omega)   =  0.10E-29 period in steps =****** mass=  -0.144E-27a.u.
   SCALEE = 1.0000    scale energy and forces
   NPACO  =    256;   APACO  = 16.0  distance and # of slots for P.C.
   PSTRESS=    0.0 pullay stress

  Mass of Ions in am
   POMASS =  10.81 14.00
  Ionic Valenz
   ZVAL   =   3.00  5.00
  Atomic Wigner-Seitz radii
   RWIGS  =  -1.00 -1.00
  virtual crystal weights 
   VCA    =   1.00  1.00
   NELECT =       8.0000    total number of electrons
   NUPDOWN=      -1.0000    fix difference up-down

 DOS related values:
   EMIN   =  10.00;   EMAX   =-10.00  energy-range for DOS
   EFERMI =   0.00
   ISMEAR =     0;   SIGMA  =   0.05  broadening in eV -4-tet -1-fermi 0-gaus

 Electronic relaxation 2 (details)
   IALGO  =     90    algorithm
   LDIAG  =      T    sub-space diagonalisation (order eigenvalues)
   LSUBROT=      F    optimize rotation matrix (better conditioning)
   TURBO    =      0    0=normal 1=particle mesh
   IRESTART =      0    0=no restart 2=restart with 2 vectors
   NREBOOT  =      0    no. of reboots
   NMIN     =      0    reboot dimension
   EREF     =   0.00    reference energy to select bands
   IMIX   =      4    mixing-type and parameters
     AMIX     =   0.40;   BMIX     =  1.00
     AMIX_MAG =   1.60;   BMIX_MAG =  1.00
     AMIN     =   0.10
     WC   =   100.;   INIMIX=   1;  MIXPRE=   1;  MAXMIX= -45

 Intra band minimization:
   WEIMIN = 0.0000     energy-eigenvalue tresh-hold
   EBREAK =  0.13E-10  absolut break condition
   DEPER  =   0.30     relativ break condition  

   TIME   =   0.40     timestep for ELM

  volume/ion in A,a.u.               =      40.90       275.98
  Fermi-wavevector in a.u.,A,eV,Ry     =   0.754282  1.425387  7.740924  0.568942
  Thomas-Fermi vector in A             =   1.851914
 
 Write flags
   LWAVE        =      T    write WAVECAR
   LDOWNSAMPLE  =      F    k-point downsampling of WAVECAR
   LCHARG       =      T    write CHGCAR
   LVTOT        =      F    write LOCPOT, total local potential
   LVHAR        =      F    write LOCPOT, Hartree potential only
   LELF         =      F    write electronic localiz. function (ELF)
   LORBIT       =     11    0 simple, 1 ext, 2 COOP (PROOUT), +10 PAW based schemes


 Dipole corrections
   LMONO  =      F    monopole corrections only (constant potential shift)
   LDIPOL =      T    correct potential (dipole corrections)
   IDIPOL =      3    1-x, 2-y, 3-z, 4-all directions 
   EPSILON=  1.0000000 bulk dielectric constant

 Exchange correlation treatment:
   GGA     =    --    GGA type
   LEXCH   =     8    internal setting for exchange type
   VOSKOWN=      0    Vosko Wilk Nusair interpolation
   LHFCALC =     F    Hartree Fock is set to
   LHFONE  =     F    Hartree Fock one center treatment
   AEXX    =    0.0000 exact exchange contribution

 Linear response parameters
   LEPSILON=     F    determine dielectric tensor
   LRPA    =     F    only Hartree local field effects (RPA)
   LNABLA  =     F    use nabla operator in PAW spheres
   LVEL    =     F    velocity operator in full k-point grid
   LINTERFAST=   F  fast interpolation
   KINTER  =     0    interpolate to denser k-point grid
   CSHIFT  =0.1000    complex shift for real part using Kramers Kronig
   OMEGAMAX=  -1.0    maximum frequency
   DEG_THRESHOLD= 0.2000000E-02 threshold for treating states as degnerate
   RTIME   =   -0.100 relaxation time in fs
  (WPLASMAI=    0.000 imaginary part of plasma frequency in eV, 0.658/RTIME)
   DFIELD  = 0.0000000 0.0000000 0.0000000 field for delta impulse in time
 
 Orbital magnetization related:
   ORBITALMAG=     F  switch on orbital magnetization
   LCHIMAG   =     F  perturbation theory with respect to B field
   DQ        =  0.001000  dq finite difference perturbation B field
   LLRAUG    =     F  two centre corrections for induced B field



--------------------------------------------------------------------------------------------------------


 Static calculation
 charge density and potential will be updated during run
 spin polarized calculation
 Exact diagonalization
 preconditioned conjugated gradient (Jacobi prec)
    charged. constant during bandupdate  
    band-by band algorithm
 perform sub-space diagonalisation
    after iterative eigenvector-optimisation
 modified Broyden-mixing scheme, WC =      100.0
 initial mixing is a Kerker type mixing with AMIX =  0.4000 and BMIX =      1.0000
 Hartree-type preconditioning will be used
 using additional bands          188
 reciprocal scheme for non local part
 calculate Harris-corrections to forces 
   (improved forces if not selfconsistent)
 use gradient corrections 
 use of overlap-Matrix (Vanderbilt PP)
 Gauss-broadening in eV      SIGMA  =   0.05


--------------------------------------------------------------------------------------------------------


  energy-cutoff  :      650.00
  volume of cell :       81.79
      direct lattice vectors                 reciprocal lattice vectors
     1.255226435 -2.174112687  0.000000000     0.398334505 -0.229978880  0.000000000
     1.255226435  2.174112687  0.000000000     0.398334505  0.229978880  0.000000000
     0.000000000  0.000000000 14.985750402     0.000000000  0.000000000  0.066730058

  length of vectors
     2.510450035  2.510450035 14.985750402     0.459957240  0.459957240  0.066730058


 
 old parameters found on file WAVECAR:
  energy-cutoff  :      650.00
  volume of cell :       81.79
      direct lattice vectors                 reciprocal lattice vectors
     1.255226435 -2.174112687  0.000000000     0.398334505 -0.229978880  0.000000000
     1.255226435  2.174112687  0.000000000     0.398334505  0.229978880  0.000000000
     0.000000000  0.000000000 14.985750402     0.000000000  0.000000000  0.066730058

  length of vectors

 
 k-points in units of 2pi/SCALE and weight: 12x12x1                                 
   0.00000000  0.00000000  0.00000000       0.007
   0.03319454 -0.01916491  0.00000000       0.042
   0.06638908 -0.03832981  0.00000000       0.042
   0.09958363 -0.05749472  0.00000000       0.042
   0.13277817 -0.07665963  0.00000000       0.042
   0.16597271 -0.09582453  0.00000000       0.042
   0.19916725 -0.11498944  0.00000000       0.021
   0.06638908  0.00000000  0.00000000       0.042
   0.09958363 -0.01916491  0.00000000       0.083
   0.13277817 -0.03832981  0.00000000       0.083
   0.16597271 -0.05749472  0.00000000       0.083
   0.19916725 -0.07665963  0.00000000       0.083
   0.13277817  0.00000000  0.00000000       0.042
   0.16597271 -0.01916491  0.00000000       0.083
   0.19916725 -0.03832981  0.00000000       0.083
   0.23236179 -0.05749472  0.00000000       0.042
   0.19916725  0.00000000  0.00000000       0.042
   0.23236179 -0.01916491  0.00000000       0.083
   0.26555634  0.00000000  0.00000000       0.014
 
 k-points in reciprocal lattice and weights: 12x12x1                                 
   0.00000000  0.00000000  0.00000000       0.007
   0.08333333 -0.00000000  0.00000000       0.042
   0.16666667  0.00000000  0.00000000       0.042
   0.25000000 -0.00000000  0.00000000       0.042
   0.33333333 -0.00000000  0.00000000       0.042
   0.41666667 -0.00000000  0.00000000       0.042
   0.50000000 -0.00000000  0.00000000       0.021
   0.08333333  0.08333333  0.00000000       0.042
   0.16666667  0.08333333  0.00000000       0.083
   0.25000000  0.08333333  0.00000000       0.083
   0.33333333  0.08333333  0.00000000       0.083
   0.41666667  0.08333333  0.00000000       0.083
   0.16666667  0.16666667  0.00000000       0.042
   0.25000000  0.16666667  0.00000000       0.083
   0.33333333  0.16666667  0.00000000       0.083
   0.41666667  0.16666667  0.00000000       0.042
   0.25000000  0.25000000  0.00000000       0.042
   0.33333333  0.25000000  0.00000000       0.083
   0.33333333  0.33333333  0.00000000       0.014
 
 position of ions in fractional coordinates (direct lattice) 
   0.33333306  0.66666686  0.11141238
   0.66666686  0.33333306  0.11141238
 
 position of ions in cartesian coordinates  (Angst):
   1.25522634  0.72470526  1.66959805
   1.25522634 -0.72470526  1.66959805
 


--------------------------------------------------------------------------------------------------------


 k-point  1 :   0.0000 0.0000 0.0000  plane waves:    3063
 k-point  2 :   0.0833-0.0000 0.0000  plane waves:    3057
 k-point  3 :   0.1667 0.0000 0.0000  plane waves:    3081
 k-point  4 :   0.2500-0.0000 0.0000  plane waves:    3081
 k-point  5 :   0.3333-0.0000 0.0000  plane waves:    3087
 k-point  6 :   0.4167-0.0000 0.0000  plane waves:    3091
 k-point  7 :   0.5000-0.0000 0.0000  plane waves:    3092
 k-point  8 :   0.0833 0.0833 0.0000  plane waves:    3079
 k-point  9 :   0.1667 0.0833 0.0000  plane waves:    3079
 k-point 10 :   0.2500 0.0833 0.0000  plane waves:    3080
 k-point 11 :   0.3333 0.0833 0.0000  plane waves:    3080
 k-point 12 :   0.4167 0.0833 0.0000  plane waves:    3086
 k-point 13 :   0.1667 0.1667 0.0000  plane waves:    3069
 k-point 14 :   0.2500 0.1667 0.0000  plane waves:    3069
 k-point 15 :   0.3333 0.1667 0.0000  plane waves:    3081
 k-point 16 :   0.4167 0.1667 0.0000  plane waves:    3076
 k-point 17 :   0.2500 0.2500 0.0000  plane waves:    3065
 k-point 18 :   0.3333 0.2500 0.0000  plane waves:    3068
 k-point 19 :   0.3333 0.3333 0.0000  plane waves:    3051

 maximum and minimum number of plane-waves per node :      3092     3051

 maximum number of plane-waves:      3092
 maximum index in each direction: 
   IXMAX=    5   IYMAX=    5   IZMAX=   31
   IXMIN=   -5   IYMIN=   -5   IZMIN=  -31


 serial   3D FFT for wavefunctions
 parallel 3D FFT for charge:
    minimum data exchange during FFTs selected (reduces bandwidth)


 total amount of memory used by VASP MPI-rank0    79637. kBytes
=======================================================================

   base      :      30000. kBytes
   nonl-proj :       7628. kBytes
   fftplans  :       1927. kBytes
   grid      :       9719. kBytes
   one-center:         12. kBytes
   wavefun   :      30351. kBytes
 
     INWAV:  cpu time    1.5408: real time    2.2127
 Broyden mixing: mesh for mixing (old mesh)
   NGX = 11   NGY = 11   NGZ = 63
  (NGX  = 48   NGY  = 48   NGZ  =252)
  gives a total of   7623 points

 initial charge density was supplied:
 number of electron       8.0000000 magnetization       0.0000008
 keeping initial charge density in first step


--------------------------------------------------------------------------------------------------------


 Maximum index for augmentation-charges         1091 (set IRDMAX)


--------------------------------------------------------------------------------------------------------


 First call to EWALD:  gamma=   0.408
 Maximum number of real-space cells 5x 5x 1
 Maximum number of reciprocal cells 2x 2x 8

    FEWALD:  cpu time    0.0089: real time    0.0089


--------------------------------------- Iteration      1(   1)  ---------------------------------------


    POTLOK:  cpu time    0.0578: real time    0.0598
    SETDIJ:  cpu time    0.0043: real time    0.0043

 total amount of memory used by VASP MPI-rank0   569052. kBytes
=======================================================================

   base      :      30000. kBytes
   nonl-proj :       7628. kBytes
   fftplans  :       1927. kBytes
   grid      :       9719. kBytes
   one-center:         12. kBytes
   wavefun   :     519766. kBytes
 
    EDDIAG:  cpu time   98.4807: real time   98.7441
       DOS:  cpu time    0.0041: real time    0.0041
    --------------------------------------------
      LOOP:  cpu time   98.5470: real time   98.8124

 eigenvalue-minimisations  :     0
 total energy-change (2. order) :-0.1762176E+02  ( 0.0000000E+00)
 number of electron       8.0000000 magnetization       0.0000008
 augmentation part        8.0000000 magnetization       0.0000008

 DIPCOR: dipole corrections for dipol
 direction  3 min pos   145,
 dipolmoment           0.000000      0.000000      0.000054 electrons x Angstroem
 Tr[quadrupol]       -10.542135

 energy correction for charged system         0.000000 eV
 dipol+quadrupol energy correction           -0.000000 eV
 added-field ion interaction         -0.000590 eV  (added to PSCEN)


 Free energy of the ion-electron system (eV)
  ---------------------------------------------------
  alpha Z        PSCENC =         4.26478644
  Ewald energy   TEWEN  =       781.34178655
  -Hartree energ DENC   =     -1078.03145406
  -exchange      EXHF   =         0.00000000
  -V(xc)+E(xc)   XCENC  =        30.22127408
  PAW double counting   =       421.16254439     -423.16917880
  entropy T*S    EENTRO =        -0.00000000
  eigenvalues    EBANDS =       -89.12184479
  atomic energy  EATOM  =       335.71032239
  Solvation  Ediel_sol  =         0.00000000
  ---------------------------------------------------
  free energy    TOTEN  =       -17.62176381 eV

  energy without entropy =      -17.62176381  energy(sigma->0) =      -17.62176381


--------------------------------------------------------------------------------------------------------




 average (electrostatic) potential at core
  the test charge radii are     0.7672  0.5902
  (the norm of the test charge is              1.0000)
       1 -35.1979       2 -70.2067
 
 
 
 E-fermi :  -3.8090     XC(G=0):  -2.7839     alpha+bet : -2.4293


 spin component 1

 k-point     1 :       0.0000    0.0000    0.0000
  band No.  band energies     occupation 
      1     -21.6489      1.00000
      2      -9.2301      1.00000
      3      -5.3710      1.00000
      4      -5.3710      1.00000
      5       0.6632      0.00000
      6       1.6663      0.00000
      7       2.2072      0.00000
      8       4.0020      0.00000
      9       4.6638      0.00000
     10       7.3891      0.00000
     11       7.5154      0.00000
     12       7.5155      0.00000
     13       8.0874      0.00000
     14       9.7972      0.00000
     15      10.7310      0.00000
     16      13.9792      0.00000
     17      15.3870      0.00000
     18      20.3278      0.00000
     19      21.2413      0.00000
     20      22.5335      0.00000
     21      25.6545      0.00000
     22      25.6546      0.00000
     23      26.9762      0.00000
     24      28.6747      0.00000
     25      28.6748      0.00000
     26      30.7269      0.00000
     27      30.9273      0.00000
     28      31.6229      0.00000
     29      31.6230      0.00000
     30      32.3849      0.00000
     31      32.3850      0.00000
     32      32.7341      0.00000
     33      32.9416      0.00000
     34      33.2578      0.00000
     35      33.8414      0.00000
     36      33.8415      0.00000
     37      33.8785      0.00000
     38      33.8785      0.00000
     39      34.0076      0.00000
     40      34.0077      0.00000
     41      34.1119      0.00000
     42      34.1134      0.00000
     43      34.1157      0.00000
     44      34.1159      0.00000
     45      34.4471      0.00000
     46      35.3810      0.00000
     47      36.0543      0.00000
     48      36.0543      0.00000
     49      36.3712      0.00000
     50      36.3712      0.00000
     51      36.3811      0.00000
     52      36.4925      0.00000
     53      36.4926      0.00000
     54      36.7774      0.00000
     55      36.7775      0.00000
     56      36.7904      0.00000
     57      37.4893      0.00000
     58      38.6519      0.00000
     59      39.3346      0.00000
     60      39.8006      0.00000
     61      39.8007      0.00000
     62      40.4242      0.00000
     63      40.5512      0.00000
     64      40.5513      0.00000
     65      40.6144      0.00000
     66      40.6144      0.00000
     67      41.1578      0.00000
     68      41.1578      0.00000
     69      41.3084      0.00000
     70      41.6867      0.00000
     71      41.9591      0.00000
     72      44.3147      0.00000
     73      44.3877      0.00000
     74      44.3878      0.00000
     75      46.1157      0.00000
     76      46.1158      0.00000
     77      46.3122      0.00000
     78      46.3147      0.00000
     79      46.3148      0.00000
     80      46.7877      0.00000
     81      46.9646      0.00000
     82      46.9647      0.00000
     83      47.8187      0.00000
     84      49.0353      0.00000
     85      49.0354      0.00000
     86      49.9687      0.00000
     87      51.2863      0.00000
     88      51.7522      0.00000
     89      53.1111      0.00000
     90      53.1112      0.00000
     91      53.4371      0.00000
     92      53.4372      0.00000
     93      54.0027      0.00000
     94      54.1590      0.00000
     95      54.1591      0.00000
     96      54.3376      0.00000
     97      55.0559      0.00000
     98      55.1024      0.00000
     99      55.1025      0.00000
    100      58.9674      0.00000
    101      60.5666      0.00000
    102      61.4495      0.00000
    103      61.4495      0.00000
    104      61.9636      0.00000
    105      61.9637      0.00000
    106      62.3266      0.00000
    107      62.7264      0.00000
    108      62.7264      0.00000
    109      63.1824      0.00000
    110      63.2059      0.00000
    111      63.2059      0.00000
    112      64.5304      0.00000
    113      64.5986      0.00000
    114      68.6473      0.00000
    115      69.0539      0.00000
    116      69.0541      0.00000
    117      70.8997      0.00000
    118      71.4434      0.00000
    119      71.4434      0.00000
    120      71.8743      0.00000
    121      71.8744      0.00000
    122      72.0682      0.00000
    123      72.6469      0.00000
    124      72.6470      0.00000
    125      72.9511      0.00000
    126      72.9511      0.00000
    127      73.0036      0.00000
    128      75.2881      0.00000
    129      76.4619      0.00000
    130      77.3518      0.00000
    131      79.7605      0.00000
    132      81.4266      0.00000
    133      81.4266      0.00000
    134      81.8121      0.00000
    135      82.2215      0.00000
    136      83.1239      0.00000
    137      83.1240      0.00000
    138      83.4184      0.00000
    139      83.7989      0.00000
    140      83.7990      0.00000
    141      84.0792      0.00000
    142      84.0792      0.00000
    143      86.2467      0.00000
    144      86.6149      0.00000
    145      87.7214      0.00000
    146      87.7215      0.00000
    147      89.0545      0.00000
    148      89.0546      0.00000
    149      90.9989      0.00000
    150      90.9991      0.00000
    151      91.8430      0.00000
    152      92.0889      0.00000
    153      92.8653      0.00000
    154      94.0637      0.00000
    155      94.5912      0.00000
    156      94.5914      0.00000
    157      95.2336      0.00000
    158      95.8320      0.00000
    159      95.8320      0.00000
    160      95.9697      0.00000
    161      95.9698      0.00000
    162      96.3316      0.00000
    163      96.5529      0.00000
    164      96.6675      0.00000
    165      96.6676      0.00000
    166      96.7600      0.00000
    167      96.7603      0.00000
    168      96.8110      0.00000
    169      96.8111      0.00000
    170      96.8160      0.00000
    171      97.5035      0.00000
    172      97.5042      0.00000
    173      97.5785      0.00000
    174      97.5788      0.00000
    175      97.5927      0.00000
    176      97.6261      0.00000
    177      97.6264      0.00000
    178      97.6817      0.00000
    179      97.7164      0.00000
    180      97.7497      0.00000
    181      97.7720      0.00000
    182      97.7726      0.00000
    183      98.2470      0.00000
    184      99.3938      0.00000
    185      99.3938      0.00000
    186      99.6785      0.00000
    187      99.9957      0.00000
    188      99.9961      0.00000
    189     100.2146      0.00000
    190     100.2149      0.00000
    191     100.3612      0.00000
    192     100.4083      0.00000

 k-point     2 :       0.0833   -0.0000    0.0000
  band No.  band energies     occupation 
      1     -21.5161      1.00000
      2      -9.0517      1.00000
      3      -5.9289      1.00000
      4      -5.6273      1.00000
      5       0.8922      0.00000
      6       1.8748      0.00000
      7       2.4303      0.00000
      8       4.1957      0.00000
      9       4.8913      0.00000
     10       7.3931      0.00000
     11       7.4007      0.00000
     12       8.1035      0.00000
     13       8.4309      0.00000
     14       9.6264      0.00000
     15      11.0594      0.00000
     16      14.0895      0.00000
     17      15.6285      0.00000
     18      20.3353      0.00000
     19      21.6364      0.00000
     20      22.6795      0.00000
     21      23.8576      0.00000
     22      24.3604      0.00000
     23      26.7150      0.00000
     24      27.5189      0.00000
     25      28.7873      0.00000
     26      28.9558      0.00000
     27      29.4068      0.00000
     28      29.6357      0.00000
     29      30.2832      0.00000
     30      30.3923      0.00000
     31      31.0240      0.00000
     32      31.1858      0.00000
     33      31.4940      0.00000
     34      31.5110      0.00000
     35      31.6545      0.00000
     36      31.8238      0.00000
     37      31.8760      0.00000
     38      33.3717      0.00000
     39      33.7958      0.00000
     40      33.8509      0.00000
     41      34.1608      0.00000
     42      34.4103      0.00000
     43      34.8659      0.00000
     44      35.0568      0.00000
     45      35.4101      0.00000
     46      36.0951      0.00000
     47      36.5981      0.00000
     48      36.7721      0.00000
     49      36.8446      0.00000
     50      36.9896      0.00000
     51      37.4623      0.00000
     52      37.4656      0.00000
     53      37.8246      0.00000
     54      38.4173      0.00000
     55      38.5743      0.00000
     56      38.8278      0.00000
     57      39.0834      0.00000
     58      39.3234      0.00000
     59      39.3247      0.00000
     60      39.4936      0.00000
     61      39.7045      0.00000
     62      40.1654      0.00000
     63      40.8005      0.00000
     64      41.0683      0.00000
     65      41.1833      0.00000
     66      41.9008      0.00000
     67      41.9716      0.00000
     68      42.3061      0.00000
     69      43.0058      0.00000
     70      43.5581      0.00000
     71      43.6193      0.00000
     72      43.6547      0.00000
     73      44.0683      0.00000
     74      44.3443      0.00000
     75      44.3502      0.00000
     76      45.5262      0.00000
     77      46.0964      0.00000
     78      46.6346      0.00000
     79      47.1467      0.00000
     80      47.3242      0.00000
     81      49.0332      0.00000
     82      49.2954      0.00000
     83      49.3523      0.00000
     84      49.4695      0.00000
     85      49.7037      0.00000
     86      49.9599      0.00000
     87      51.4040      0.00000
     88      51.6911      0.00000
     89      51.8272      0.00000
     90      52.0830      0.00000
     91      52.2023      0.00000
     92      52.4828      0.00000
     93      52.8271      0.00000
     94      55.1162      0.00000
     95      56.6537      0.00000
     96      56.7166      0.00000
     97      56.7514      0.00000
     98      57.0005      0.00000
     99      57.6505      0.00000
    100      58.0782      0.00000
    101      59.5490      0.00000
    102      59.6861      0.00000
    103      59.9179      0.00000
    104      59.9253      0.00000
    105      60.4870      0.00000
    106      62.1306      0.00000
    107      64.3656      0.00000
    108      64.4447      0.00000
    109      65.0654      0.00000
    110      65.0864      0.00000
    111      65.2131      0.00000
    112      66.3372      0.00000
    113      66.5152      0.00000
    114      67.2393      0.00000
    115      67.5953      0.00000
    116      68.1512      0.00000
    117      68.9056      0.00000
    118      69.7242      0.00000
    119      69.8285      0.00000
    120      69.9664      0.00000
    121      70.5069      0.00000
    122      72.5150      0.00000
    123      74.7894      0.00000
    124      74.8324      0.00000
    125      75.1297      0.00000
    126      75.2198      0.00000
    127      76.7406      0.00000
    128      77.3334      0.00000
    129      77.9525      0.00000
    130      78.4518      0.00000
    131      78.4867      0.00000
    132      78.6524      0.00000
    133      79.8318      0.00000
    134      80.9551      0.00000
    135      80.9787      0.00000
    136      81.0861      0.00000
    137      81.6972      0.00000
    138      82.8519      0.00000
    139      83.2069      0.00000
    140      84.2202      0.00000
    141      84.5141      0.00000
    142      84.7482      0.00000
    143      86.3638      0.00000
    144      87.0283      0.00000
    145      87.2246      0.00000
    146      87.7183      0.00000
    147      88.7770      0.00000
    148      89.0764      0.00000
    149      89.2579      0.00000
    150      89.6963      0.00000
    151      89.8377      0.00000
    152      90.0007      0.00000
    153      90.0541      0.00000
    154      90.3071      0.00000
    155      90.3284      0.00000
    156      90.3321      0.00000
    157      91.3201      0.00000
    158      91.9408      0.00000
    159      92.4801      0.00000
    160      92.5296      0.00000
    161      92.6381      0.00000
    162      92.6746      0.00000
    163      93.9040      0.00000
    164      93.9511      0.00000
    165      94.0417      0.00000
    166      94.1244      0.00000
    167      94.6406      0.00000
    168      95.8964      0.00000
    169      95.9771      0.00000
    170      96.4249      0.00000
    171      96.5573      0.00000
    172      96.7969      0.00000
    173      96.8963      0.00000
    174      97.2104      0.00000
    175      97.6752      0.00000
    176      97.7876      0.00000
    177      97.8577      0.00000
    178      98.0259      0.00000
    179      98.0574      0.00000
    180      98.4109      0.00000
    181      98.8287      0.00000
    182      99.1854      0.00000
    183      99.5539      0.00000
    184      99.9053      0.00000
    185     100.2256      0.00000
    186     100.3160      0.00000
    187     100.4070      0.00000
    188     100.8619      0.00000
    189     101.3727      0.00000
    190     101.7405      0.00000
    191     101.8408      0.00000
    192     102.2646      0.00000

 k-point     3 :       0.1667    0.0000    0.0000
  band No.  band energies     occupation 
      1     -21.1249      1.00000
      2      -8.5245      1.00000
      3      -7.3350      1.00000
      4      -6.2517      1.00000
      5       1.5529      0.00000
      6       2.4873      0.00000
      7       3.0913      0.00000
      8       4.7263      0.00000
      9       5.5190      0.00000
     10       7.0625      0.00000
     11       7.1993      0.00000
     12       9.3040      0.00000
     13       9.5530      0.00000
     14       9.7004      0.00000
     15      11.9386      0.00000
     16      14.4710      0.00000
     17      16.2998      0.00000
     18      19.6334      0.00000
     19      21.9729      0.00000
     20      21.9955      0.00000
     21      22.5779      0.00000
     22      23.1666      0.00000
     23      23.6817      0.00000
     24      24.4312      0.00000
     25      24.5827      0.00000
     26      26.4414      0.00000
     27      27.0831      0.00000
     28      27.6550      0.00000
     29      27.7072      0.00000
     30      28.6908      0.00000
     31      29.1958      0.00000
     32      29.5031      0.00000
     33      29.5363      0.00000
     34      29.8187      0.00000
     35      30.5491      0.00000
     36      31.1814      0.00000
     37      31.2857      0.00000
     38      31.6520      0.00000
     39      31.9126      0.00000
     40      31.9817      0.00000
     41      32.6798      0.00000
     42      32.7682      0.00000
     43      33.6908      0.00000
     44      35.6338      0.00000
     45      35.8180      0.00000
     46      36.3302      0.00000
     47      36.5155      0.00000
     48      36.6524      0.00000
     49      37.1008      0.00000
     50      37.8154      0.00000
     51      37.9186      0.00000
     52      38.8211      0.00000
     53      39.5077      0.00000
     54      39.9846      0.00000
     55      40.0642      0.00000
     56      40.1618      0.00000
     57      40.7032      0.00000
     58      40.7101      0.00000
     59      41.0181      0.00000
     60      41.2930      0.00000
     61      41.7822      0.00000
     62      42.1278      0.00000
     63      42.2526      0.00000
     64      42.6734      0.00000
     65      42.8524      0.00000
     66      42.9257      0.00000
     67      43.2941      0.00000
     68      43.8564      0.00000
     69      44.2535      0.00000
     70      44.6738      0.00000
     71      45.1624      0.00000
     72      45.2701      0.00000
     73      45.9915      0.00000
     74      46.3084      0.00000
     75      47.0550      0.00000
     76      47.2034      0.00000
     77      47.4252      0.00000
     78      47.6190      0.00000
     79      48.3743      0.00000
     80      48.7718      0.00000
     81      49.3731      0.00000
     82      49.6636      0.00000
     83      49.9385      0.00000
     84      50.1976      0.00000
     85      51.7532      0.00000
     86      51.9145      0.00000
     87      52.5570      0.00000
     88      52.6842      0.00000
     89      52.8453      0.00000
     90      53.0778      0.00000
     91      53.2470      0.00000
     92      53.3451      0.00000
     93      53.8574      0.00000
     94      56.1365      0.00000
     95      57.5103      0.00000
     96      57.8650      0.00000
     97      57.9203      0.00000
     98      58.0263      0.00000
     99      58.4508      0.00000
    100      58.8720      0.00000
    101      59.9212      0.00000
    102      60.0406      0.00000
    103      60.2363      0.00000
    104      61.5124      0.00000
    105      62.7204      0.00000
    106      63.0783      0.00000
    107      63.1138      0.00000
    108      65.0143      0.00000
    109      65.0735      0.00000
    110      65.2811      0.00000
    111      66.4410      0.00000
    112      67.0945      0.00000
    113      67.6678      0.00000
    114      67.7520      0.00000
    115      68.1377      0.00000
    116      68.5533      0.00000
    117      68.6804      0.00000
    118      69.0993      0.00000
    119      71.1134      0.00000
    120      72.2079      0.00000
    121      72.9446      0.00000
    122      73.4049      0.00000
    123      73.7525      0.00000
    124      74.2453      0.00000
    125      75.8465      0.00000
    126      76.6089      0.00000
    127      76.6197      0.00000
    128      76.8600      0.00000
    129      77.4656      0.00000
    130      77.8721      0.00000
    131      78.2895      0.00000
    132      79.2428      0.00000
    133      79.2676      0.00000
    134      79.3651      0.00000
    135      79.9940      0.00000
    136      80.0704      0.00000
    137      80.8426      0.00000
    138      81.4823      0.00000
    139      82.2375      0.00000
    140      82.2691      0.00000
    141      82.4099      0.00000
    142      82.5945      0.00000
    143      82.8985      0.00000
    144      83.1334      0.00000
    145      83.6473      0.00000
    146      84.2718      0.00000
    147      84.7282      0.00000
    148      85.1607      0.00000
    149      85.3512      0.00000
    150      85.4765      0.00000
    151      86.2705      0.00000
    152      87.2638      0.00000
    153      87.3376      0.00000
    154      87.7907      0.00000
    155      88.5005      0.00000
    156      89.0772      0.00000
    157      89.4777      0.00000
    158      89.6820      0.00000
    159      89.7472      0.00000
    160      89.8425      0.00000
    161      90.4117      0.00000
    162      90.5942      0.00000
    163      90.8986      0.00000
    164      91.7252      0.00000
    165      92.0840      0.00000
    166      92.2718      0.00000
    167      92.3059      0.00000
    168      93.7033      0.00000
    169      94.5854      0.00000
    170      94.5999      0.00000
    171      94.7147      0.00000
    172      95.0749      0.00000
    173      95.2981      0.00000
    174      95.3047      0.00000
    175      95.9209      0.00000
    176      96.8024      0.00000
    177      97.0992      0.00000
    178      97.9866      0.00000
    179      98.0086      0.00000
    180      98.4004      0.00000
    181      98.4864      0.00000
    182      98.6446      0.00000
    183      98.7907      0.00000
    184     100.1537      0.00000
    185     100.3753      0.00000
    186     100.7339      0.00000
    187     100.8542      0.00000
    188     100.9832      0.00000
    189     101.3125      0.00000
    190     101.4700      0.00000
    191     102.1989      0.00000
    192     102.3297      0.00000

 k-point     4 :       0.2500   -0.0000    0.0000
  band No.  band energies     occupation 
      1     -20.5026      1.00000
      2      -9.1144      1.00000
      3      -7.6789      1.00000
      4      -6.9757      1.00000
      5       2.6114      0.00000
      6       3.3733      0.00000
      7       4.1754      0.00000
      8       5.0273      0.00000
      9       6.2706      0.00000
     10       6.6223      0.00000
     11       7.2941      0.00000
     12      10.2125      0.00000
     13      10.5253      0.00000
     14      11.9571      0.00000
     15      13.0762      0.00000
     16      15.0146      0.00000
     17      17.2118      0.00000
     18      17.7663      0.00000
     19      18.9980      0.00000
     20      20.2157      0.00000
     21      20.2230      0.00000
     22      21.1070      0.00000
     23      21.9996      0.00000
     24      22.6488      0.00000
     25      23.5212      0.00000
     26      24.1035      0.00000
     27      24.7173      0.00000
     28      26.1695      0.00000
     29      26.1941      0.00000
     30      26.9153      0.00000
     31      27.6380      0.00000
     32      27.6515      0.00000
     33      27.9814      0.00000
     34      27.9958      0.00000
     35      28.5241      0.00000
     36      29.1361      0.00000
     37      30.3299      0.00000
     38      30.3872      0.00000
     39      30.5464      0.00000
     40      31.1396      0.00000
     41      32.3248      0.00000
     42      32.6348      0.00000
     43      32.9827      0.00000
     44      33.3362      0.00000
     45      34.3358      0.00000
     46      34.7724      0.00000
     47      35.4783      0.00000
     48      35.5085      0.00000
     49      37.3837      0.00000
     50      38.6945      0.00000
     51      38.8727      0.00000
     52      39.1095      0.00000
     53      39.4144      0.00000
     54      40.7001      0.00000
     55      40.7899      0.00000
     56      40.9276      0.00000
     57      41.1940      0.00000
     58      41.9029      0.00000
     59      42.7784      0.00000
     60      43.1207      0.00000
     61      43.1861      0.00000
     62      43.7462      0.00000
     63      43.9306      0.00000
     64      44.1961      0.00000
     65      44.2525      0.00000
     66      44.7130      0.00000
     67      46.2715      0.00000
     68      46.4832      0.00000
     69      46.5465      0.00000
     70      46.5866      0.00000
     71      46.8083      0.00000
     72      47.8320      0.00000
     73      47.9067      0.00000
     74      47.9749      0.00000
     75      48.2467      0.00000
     76      48.9015      0.00000
     77      50.1398      0.00000
     78      50.1649      0.00000
     79      50.8503      0.00000
     80      50.8869      0.00000
     81      51.2687      0.00000
     82      51.5321      0.00000
     83      52.1374      0.00000
     84      52.4087      0.00000
     85      53.9513      0.00000
     86      53.9880      0.00000
     87      54.5595      0.00000
     88      54.8328      0.00000
     89      55.5404      0.00000
     90      56.1298      0.00000
     91      56.2422      0.00000
     92      56.5302      0.00000
     93      56.5571      0.00000
     94      56.8100      0.00000
     95      56.9179      0.00000
     96      57.7283      0.00000
     97      58.6561      0.00000
     98      58.6745      0.00000
     99      59.0783      0.00000
    100      60.6720      0.00000
    101      61.5614      0.00000
    102      62.6093      0.00000
    103      62.6798      0.00000
    104      63.7027      0.00000
    105      63.8902      0.00000
    106      64.7740      0.00000
    107      64.8222      0.00000
    108      66.0119      0.00000
    109      66.0692      0.00000
    110      66.2366      0.00000
    111      66.2932      0.00000
    112      66.8225      0.00000
    113      67.0445      0.00000
    114      68.6620      0.00000
    115      69.1570      0.00000
    116      69.5739      0.00000
    117      69.7104      0.00000
    118      70.7351      0.00000
    119      72.0805      0.00000
    120      72.1371      0.00000
    121      72.1710      0.00000
    122      72.3055      0.00000
    123      72.5450      0.00000
    124      74.3089      0.00000
    125      74.4864      0.00000
    126      74.7269      0.00000
    127      75.6022      0.00000
    128      75.7308      0.00000
    129      75.7489      0.00000
    130      75.9192      0.00000
    131      76.0921      0.00000
    132      76.2659      0.00000
    133      77.2349      0.00000
    134      77.5558      0.00000
    135      77.5762      0.00000
    136      78.3590      0.00000
    137      78.3825      0.00000
    138      78.5610      0.00000
    139      78.6697      0.00000
    140      79.7217      0.00000
    141      80.2640      0.00000
    142      80.3870      0.00000
    143      80.4792      0.00000
    144      81.4756      0.00000
    145      81.7001      0.00000
    146      82.1550      0.00000
    147      82.1728      0.00000
    148      82.4534      0.00000
    149      82.5501      0.00000
    150      82.6958      0.00000
    151      82.7219      0.00000
    152      83.0308      0.00000
    153      83.1407      0.00000
    154      85.9916      0.00000
    155      86.1182      0.00000
    156      88.2528      0.00000
    157      88.2718      0.00000
    158      88.3120      0.00000
    159      89.2632      0.00000
    160      89.7735      0.00000
    161      89.9784      0.00000
    162      90.1520      0.00000
    163      90.2384      0.00000
    164      90.5273      0.00000
    165      91.6547      0.00000
    166      91.7806      0.00000
    167      92.3151      0.00000
    168      92.6477      0.00000
    169      93.1877      0.00000
    170      93.2167      0.00000
    171      93.8950      0.00000
    172      94.5380      0.00000
    173      94.5511      0.00000
    174      94.8785      0.00000
    175      95.5821      0.00000
    176      95.6302      0.00000
    177      95.6769      0.00000
    178      95.7983      0.00000
    179      96.3356      0.00000
    180      96.6774      0.00000
    181      97.8762      0.00000
    182      98.1167      0.00000
    183      98.4427      0.00000
    184      99.1462      0.00000
    185      99.2815      0.00000
    186      99.5048      0.00000
    187      99.5167      0.00000
    188      99.6262      0.00000
    189      99.7077      0.00000
    190      99.9497      0.00000
    191     100.1989      0.00000
    192     101.5658      0.00000

 k-point     5 :       0.3333   -0.0000    0.0000
  band No.  band energies     occupation 
      1     -19.7179      1.00000
      2     -10.8855      1.00000
      3      -7.5977      1.00000
      4      -6.5920      1.00000
      5       3.0103      0.00000
      6       4.0119      0.00000
      7       5.4276      0.00000
      8       5.6193      0.00000
      9       6.5467      0.00000
     10       7.7100      0.00000
     11       8.4501      0.00000
     12      11.3964      0.00000
     13      11.9111      0.00000
     14      13.6094      0.00000
     15      14.4761      0.00000
     16      14.5655      0.00000
     17      15.7952      0.00000
     18      16.3342      0.00000
     19      16.7603      0.00000
     20      17.7015      0.00000
     21      18.5607      0.00000
     22      19.6223      0.00000
     23      19.8117      0.00000
     24      20.0384      0.00000
     25      22.6251      0.00000
     26      23.3163      0.00000
     27      24.6069      0.00000
     28      24.7026      0.00000
     29      25.1122      0.00000
     30      25.8111      0.00000
     31      26.2284      0.00000
     32      26.6670      0.00000
     33      26.8836      0.00000
     34      26.8935      0.00000
     35      27.4719      0.00000
     36      27.9184      0.00000
     37      29.2706      0.00000
     38      29.2819      0.00000
     39      29.3847      0.00000
     40      29.4580      0.00000
     41      30.3041      0.00000
     42      31.6180      0.00000
     43      32.7131      0.00000
     44      33.1796      0.00000
     45      33.7448      0.00000
     46      33.9048      0.00000
     47      34.6255      0.00000
     48      35.5198      0.00000
     49      36.4371      0.00000
     50      36.9944      0.00000
     51      37.1756      0.00000
     52      39.2959      0.00000
     53      39.3851      0.00000
     54      39.7892      0.00000
     55      39.8173      0.00000
     56      41.6333      0.00000
     57      41.6984      0.00000
     58      42.5349      0.00000
     59      43.9233      0.00000
     60      44.2978      0.00000
     61      45.6256      0.00000
     62      46.0102      0.00000
     63      46.1459      0.00000
     64      46.6869      0.00000
     65      46.7004      0.00000
     66      46.9754      0.00000
     67      47.5504      0.00000
     68      47.7824      0.00000
     69      48.1465      0.00000
     70      48.1975      0.00000
     71      48.3136      0.00000
     72      49.6407      0.00000
     73      50.6476      0.00000
     74      50.6941      0.00000
     75      50.7188      0.00000
     76      50.8384      0.00000
     77      52.3879      0.00000
     78      53.4514      0.00000
     79      54.1579      0.00000
     80      54.1746      0.00000
     81      54.6573      0.00000
     82      54.8442      0.00000
     83      54.9160      0.00000
     84      55.0337      0.00000
     85      55.4063      0.00000
     86      55.5134      0.00000
     87      56.1432      0.00000
     88      56.1869      0.00000
     89      57.2328      0.00000
     90      58.5356      0.00000
     91      58.6066      0.00000
     92      58.7521      0.00000
     93      58.9590      0.00000
     94      59.6903      0.00000
     95      60.0678      0.00000
     96      60.7541      0.00000
     97      61.4223      0.00000
     98      61.6065      0.00000
     99      61.7015      0.00000
    100      62.6626      0.00000
    101      63.0473      0.00000
    102      63.1352      0.00000
    103      64.7681      0.00000
    104      65.1167      0.00000
    105      65.1780      0.00000
    106      65.2431      0.00000
    107      65.6193      0.00000
    108      65.7790      0.00000
    109      66.6087      0.00000
    110      66.9671      0.00000
    111      67.1949      0.00000
    112      67.9837      0.00000
    113      68.0102      0.00000
    114      68.2578      0.00000
    115      68.3269      0.00000
    116      68.4377      0.00000
    117      68.8707      0.00000
    118      69.1257      0.00000
    119      69.3476      0.00000
    120      69.4920      0.00000
    121      69.5989      0.00000
    122      71.0505      0.00000
    123      71.4654      0.00000
    124      71.5772      0.00000
    125      71.8094      0.00000
    126      71.9245      0.00000
    127      72.1372      0.00000
    128      73.4329      0.00000
    129      73.9913      0.00000
    130      74.8552      0.00000
    131      75.0500      0.00000
    132      75.9241      0.00000
    133      76.0232      0.00000
    134      76.2436      0.00000
    135      76.2658      0.00000
    136      76.4744      0.00000
    137      76.7132      0.00000
    138      76.9622      0.00000
    139      76.9849      0.00000
    140      77.5841      0.00000
    141      77.7645      0.00000
    142      78.4480      0.00000
    143      78.6151      0.00000
    144      78.9633      0.00000
    145      79.6867      0.00000
    146      80.4701      0.00000
    147      81.0719      0.00000
    148      81.6770      0.00000
    149      81.9838      0.00000
    150      82.1167      0.00000
    151      82.6433      0.00000
    152      83.3216      0.00000
    153      84.6272      0.00000
    154      84.8492      0.00000
    155      86.3168      0.00000
    156      86.5121      0.00000
    157      86.5328      0.00000
    158      86.5456      0.00000
    159      87.6252      0.00000
    160      88.0782      0.00000
    161      88.6227      0.00000
    162      88.7469      0.00000
    163      88.7822      0.00000
    164      89.0309      0.00000
    165      89.4010      0.00000
    166      89.5040      0.00000
    167      89.7517      0.00000
    168      90.4395      0.00000
    169      90.5893      0.00000
    170      91.2201      0.00000
    171      91.3891      0.00000
    172      92.3847      0.00000
    173      92.8788      0.00000
    174      93.0428      0.00000
    175      93.1961      0.00000
    176      93.3593      0.00000
    177      94.8742      0.00000
    178      95.4382      0.00000
    179      95.9935      0.00000
    180      96.9198      0.00000
    181      96.9853      0.00000
    182      97.0200      0.00000
    183      97.2885      0.00000
    184      97.6693      0.00000
    185      97.7154      0.00000
    186      97.7752      0.00000
    187      97.7781      0.00000
    188      97.8909      0.00000
    189      98.1764      0.00000
    190      98.7519      0.00000
    191      98.7738      0.00000
    192      99.7485      0.00000

 k-point     6 :       0.4167   -0.0000    0.0000
  band No.  band energies     occupation 
      1     -18.9472      1.00000
      2     -12.3016      1.00000
      3      -8.0059      1.00000
      4      -5.4783      1.00000
      5       1.5132      0.00000
      6       5.3412      0.00000
      7       6.7602      0.00000
      8       7.1943      0.00000
      9       7.8120      0.00000
     10       9.4660      0.00000
     11      10.2171      0.00000
     12      11.1943      0.00000
     13      11.8984      0.00000
     14      12.8965      0.00000
     15      13.1414      0.00000
     16      14.0578      0.00000
     17      14.4928      0.00000
     18      15.2223      0.00000
     19      16.5488      0.00000
     20      16.6858      0.00000
     21      17.5472      0.00000
     22      18.8857      0.00000
     23      19.3929      0.00000
     24      19.9781      0.00000
     25      20.8632      0.00000
     26      21.4727      0.00000
     27      24.4005      0.00000
     28      24.4189      0.00000
     29      24.4673      0.00000
     30      25.3337      0.00000
     31      25.5852      0.00000
     32      26.2236      0.00000
     33      26.2302      0.00000
     34      26.2511      0.00000
     35      26.8207      0.00000
     36      26.9388      0.00000
     37      28.3143      0.00000
     38      28.4714      0.00000
     39      28.5977      0.00000
     40      28.8009      0.00000
     41      29.4668      0.00000
     42      30.9535      0.00000
     43      32.3290      0.00000
     44      32.5029      0.00000
     45      33.0969      0.00000
     46      33.1138      0.00000
     47      33.7323      0.00000
     48      34.8703      0.00000
     49      35.0591      0.00000
     50      36.4989      0.00000
     51      36.8980      0.00000
     52      38.8202      0.00000
     53      38.8993      0.00000
     54      39.1604      0.00000
     55      39.9113      0.00000
     56      41.6255      0.00000
     57      42.4198      0.00000
     58      43.5816      0.00000
     59      44.0912      0.00000
     60      45.5582      0.00000
     61      45.6685      0.00000
     62      46.3674      0.00000
     63      46.5862      0.00000
     64      46.8483      0.00000
     65      46.9810      0.00000
     66      49.6468      0.00000
     67      50.8167      0.00000
     68      50.9926      0.00000
     69      51.2702      0.00000
     70      51.7458      0.00000
     71      52.4760      0.00000
     72      52.6729      0.00000
     73      52.6824      0.00000
     74      52.7492      0.00000
     75      53.8447      0.00000
     76      53.9425      0.00000
     77      54.4153      0.00000
     78      54.4432      0.00000
     79      54.9997      0.00000
     80      55.3605      0.00000
     81      55.5014      0.00000
     82      55.6528      0.00000
     83      56.6741      0.00000
     84      56.8829      0.00000
     85      56.9364      0.00000
     86      57.6963      0.00000
     87      57.8023      0.00000
     88      57.9733      0.00000
     89      59.6880      0.00000
     90      59.8083      0.00000
     91      60.1569      0.00000
     92      60.4208      0.00000
     93      61.1188      0.00000
     94      62.0308      0.00000
     95      62.4963      0.00000
     96      62.6516      0.00000
     97      62.8074      0.00000
     98      63.3497      0.00000
     99      63.4094      0.00000
    100      63.5233      0.00000
    101      63.8414      0.00000
    102      63.9960      0.00000
    103      64.4289      0.00000
    104      64.4470      0.00000
    105      64.7122      0.00000
    106      65.0649      0.00000
    107      65.4874      0.00000
    108      65.5276      0.00000
    109      65.8197      0.00000
    110      65.8997      0.00000
    111      66.0238      0.00000
    112      66.0308      0.00000
    113      66.1249      0.00000
    114      66.5649      0.00000
    115      66.6379      0.00000
    116      68.0882      0.00000
    117      68.7112      0.00000
    118      68.7668      0.00000
    119      69.7344      0.00000
    120      69.9160      0.00000
    121      70.0477      0.00000
    122      70.2739      0.00000
    123      70.5316      0.00000
    124      70.8427      0.00000
    125      72.0137      0.00000
    126      72.3231      0.00000
    127      72.5635      0.00000
    128      72.9476      0.00000
    129      73.1259      0.00000
    130      73.1654      0.00000
    131      73.7429      0.00000
    132      74.3422      0.00000
    133      74.6857      0.00000
    134      75.2988      0.00000
    135      75.5224      0.00000
    136      75.6298      0.00000
    137      76.1116      0.00000
    138      76.2565      0.00000
    139      76.5581      0.00000
    140      76.7125      0.00000
    141      77.9245      0.00000
    142      78.1252      0.00000
    143      78.3213      0.00000
    144      78.6942      0.00000
    145      79.5654      0.00000
    146      80.3568      0.00000
    147      80.7964      0.00000
    148      81.1139      0.00000
    149      81.3095      0.00000
    150      81.4601      0.00000
    151      81.9434      0.00000
    152      82.1227      0.00000
    153      82.9552      0.00000
    154      83.1768      0.00000
    155      83.2538      0.00000
    156      83.4207      0.00000
    157      84.3140      0.00000
    158      84.3938      0.00000
    159      84.6915      0.00000
    160      85.2571      0.00000
    161      85.5386      0.00000
    162      86.3482      0.00000
    163      86.9127      0.00000
    164      88.2774      0.00000
    165      88.4144      0.00000
    166      88.5032      0.00000
    167      88.5872      0.00000
    168      88.7919      0.00000
    169      88.9773      0.00000
    170      90.0765      0.00000
    171      90.1855      0.00000
    172      90.8426      0.00000
    173      91.0622      0.00000
    174      91.3516      0.00000
    175      91.3658      0.00000
    176      91.7894      0.00000
    177      91.8063      0.00000
    178      92.5552      0.00000
    179      93.5016      0.00000
    180      94.1990      0.00000
    181      94.3122      0.00000
    182      94.9014      0.00000
    183      95.2332      0.00000
    184      95.3511      0.00000
    185      97.7044      0.00000
    186      98.3588      0.00000
    187      98.6345      0.00000
    188      99.4513      0.00000
    189      99.9846      0.00000
    190     100.4837      0.00000
    191     100.8680      0.00000
    192     100.9257      0.00000

 k-point     7 :       0.5000   -0.0000    0.0000
  band No.  band energies     occupation 
      1     -18.5846      1.00000
      2     -12.8873      1.00000
      3      -8.1471      1.00000
      4      -4.9205      1.00000
      5       0.7765      0.00000
      6       5.6610      0.00000
      7       8.4260      0.00000
      8       8.8564      0.00000
      9       9.1297      0.00000
     10       9.7338      0.00000
     11      10.0909      0.00000
     12      10.2207      0.00000
     13      11.3785      0.00000
     14      12.1144      0.00000
     15      12.3100      0.00000
     16      12.8191      0.00000
     17      14.3285      0.00000
     18      15.6723      0.00000
     19      16.0236      0.00000
     20      16.9387      0.00000
     21      17.6418      0.00000
     22      18.1939      0.00000
     23      19.1771      0.00000
     24      19.4471      0.00000
     25      21.2788      0.00000
     26      22.3156      0.00000
     27      23.1172      0.00000
     28      23.6288      0.00000
     29      24.2556      0.00000
     30      24.8129      0.00000
     31      25.5074      0.00000
     32      25.7453      0.00000
     33      26.0034      0.00000
     34      26.0081      0.00000
     35      26.3771      0.00000
     36      27.3759      0.00000
     37      28.2094      0.00000
     38      28.3566      0.00000
     39      28.5815      0.00000
     40      28.9272      0.00000
     41      30.0478      0.00000
     42      30.1758      0.00000
     43      31.2601      0.00000
     44      31.9188      0.00000
     45      32.0973      0.00000
     46      32.8794      0.00000
     47      33.3164      0.00000
     48      34.2505      0.00000
     49      35.3813      0.00000
     50      36.8359      0.00000
     51      38.3351      0.00000
     52      38.6089      0.00000
     53      38.6106      0.00000
     54      38.9494      0.00000
     55      39.2526      0.00000
     56      39.5538      0.00000
     57      42.5626      0.00000
     58      44.3347      0.00000
     59      45.4501      0.00000
     60      45.6889      0.00000
     61      45.7085      0.00000
     62      46.4672      0.00000
     63      48.4023      0.00000
     64      48.5138      0.00000
     65      48.9880      0.00000
     66      49.1530      0.00000
     67      49.3489      0.00000
     68      50.7368      0.00000
     69      51.6228      0.00000
     70      52.2670      0.00000
     71      53.1548      0.00000
     72      53.6343      0.00000
     73      54.4851      0.00000
     74      54.6060      0.00000
     75      55.7305      0.00000
     76      55.9539      0.00000
     77      56.5102      0.00000
     78      56.6539      0.00000
     79      57.1468      0.00000
     80      57.5274      0.00000
     81      57.6271      0.00000
     82      57.7881      0.00000
     83      57.8015      0.00000
     84      57.9087      0.00000
     85      57.9451      0.00000
     86      58.2086      0.00000
     87      58.2505      0.00000
     88      58.9403      0.00000
     89      59.0454      0.00000
     90      59.6429      0.00000
     91      59.8389      0.00000
     92      60.0448      0.00000
     93      60.2055      0.00000
     94      60.3658      0.00000
     95      60.5088      0.00000
     96      60.5476      0.00000
     97      60.6382      0.00000
     98      61.2327      0.00000
     99      61.7530      0.00000
    100      62.4571      0.00000
    101      63.5823      0.00000
    102      63.7383      0.00000
    103      64.1111      0.00000
    104      64.1274      0.00000
    105      64.6609      0.00000
    106      64.8566      0.00000
    107      64.8698      0.00000
    108      64.9713      0.00000
    109      65.0509      0.00000
    110      65.4257      0.00000
    111      65.8515      0.00000
    112      66.5235      0.00000
    113      66.7475      0.00000
    114      68.3715      0.00000
    115      69.4276      0.00000
    116      70.0225      0.00000
    117      70.2813      0.00000
    118      70.3735      0.00000
    119      70.4940      0.00000
    120      70.6404      0.00000
    121      71.0811      0.00000
    122      71.4725      0.00000
    123      71.6661      0.00000
    124      71.7950      0.00000
    125      72.2294      0.00000
    126      72.5761      0.00000
    127      72.8509      0.00000
    128      72.9276      0.00000
    129      73.7127      0.00000
    130      73.7215      0.00000
    131      73.7428      0.00000
    132      73.9139      0.00000
    133      74.6235      0.00000
    134      75.4182      0.00000
    135      75.5468      0.00000
    136      75.9037      0.00000
    137      76.0196      0.00000
    138      76.3165      0.00000
    139      76.4746      0.00000
    140      76.7157      0.00000
    141      77.0648      0.00000
    142      77.3713      0.00000
    143      77.4054      0.00000
    144      77.5017      0.00000
    145      77.6642      0.00000
    146      77.9025      0.00000
    147      77.9118      0.00000
    148      77.9332      0.00000
    149      80.1177      0.00000
    150      80.3247      0.00000
    151      80.3632      0.00000
    152      80.5519      0.00000
    153      80.8809      0.00000
    154      82.2483      0.00000
    155      83.5963      0.00000
    156      83.9507      0.00000
    157      85.2951      0.00000
    158      85.7230      0.00000
    159      85.9433      0.00000
    160      85.9488      0.00000
    161      85.9996      0.00000
    162      86.1698      0.00000
    163      86.2318      0.00000
    164      86.2968      0.00000
    165      86.6553      0.00000
    166      86.7139      0.00000
    167      86.8062      0.00000
    168      86.9814      0.00000
    169      87.2482      0.00000
    170      88.3669      0.00000
    171      88.4690      0.00000
    172      88.5642      0.00000
    173      88.6845      0.00000
[...]
   38.767144    0.027916    0.027916    0.042119    0.000000    0.000000    0.000000
   40.017697    0.012625    0.012625    0.099759    0.000000   -0.000000    0.000000
   41.268250    0.018789    0.018789    0.042677    0.000000    0.000000    0.000000
   42.518803    0.010044    0.010044    0.045309    0.000000    0.000000    0.000000
   43.769356    0.016998    0.016998    0.020692    0.000000   -0.000000    0.000000
   45.019910    0.009889    0.009889    0.038080    0.000000   -0.000000    0.000000
   46.270463    0.019084    0.019084    0.027043    0.000000   -0.000000   -0.000000
   47.521016    0.021981    0.021981    0.012819    0.000000   -0.000000    0.000000
   48.771569    0.010553    0.010553    0.022990    0.000000   -0.000000   -0.000000
   50.022122    0.010370    0.010370    0.038785    0.000000    0.000000    0.000000
   51.272675    0.015155    0.015155    0.023856    0.000000    0.000000    0.000000
   52.523228    0.008751    0.008751    0.012805    0.000000    0.000000    0.000000
   53.773781    0.005390    0.005390    0.031128    0.000000    0.000000    0.000000
   55.024334    0.013344    0.013344    0.012410    0.000000    0.000000    0.000000
   56.274887    0.009983    0.009983    0.005986   -0.000000    0.000000    0.000000
   57.525440    0.010851    0.010851    0.023612    0.000000    0.000000    0.000000
   58.775993    0.006325    0.006325    0.008431    0.000000    0.000000    0.000000
   60.026546    0.010377    0.010377    0.025351    0.000000    0.000000    0.000000
   61.277099    0.010900    0.010900    0.034093    0.000000    0.000000    0.000000
   62.527652    0.006379    0.006379    0.013531    0.000000    0.000000    0.000000
   63.778205    0.013591    0.013591    0.008794    0.000000   -0.000000    0.000000
   65.028758    0.006295    0.006295    0.004463    0.000000   -0.000000    0.000000
   66.279311    0.006430    0.006430    0.010975    0.000000   -0.000000    0.000000
   67.529864    0.003517    0.003517    0.006530    0.000000    0.000000    0.000000
   68.780417    0.005053    0.005053    0.012242    0.000000    0.000000    0.000000
   70.030970    0.006371    0.006371    0.007014    0.000000    0.000000   -0.000000
   71.281523    0.002951    0.002951    0.006976    0.000000   -0.000000    0.000000
   72.532076    0.003555    0.003555    0.007908    0.000000    0.000000    0.000000
   73.782630    0.005365    0.005365    0.007755    0.000000    0.000000   -0.000000
   75.033183    0.004795    0.004795    0.005432    0.000000    0.000000    0.000000
   76.283736    0.003914    0.003914    0.005112    0.000000   -0.000000    0.000000
   77.534289    0.002831    0.002831    0.004541    0.000000    0.000000    0.000000
   78.784842    0.001908    0.001908    0.002258   -0.000000    0.000000    0.000000
   80.035395    0.002336    0.002336    0.006062   -0.000000    0.000000    0.000000
   81.285948    0.002883    0.002883    0.002922    0.000000   -0.000000    0.000000
   82.536501    0.001618    0.001618    0.005545    0.000000    0.000000   -0.000000
   83.787054    0.004579    0.004579    0.001625   -0.000000    0.000000    0.000000
   85.037607    0.001777    0.001777    0.006381    0.000000    0.000000    0.000000
   86.288160    0.001918    0.001918    0.003760    0.000000    0.000000    0.000000
   87.538713    0.005316    0.005316    0.001463    0.000000    0.000000    0.000000
   88.789266    0.002368    0.002368    0.001712    0.000000    0.000000    0.000000
   90.039819    0.006142    0.006142    0.003381    0.000000    0.000000    0.000000
   91.290372    0.002216    0.002216    0.003088    0.000000    0.000000    0.000000
   92.540925    0.002700    0.002700    0.002789    0.000000    0.000000    0.000000
   93.791478    0.001206    0.001206    0.001321    0.000000    0.000000    0.000000
   95.042031    0.002863    0.002863    0.002387    0.000000    0.000000    0.000000
   96.292584    0.002671    0.002671    0.003654    0.000000    0.000000    0.000000
   97.543137    0.001563    0.001563    0.002238    0.000000    0.000000    0.000000
   98.793690    0.002625    0.002625    0.001397    0.000000    0.000000    0.000000
  100.044243    0.002349    0.002349    0.001439    0.000000    0.000000    0.000000
  101.294796    0.001687    0.001687    0.001832   -0.000000    0.000000    0.000000
  102.545349    0.000972    0.000972    0.001551    0.000000   -0.000000    0.000000
  103.795903    0.001573    0.001573    0.001706   -0.000000    0.000000    0.000000
  105.046456    0.000739    0.000739    0.001587    0.000000    0.000000   -0.000000
  106.297009    0.001932    0.001932    0.002571    0.000000    0.000000    0.000000
  107.547562    0.000904    0.000904    0.000627   -0.000000   -0.000000    0.000000
  108.798115    0.000669    0.000669    0.001476    0.000000    0.000000    0.000000
  110.048668    0.000538    0.000538    0.000753    0.000000    0.000000    0.000000
  111.299221    0.000484    0.000484    0.001110    0.000000    0.000000    0.000000
  112.549774    0.000326    0.000326    0.000710    0.000000    0.000000   -0.000000
  113.800327    0.000435    0.000435    0.000231    0.000000   -0.000000    0.000000
  115.050880    0.000560    0.000560    0.000926    0.000000    0.000000    0.000000
  116.301433    0.000453    0.000453    0.000221    0.000000    0.000000    0.000000
  117.551986    0.000033    0.000033    0.000738    0.000000    0.000000    0.000000
  118.802539    0.000184    0.000184    0.000111    0.000000   -0.000000    0.000000
  120.053092    0.000003    0.000003    0.000010    0.000000    0.000000    0.000000
  121.303645    0.000007    0.000007    0.000508    0.000000    0.000000    0.000000
  122.554198    0.000071    0.000071    0.000157    0.000000    0.000000    0.000000
  123.804751    0.000099    0.000099    0.000001    0.000000   -0.000000   -0.000000
  125.055304    0.000000    0.000000    0.000000    0.000000    0.000000    0.000000
  126.305857    0.000000    0.000000    0.000000    0.000000    0.000000    0.000000
  127.556410    0.000000    0.000000    0.000000    0.000000    0.000000    0.000000
  128.806963    0.000000    0.000000    0.000000    0.000000    0.000000    0.000000
  130.057516    0.000000    0.000000    0.000000    0.000000    0.000000    0.000000
  131.308069    0.000000    0.000000    0.000000    0.000000    0.000000    0.000000
  132.558623    0.000000    0.000000    0.000000    0.000000    0.000000    0.000000
  133.809176    0.000000    0.000000    0.000000    0.000000    0.000000    0.000000
  135.059729    0.000000    0.000000    0.000000    0.000000    0.000000    0.000000
  136.310282    0.000000    0.000000    0.000000    0.000000    0.000000    0.000000
  137.560835    0.000000    0.000000    0.000000    0.000000    0.000000    0.000000
  138.811388    0.000000    0.000000    0.000000    0.000000    0.000000    0.000000
  140.061941    0.000000    0.000000    0.000000    0.000000    0.000000    0.000000
  141.312494    0.000000    0.000000    0.000000    0.000000    0.000000    0.000000
  142.563047    0.000000    0.000000    0.000000    0.000000    0.000000    0.000000
  143.813600    0.000000    0.000000    0.000000    0.000000    0.000000    0.000000
  145.064153    0.000000    0.000000    0.000000    0.000000    0.000000    0.000000
  146.314706    0.000000    0.000000    0.000000    0.000000    0.000000    0.000000
  147.565259    0.000000    0.000000    0.000000    0.000000    0.000000    0.000000
  148.815812    0.000000    0.000000    0.000000    0.000000    0.000000    0.000000

  frequency dependent      REAL DIELECTRIC FUNCTION (independent particle, no local field effects) current-current (2nd set in vasprun.xml)
     E(ev)        X           Y           Z          XY          YZ          ZX
  --------------------------------------------------------------------------------------------------------------
    0.000000    1.856664    1.857639    1.380035    0.000000    0.000000   -0.000000
    1.250553    1.885447    1.885447    1.383635    0.000000    0.000000   -0.000000
    2.501106    1.990886    1.990883    1.394870    0.000000    0.000000   -0.000000
    3.751659    2.300597    2.300594    1.415590    0.000000    0.000000   -0.000000
    5.002212    3.764205    3.764197    1.449819    0.000000    0.000000   -0.000000
    6.252765    0.566692    0.566694    1.506549   -0.000000    0.000000   -0.000000
    7.503318    0.761855    0.761856    1.610152    0.000000    0.000000   -0.000000
    8.753871    1.245192    1.245191    1.849834    0.000000    0.000000    0.000000
   10.004424    1.268908    1.268908    2.632486    0.000000   -0.000000   -0.000000
   11.254977    1.507845    1.507844    1.083546    0.000000   -0.000000    0.000000
   12.505530    2.172607    2.172604    1.251974    0.000000   -0.000000    0.000000
   13.756083    1.172765    1.172765    0.586550   -0.000000    0.000000    0.000000
   15.006637   -0.112097   -0.112093    0.797161   -0.000000   -0.000000   -0.000000
   16.257190    0.640853    0.640854    0.872201   -0.000000    0.000000   -0.000000
   17.507743    0.663691    0.663692    0.803918   -0.000000   -0.000000   -0.000000
   18.758296    0.547309    0.547310    1.053411    0.000000   -0.000000   -0.000000
   20.008849    0.655038    0.655039    1.052332   -0.000000   -0.000000   -0.000000
   21.259402    0.680780    0.680781    0.828637    0.000000   -0.000000    0.000000
   22.509955    0.681298    0.681299    0.859162   -0.000000   -0.000000   -0.000000
   23.760508    0.730599    0.730600    0.955081    0.000000    0.000000    0.000000
   25.011061    0.766229    0.766230    0.881209   -0.000000    0.000000    0.000000
   26.261614    0.788580    0.788581    0.963471    0.000000   -0.000000   -0.000000
   27.512167    0.819870    0.819871    0.903214    0.000000   -0.000000   -0.000000
   28.762720    0.849486    0.849487    0.855658    0.000000   -0.000000    0.000000
   30.013273    0.853789    0.853790    0.873141   -0.000000   -0.000000    0.000000
   31.263826    0.873666    0.873666    0.884796   -0.000000   -0.000000   -0.000000
   32.514379    0.909295    0.909295    0.905132   -0.000000   -0.000000    0.000000
   33.764932    0.912833    0.912833    0.875821    0.000000   -0.000000   -0.000000
   35.015485    0.875896    0.875896    0.891442    0.000000   -0.000000    0.000000
   36.266038    0.881737    0.881737    0.885452    0.000000    0.000000    0.000000
   37.516591    0.877283    0.877284    0.905661    0.000000   -0.000000    0.000000
   38.767144    0.898111    0.898112    0.918349   -0.000000   -0.000000    0.000000
   40.017697    0.912284    0.912284    0.946471    0.000000    0.000000    0.000000
   41.268250    0.923403    0.923404    0.894860    0.000000    0.000000    0.000000
   42.518803    0.934715    0.934715    0.896758    0.000000   -0.000000    0.000000
   43.769356    0.937223    0.937223    0.911833    0.000000   -0.000000   -0.000000
   45.019910    0.933219    0.933219    0.925799   -0.000000    0.000000    0.000000
   46.270463    0.942297    0.942298    0.939438    0.000000   -0.000000    0.000000
   47.521016    0.941868    0.941869    0.944748    0.000000   -0.000000    0.000000
   48.771569    0.939330    0.939331    0.940068   -0.000000   -0.000000    0.000000
   50.022122    0.948120    0.948120    0.948573   -0.000000    0.000000    0.000000
   51.272675    0.949503    0.949503    0.926553    0.000000   -0.000000   -0.000000
   52.523228    0.951697    0.951698    0.942291   -0.000000    0.000000    0.000000
   53.773781    0.953812    0.953812    0.943922   -0.000000   -0.000000    0.000000
   55.024334    0.958830    0.958830    0.953507    0.000000   -0.000000    0.000000
   56.274887    0.956516    0.956516    0.956306   -0.000000    0.000000    0.000000
   57.525440    0.959865    0.959865    0.953864   -0.000000   -0.000000    0.000000
   58.775993    0.961882    0.961882    0.962169   -0.000000   -0.000000    0.000000
   60.026546    0.963021    0.963021    0.959647    0.000000   -0.000000    0.000000
   61.277099    0.962969    0.962969    0.960369   -0.000000   -0.000000    0.000000
   62.527652    0.965173    0.965173    0.958217    0.000000   -0.000000    0.000000
   63.778205    0.965973    0.965974    0.961613   -0.000000   -0.000000    0.000000
   65.028758    0.964944    0.964944    0.963050    0.000000   -0.000000    0.000000
   66.279311    0.967266    0.967266    0.968396    0.000000   -0.000000    0.000000
   67.529864    0.967532    0.967532    0.969787   -0.000000   -0.000000    0.000000
   68.780417    0.968908    0.968908    0.967611    0.000000    0.000000    0.000000
   70.030970    0.969898    0.969898    0.972341   -0.000000   -0.000000    0.000000
   71.281523    0.971550    0.971550    0.970337   -0.000000   -0.000000    0.000000
   72.532076    0.971534    0.971534    0.972417   -0.000000   -0.000000    0.000000
   73.782630    0.975028    0.975028    0.972181   -0.000000   -0.000000    0.000000
   75.033183    0.975357    0.975357    0.973173   -0.000000   -0.000000    0.000000
   76.283736    0.976331    0.976331    0.975001   -0.000000   -0.000000    0.000000
   77.534289    0.977109    0.977109    0.975404   -0.000000    0.000000    0.000000
   78.784842    0.976738    0.976738    0.974989   -0.000000   -0.000000    0.000000
   80.035395    0.978457    0.978458    0.978587   -0.000000    0.000000    0.000000
   81.285948    0.978888    0.978888    0.975795   -0.000000   -0.000000    0.000000
   82.536501    0.980280    0.980280    0.978343   -0.000000   -0.000000    0.000000
   83.787054    0.980583    0.980583    0.978038   -0.000000   -0.000000    0.000000
   85.037607    0.981019    0.981019    0.979703   -0.000000   -0.000000    0.000000
   86.288160    0.980829    0.980829    0.981502    0.000000   -0.000000    0.000000
   87.538713    0.982177    0.982177    0.981744    0.000000   -0.000000    0.000000
   88.789266    0.981607    0.981607    0.980279   -0.000000   -0.000000    0.000000
   90.039819    0.982716    0.982716    0.982146    0.000000   -0.000000    0.000000
   91.290372    0.982681    0.982681    0.982106   -0.000000   -0.000000    0.000000
   92.540925    0.983663    0.983663    0.982413    0.000000   -0.000000    0.000000
   93.791478    0.983779    0.983779    0.983336   -0.000000   -0.000000    0.000000
   95.042031    0.984488    0.984488    0.984016   -0.000000   -0.000000    0.000000
   96.292584    0.985066    0.985066    0.984294   -0.000000   -0.000000    0.000000
   97.543137    0.985544    0.985544    0.983887   -0.000000   -0.000000    0.000000
   98.793690    0.985248    0.985248    0.984349   -0.000000   -0.000000    0.000000
  100.044243    0.985388    0.985388    0.984891    0.000000   -0.000000    0.000000
  101.294796    0.985630    0.985630    0.985256   -0.000000   -0.000000    0.000000
  102.545349    0.985757    0.985757    0.985642   -0.000000   -0.000000    0.000000
  103.795903    0.985814    0.985814    0.985500   -0.000000   -0.000000    0.000000
  105.046456    0.986022    0.986022    0.986152   -0.000000   -0.000000    0.000000
  106.297009    0.986556    0.986556    0.986421   -0.000000   -0.000000    0.000000
  107.547562    0.986919    0.986919    0.986676   -0.000000   -0.000000    0.000000
  108.798115    0.986960    0.986960    0.986605   -0.000000   -0.000000    0.000000
  110.048668    0.987548    0.987549    0.987500   -0.000000   -0.000000    0.000000
  111.299221    0.987823    0.987823    0.987696   -0.000000   -0.000000    0.000000
  112.549774    0.988171    0.988171    0.988254   -0.000000   -0.000000    0.000000
  113.800327    0.988471    0.988471    0.988042   -0.000000   -0.000000    0.000000
  115.050880    0.989047    0.989047    0.988358   -0.000000   -0.000000    0.000000
  116.301433    0.989112    0.989112    0.988765   -0.000000   -0.000000    0.000000
  117.551986    0.989217    0.989217    0.989057   -0.000000   -0.000000    0.000000
  118.802539    0.989777    0.989777    0.989518   -0.000000   -0.000000    0.000000
  120.053092    0.989937    0.989938    0.989683   -0.000000   -0.000000    0.000000
  121.303645    0.990264    0.990264    0.990043   -0.000000   -0.000000    0.000000
  122.554198    0.990457    0.990457    0.990187   -0.000000   -0.000000    0.000000
  123.804751    0.990671    0.990671    0.990449   -0.000000   -0.000000    0.000000
  125.055304    0.990924    0.990924    0.990708   -0.000000   -0.000000    0.000000
  126.305857    0.991149    0.991149    0.990951   -0.000000   -0.000000    0.000000
  127.556410    0.991357    0.991357    0.991175   -0.000000   -0.000000    0.000000
  128.806963    0.991554    0.991554    0.991385   -0.000000   -0.000000    0.000000
  130.057516    0.991742    0.991742    0.991586   -0.000000   -0.000000    0.000000
  131.308069    0.991922    0.991923    0.991777   -0.000000   -0.000000    0.000000
  132.558623    0.992095    0.992095    0.991959   -0.000000   -0.000000    0.000000
  133.809176    0.992262    0.992262    0.992135   -0.000000   -0.000000    0.000000
  135.059729    0.992422    0.992422    0.992303   -0.000000   -0.000000    0.000000
  136.310282    0.992577    0.992577    0.992466   -0.000000   -0.000000    0.000000
  137.560835    0.992726    0.992726    0.992622   -0.000000   -0.000000    0.000000
  138.811388    0.992870    0.992870    0.992773   -0.000000   -0.000000    0.000000
  140.061941    0.993010    0.993010    0.992919   -0.000000   -0.000000    0.000000
  141.312494    0.993145    0.993145    0.993059   -0.000000   -0.000000    0.000000
  142.563047    0.993276    0.993276    0.993196   -0.000000   -0.000000    0.000000
  143.813600    0.993403    0.993403    0.993327   -0.000000   -0.000000    0.000000
  145.064153    0.993526    0.993526    0.993455   -0.000000   -0.000000    0.000000
  146.314706    0.993645    0.993645    0.993579   -0.000000   -0.000000    0.000000
  147.565259    0.993761    0.993761    0.993699   -0.000000   -0.000000    0.000000
  148.815812    0.993873    0.993873    0.993815   -0.000000   -0.000000    0.000000
 
 The outermost node in the dielectric function lies at epsilon=  15.1


--------------------------------------------------------------------------------------------------------


    OPTICS:  cpu time    0.2678: real time    0.2864
    4ORBIT:  cpu time    0.0000: real time    0.0000
 


 total charge     
 
# of ion       s       p       d       tot
------------------------------------------
    1        0.702   1.307   0.000   2.009
    2        1.183   2.703   0.000   3.886
--------------------------------------------------
tot          1.884   4.010   0.000   5.895
 


 magnetization (x)
 
# of ion       s       p       d       tot
------------------------------------------
    1       -0.000  -0.000   0.000  -0.000
    2        0.000   0.000   0.000   0.000
--------------------------------------------------
tot          0.000   0.000   0.000   0.000
 

 total amount of memory used by VASP MPI-rank0    79637. kBytes
=======================================================================

   base      :      30000. kBytes
   nonl-proj :       7628. kBytes
   fftplans  :       1927. kBytes
   grid      :       9719. kBytes
   one-center:         12. kBytes
   wavefun   :      30351. kBytes
 
  
  
 General timing and accounting informations for this job:
 ========================================================
  
                  Total CPU time used (sec):      108.087
                            User time (sec):      104.081
                          System time (sec):        4.005
                         Elapsed time (sec):      110.258
  
                   Maximum memory used (kb):      676340.
                   Average memory used (kb):           0.
  
                          Minor page faults:        53285
                          Major page faults:            0
                 Voluntary context switches:         1776
