 vasp.5.4.4.18Apr17-6-g9f103f2a35 (build May 01 2020 14:57:12) complex          
  
 executed on             LinuxIFC date 2020.11.08  21:04:23
 running on  288 total cores
 distrk:  each k-point on   96 cores,    3 groups
 distr:  one band on NCORES_PER_BAND=   1 cores,   96 groups


--------------------------------------------------------------------------------------------------------


 INCAR:
 POTCAR:    PAW_PBE B 06Sep2000                   
 POTCAR:    PAW_PBE N 08Apr2002                   
 POTCAR:    PAW_PBE C 08Apr2002                   
 POTCAR:    PAW_PBE F 08Apr2002                   
 POTCAR:    PAW_PBE O 08Apr2002                   

 ----------------------------------------------------------------------------- 
|                                                                             |
|           W    W    AA    RRRRR   N    N  II  N    N   GGGG   !!!           |
|           W    W   A  A   R    R  NN   N  II  NN   N  G    G  !!!           |
|           W    W  A    A  R    R  N N  N  II  N N  N  G       !!!           |
|           W WW W  AAAAAA  RRRRR   N  N N  II  N  N N  G  GGG   !            |
|           WW  WW  A    A  R   R   N   NN  II  N   NN  G    G                |
|           W    W  A    A  R    R  N    N  II  N    N   GGGG   !!!           |
|                                                                             |
|      For optimal performance we recommend to set                            |
|        NCORE= 4 - approx SQRT( number of cores)                             |
|      NCORE specifies how many cores store one orbital (NPAR=cpu/NCORE).     |
|      This setting can  greatly improve the performance of VASP for DFT.     |
|      The default,   NCORE=1            might be grossly inefficient         |
|      on modern multi-core architectures or massively parallel machines.     |
|      Do your own testing !!!!                                               |
|      Unfortunately you need to use the default for GW and RPA calculations. |
|      (for HF NCORE is supported but not extensively tested yet)             |
|                                                                             |
 ----------------------------------------------------------------------------- 


 ----------------------------------------------------------------------------- 
|                                                                             |
|           W    W    AA    RRRRR   N    N  II  N    N   GGGG   !!!           |
|           W    W   A  A   R    R  NN   N  II  NN   N  G    G  !!!           |
|           W    W  A    A  R    R  N N  N  II  N N  N  G       !!!           |
|           W WW W  AAAAAA  RRRRR   N  N N  II  N  N N  G  GGG   !            |
|           WW  WW  A    A  R   R   N   NN  II  N   NN  G    G                |
|           W    W  A    A  R    R  N    N  II  N    N   GGGG   !!!           |
|                                                                             |
|      You have enabled k-point parallelism (KPAR>1).                         |
|      This developmental code was originally  written by Paul Kent at ORNL,  |
|      and carefully double checked in Vienna.                                |
|      GW as well as linear response parallelism added by Martijn Marsman     |
|      and Georg Kresse.                                                      |
|      Carefully verify results versus KPAR=1.                                |
|      Report problems to Paul Kent and Vienna.                               |
|                                                                             |
 ----------------------------------------------------------------------------- 

 POTCAR:    PAW_PBE B 06Sep2000                   
   VRHFIN =B: s2p1                                                              
   LEXCH  = PE                                                                  
   EATOM  =    71.1703 eV,    5.2309 Ry                                         
                                                                                
   TITEL  = PAW_PBE B 06Sep2000                                                 
   LULTRA =        F    use ultrasoft PP ?                                      
   IUNSCR =        1    unscreen: 0-lin 1-nonlin 2-no                           
   RPACOR =    1.200    partial core radius                                     
   POMASS =   10.811; ZVAL   =    3.000    mass and valenz                      
   RCORE  =    1.700    outmost cutoff radius                                   
   RWIGS  =    1.710; RWIGS  =    0.905    wigner-seitz radius (au A)           
   ENMAX  =  318.614; ENMIN  =  238.960 eV                                      
   ICORE  =        2    local potential                                         
   LCOR   =        T    correct aug charges                                     
   LPAW   =        T    paw PP                                                  
   EAUG   =  535.514                                                            
   DEXC   =    0.000                                                            
   RMAX   =    1.732    core radius for proj-oper                               
   RAUG   =    1.300    factor for augmentation sphere                          
   RDEP   =    1.757    radius for radial grids                                 
   RDEPT  =    1.436    core radius for aug-charge                              
                                                                                
   Atomic configuration                                                         
    4 entries                                                                   
     n  l   j            E        occ.                                          
     1  0  0.50      -180.5896   2.0000                                         
     2  0  0.50        -9.4431   2.0000                                         
     2  1  0.50        -3.6068   1.0000                                         
     3  2  1.50        -4.0817   0.0000                                         
   Description                                                                  
     l       E           TYP  RCUT    TYP  RCUT                                 
     0     -9.4430752     23  1.500                                             
     0      0.8675899     23  1.500                                             
     1     -3.6067955     23  1.700                                             
     1      6.1086146     23  1.700                                             
     2     -4.0817478      7  1.700                                             
  local pseudopotential read in
  partial core-charges read in
  partial kinetic energy density read in
  atomic valenz-charges read in
  non local Contribution for L=           0  read in
    real space projection operators read in
  non local Contribution for L=           0  read in
    real space projection operators read in
  non local Contribution for L=           1  read in
    real space projection operators read in
  non local Contribution for L=           1  read in
    real space projection operators read in
    PAW grid and wavefunctions read in
 
   number of l-projection  operators is LMAX  =           4
   number of lm-projection operators is LMMAX =           8
 
 POTCAR:    PAW_PBE N 08Apr2002                   
   VRHFIN =N: s2p3                                                              
   LEXCH  = PE                                                                  
   EATOM  =   264.5486 eV,   19.4438 Ry                                         
                                                                                
   TITEL  = PAW_PBE N 08Apr2002                                                 
   LULTRA =        F    use ultrasoft PP ?                                      
   IUNSCR =        1    unscreen: 0-lin 1-nonlin 2-no                           
   RPACOR =    1.200    partial core radius                                     
   POMASS =   14.001; ZVAL   =    5.000    mass and valenz                      
   RCORE  =    1.500    outmost cutoff radius                                   
   RWIGS  =    1.400; RWIGS  =    0.741    wigner-seitz radius (au A)           
   ENMAX  =  400.000; ENMIN  =  300.000 eV                                      
   ICORE  =        2    local potential                                         
   LCOR   =        T    correct aug charges                                     
   LPAW   =        T    paw PP                                                  
   EAUG   =  627.112                                                            
   DEXC   =    0.000                                                            
   RMAX   =    1.529    core radius for proj-oper                               
   RAUG   =    1.300    factor for augmentation sphere                          
   RDEP   =    1.514    radius for radial grids                                 
   RDEPT  =    1.338    core radius for aug-charge                              
                                                                                
   Atomic configuration                                                         
    4 entries                                                                   
     n  l   j            E        occ.                                          
     1  0  0.50      -384.7179   2.0000                                         
     2  0  0.50       -18.5828   2.0000                                         
     2  1  0.50        -7.0898   3.0000                                         
     3  2  1.50        -6.8029   0.0000                                         
   Description                                                                  
     l       E           TYP  RCUT    TYP  RCUT                                 
     0    -18.5828119     23  1.200                                             
     0    -13.5018863     23  1.200                                             
     1     -7.0897853     23  1.500                                             
     1      9.5240782     23  1.500                                             
     2     -6.8029130      7  1.500                                             
  local pseudopotential read in
  partial core-charges read in
  partial kinetic energy density read in
  atomic valenz-charges read in
  non local Contribution for L=           0  read in
    real space projection operators read in
  non local Contribution for L=           0  read in
    real space projection operators read in
  non local Contribution for L=           1  read in
    real space projection operators read in
  non local Contribution for L=           1  read in
    real space projection operators read in
    PAW grid and wavefunctions read in
 
   number of l-projection  operators is LMAX  =           4
   number of lm-projection operators is LMMAX =           8
 
 POTCAR:    PAW_PBE C 08Apr2002                   
   VRHFIN =C: s2p2                                                              
   LEXCH  = PE                                                                  
   EATOM  =   147.1560 eV,   10.8157 Ry                                         
                                                                                
   TITEL  = PAW_PBE C 08Apr2002                                                 
   LULTRA =        F    use ultrasoft PP ?                                      
   IUNSCR =        1    unscreen: 0-lin 1-nonlin 2-no                           
   RPACOR =    1.200    partial core radius                                     
   POMASS =   12.011; ZVAL   =    4.000    mass and valenz                      
   RCORE  =    1.500    outmost cutoff radius                                   
   RWIGS  =    1.630; RWIGS  =    0.863    wigner-seitz radius (au A)           
   ENMAX  =  400.000; ENMIN  =  300.000 eV                                      
   ICORE  =        2    local potential                                         
   LCOR   =        T    correct aug charges                                     
   LPAW   =        T    paw PP                                                  
   EAUG   =  644.873                                                            
   DEXC   =    0.000                                                            
   RMAX   =    1.529    core radius for proj-oper                               
   RAUG   =    1.300    factor for augmentation sphere                          
   RDEP   =    1.501    radius for radial grids                                 
   RDEPT  =    1.300    core radius for aug-charge                              
                                                                                
   Atomic configuration                                                         
    4 entries                                                                   
     n  l   j            E        occ.                                          
     1  0  0.50      -273.3789   2.0000                                         
     2  0  0.50       -13.7508   2.0000                                         
     2  1  0.50        -5.2854   2.0000                                         
     3  2  1.50        -5.4423   0.0000                                         
   Description                                                                  
     l       E           TYP  RCUT    TYP  RCUT                                 
     0    -13.7508458     23  1.200                                             
     0     -8.2022199     23  1.200                                             
     1     -5.2854383     23  1.500                                             
     1     34.0145650     23  1.500                                             
     2     -5.4423304      7  1.500                                             
  local pseudopotential read in
  partial core-charges read in
  partial kinetic energy density read in
  atomic valenz-charges read in
  non local Contribution for L=           0  read in
    real space projection operators read in
  non local Contribution for L=           0  read in
    real space projection operators read in
  non local Contribution for L=           1  read in
    real space projection operators read in
  non local Contribution for L=           1  read in
    real space projection operators read in
    PAW grid and wavefunctions read in
 
   number of l-projection  operators is LMAX  =           4
   number of lm-projection operators is LMMAX =           8
 
 POTCAR:    PAW_PBE F 08Apr2002                   
   VRHFIN =F: s2p5                                                              
   LEXCH  = PE                                                                  
   EATOM  =   659.6475 eV,   48.4827 Ry                                         
                                                                                
   TITEL  = PAW_PBE F 08Apr2002                                                 
   LULTRA =        F    use ultrasoft PP ?                                      
   IUNSCR =        1    unscreen: 0-lin 1-nonlin 2-no                           
   RPACOR =    1.200    partial core radius                                     
   POMASS =   18.998; ZVAL   =    7.000    mass and valenz                      
   RCORE  =    1.520    outmost cutoff radius                                   
   RWIGS  =    1.500; RWIGS  =    0.794    wigner-seitz radius (au A)           
   ENMAX  =  400.000; ENMIN  =  300.000 eV                                      
   ICORE  =        2    local potential                                         
   LCOR   =        T    correct aug charges                                     
   LPAW   =        T    paw PP                                                  
   EAUG   =  613.614                                                            
   RMAX   =    1.555    core radius for proj-oper                               
   RAUG   =    1.300    factor for augmentation sphere                          
   RDEP   =    1.539    radius for radial grids                                 
   RDEPT  =    1.299    core radius for aug-charge                              
                                                                                
   Atomic configuration                                                         
    4 entries                                                                   
     n  l   j            E        occ.                                          
     1  0  0.50      -663.3661   2.0000                                         
     2  0  0.50       -29.8995   2.0000                                         
     2  1  0.50       -11.1114   5.0000                                         
     3  2  1.50       -10.8847   0.0000                                         
   Description                                                                  
     l       E           TYP  RCUT    TYP  RCUT                                 
     0    -29.8995018     23  1.200                                             
     0     -9.5240782     23  1.200                                             
     1    -11.1113914     23  1.520                                             
     1      1.3605826     23  1.520                                             
     2    -10.8846608      7  1.500                                             
  local pseudopotential read in
  partial core-charges read in
  partial kinetic energy density read in
  atomic valenz-charges read in
  non local Contribution for L=           0  read in
    real space projection operators read in
  non local Contribution for L=           0  read in
    real space projection operators read in
  non local Contribution for L=           1  read in
    real space projection operators read in
  non local Contribution for L=           1  read in
    real space projection operators read in
    PAW grid and wavefunctions read in
 
   number of l-projection  operators is LMAX  =           4
   number of lm-projection operators is LMMAX =           8
 
 POTCAR:    PAW_PBE O 08Apr2002                   
   VRHFIN =O: s2p4                                                              
   LEXCH  = PE                                                                  
   EATOM  =   432.3788 eV,   31.7789 Ry                                         
                                                                                
   TITEL  = PAW_PBE O 08Apr2002                                                 
   LULTRA =        F    use ultrasoft PP ?                                      
   IUNSCR =        1    unscreen: 0-lin 1-nonlin 2-no                           
   RPACOR =    1.200    partial core radius                                     
   POMASS =   16.000; ZVAL   =    6.000    mass and valenz                      
   RCORE  =    1.520    outmost cutoff radius                                   
   RWIGS  =    1.550; RWIGS  =    0.820    wigner-seitz radius (au A)           
   ENMAX  =  400.000; ENMIN  =  300.000 eV                                      
   ICORE  =        2    local potential                                         
   LCOR   =        T    correct aug charges                                     
   LPAW   =        T    paw PP                                                  
   EAUG   =  605.392                                                            
   DEXC   =    0.000                                                            
   RMAX   =    1.553    core radius for proj-oper                               
   RAUG   =    1.300    factor for augmentation sphere                          
   RDEP   =    1.550    radius for radial grids                                 
   RDEPT  =    1.329    core radius for aug-charge                              
                                                                                
   Atomic configuration                                                         
    4 entries                                                                   
     n  l   j            E        occ.                                          
     1  0  0.50      -514.6923   2.0000                                         
     2  0  0.50       -23.9615   2.0000                                         
     2  1  0.50        -9.0305   4.0000                                         
     3  2  1.50        -9.5241   0.0000                                         
   Description                                                                  
     l       E           TYP  RCUT    TYP  RCUT                                 
     0    -23.9615318     23  1.200                                             
     0     -9.5240782     23  1.200                                             
     1     -9.0304911     23  1.520                                             
     1      8.1634956     23  1.520                                             
     2     -9.5240782      7  1.500                                             
  local pseudopotential read in
  partial core-charges read in
  partial kinetic energy density read in
  kinetic energy density of atom read in
  atomic valenz-charges read in
  non local Contribution for L=           0  read in
    real space projection operators read in
  non local Contribution for L=           0  read in
    real space projection operators read in
  non local Contribution for L=           1  read in
    real space projection operators read in
  non local Contribution for L=           1  read in
    real space projection operators read in
    PAW grid and wavefunctions read in
 
   number of l-projection  operators is LMAX  =           4
   number of lm-projection operators is LMMAX =           8
 
 Optimization of the real space projectors (new method)

 maximal supplied QI-value         = 22.11
 optimisation between [QCUT,QGAM] = [ 11.94, 23.88] = [ 39.92,159.67] Ry 
 Optimized for a Real-space Cutoff    1.18 Angstroem

   l    n(q)    QCUT    max X(q) W(low)/X(q) W(high)/X(q)  e(spline) 
   0      8    11.939    53.033    0.11E-03    0.34E-03    0.60E-07
   0      8    11.939    34.740    0.11E-03    0.34E-03    0.59E-07
   1      8    11.939    30.949    0.22E-03    0.20E-03    0.17E-06
   1      8    11.939    19.518    0.20E-03    0.18E-03    0.16E-06
 Optimization of the real space projectors (new method)

 maximal supplied QI-value         = 25.13
 optimisation between [QCUT,QGAM] = [ 11.81, 23.88] = [ 39.08,159.64] Ry 
 Optimized for a Real-space Cutoff    1.41 Angstroem

   l    n(q)    QCUT    max X(q) W(low)/X(q) W(high)/X(q)  e(spline) 
   0     10    11.813    79.467    0.48E-04    0.30E-04    0.67E-06
   0     10    11.813    66.151    0.47E-04    0.30E-04    0.67E-06
   1     10    11.813    20.169    0.11E-03    0.17E-03    0.11E-05
   1     10    11.813    14.454    0.11E-03    0.17E-03    0.11E-05
 Optimization of the real space projectors (new method)

 maximal supplied QI-value         = 25.13
 optimisation between [QCUT,QGAM] = [ 11.81, 23.88] = [ 39.08,159.64] Ry 
 Optimized for a Real-space Cutoff    1.18 Angstroem

   l    n(q)    QCUT    max X(q) W(low)/X(q) W(high)/X(q)  e(spline) 
   0      8    11.813   115.676    0.10E-03    0.16E-03    0.35E-06
   0      8    11.813    87.132    0.10E-03    0.16E-03    0.35E-06
   1      8    11.813     4.429    0.16E-03    0.13E-04    0.22E-06
   1      8    11.813     2.733    0.13E-03    0.10E-04    0.18E-06
 Optimization of the real space projectors (new method)

 maximal supplied QI-value         = 24.76
 optimisation between [QCUT,QGAM] = [ 11.88, 24.01] = [ 39.54,161.47] Ry 
 Optimized for a Real-space Cutoff    1.18 Angstroem

   l    n(q)    QCUT    max X(q) W(low)/X(q) W(high)/X(q)  e(spline) 
   0      8    11.883    14.049    0.56E-04    0.86E-04    0.22E-06
   0      8    11.883     8.945    0.81E-04    0.11E-03    0.30E-06
   1      8    11.883     7.086    0.16E-03    0.15E-04    0.31E-06
   1      8    11.883     6.747    0.15E-03    0.14E-04    0.28E-06
 Optimization of the real space projectors (new method)

 maximal supplied QI-value         = 24.76
 optimisation between [QCUT,QGAM] = [ 11.88, 24.01] = [ 39.54,161.47] Ry 
 Optimized for a Real-space Cutoff    1.18 Angstroem

   l    n(q)    QCUT    max X(q) W(low)/X(q) W(high)/X(q)  e(spline) 
   0      8    11.883    20.381    0.86E-04    0.11E-03    0.31E-06
   0      8    11.883    15.268    0.94E-04    0.12E-03    0.33E-06
   1      8    11.883     5.964    0.19E-03    0.18E-04    0.33E-06
   1      8    11.883     5.382    0.17E-03    0.20E-04    0.29E-06
  PAW_PBE B 06Sep2000                   :
 energy of atom  1       EATOM=  -71.1703
 kinetic energy error for atom=    0.0009 (will be added to EATOM!!)
  PAW_PBE N 08Apr2002                   :
 energy of atom  2       EATOM= -264.5486
 kinetic energy error for atom=    0.0116 (will be added to EATOM!!)
  PAW_PBE C 08Apr2002                   :
 energy of atom  3       EATOM= -147.1560
 kinetic energy error for atom=    0.0066 (will be added to EATOM!!)
  PAW_PBE F 08Apr2002                   :
 energy of atom  4       EATOM= -659.6475
 kinetic energy error for atom=    0.0296 (will be added to EATOM!!)
  PAW_PBE O 08Apr2002                   :
 energy of atom  5       EATOM= -432.3788
 kinetic energy error for atom=    0.0194 (will be added to EATOM!!)
 
 
 POSCAR: B N C F O                               
  positions in direct lattice
  velocities in cartesian coordinates

 METAGGA = SCAN     LMAXTAU =  6    LMIXTAU =  F

 exchange correlation table for  LEXCH =        8
   RHO(1)=    0.500       N(1)  =     2000
   RHO(2)=  100.500       N(2)  =     4000
 


--------------------------------------------------------------------------------------------------------


 ion  position               nearest neighbor table
   1  0.083  0.042  0.502-  65 1.45  72 1.45  73 1.45
   2  0.083  0.167  0.502-  65 1.45  66 1.45  74 1.45
   3  0.083  0.292  0.502-  67 1.45  66 1.45  75 1.45
   4  0.083  0.417  0.502-  67 1.45  76 1.45  68 1.45
   5  0.083  0.542  0.502-  77 1.45  68 1.45  69 1.45
   6  0.083  0.667  0.502-  69 1.45  70 1.45  78 1.45
   7  0.083  0.792  0.502-  71 1.45  79 1.45  70 1.45
   8  0.083  0.917  0.502-  80 1.45  72 1.45  71 1.45
   9  0.208  0.042  0.502-  81 1.45  80 1.45  73 1.45
  10  0.208  0.167  0.502-  73 1.45  82 1.45  74 1.45
  11  0.208  0.292  0.502-  75 1.45  74 1.45  83 1.45
  12  0.208  0.417  0.502-  76 1.45  84 1.45  75 1.45
  13  0.208  0.542  0.502-  76 1.45  85 1.45  77 1.45
  14  0.208  0.667  0.502-  77 1.45  86 1.45  78 1.45
  15  0.208  0.792  0.502-  78 1.45  79 1.45  87 1.45
  16  0.208  0.917  0.502-  80 1.45  88 1.45  79 1.45
  17  0.333  0.042  0.502-  89 1.45  88 1.45  81 1.45
  18  0.333  0.167  0.502-  90 1.45  81 1.45  82 1.45
  19  0.333  0.292  0.502-  91 1.45  82 1.45  83 1.45
  20  0.333  0.417  0.502-  84 1.45  92 1.45  83 1.45
  21  0.333  0.542  0.502-  93 1.45  85 1.45  84 1.45
  22  0.333  0.667  0.502-  85 1.45  94 1.45  86 1.45
  23  0.333  0.792  0.502-  86 1.45  95 1.45  87 1.45
  24  0.333  0.917  0.502-  87 1.45  88 1.45  96 1.45
  25  0.458  0.042  0.502-  96 1.45  89 1.45  97 1.45
  26  0.458  0.167  0.502-  98 1.45  89 1.45  90 1.45
  27  0.458  0.292  0.502-  99 1.45  90 1.45  91 1.45
  28  0.458  0.417  0.502- 100 1.45  92 1.45  91 1.45
  29  0.458  0.542  0.502-  93 1.45  92 1.45 101 1.45
  30  0.458  0.667  0.502-  93 1.45 102 1.45  94 1.45
  31  0.458  0.792  0.502-  94 1.45 103 1.45  95 1.45
  32  0.458  0.917  0.502-  95 1.45  96 1.45 104 1.45
  33  0.583  0.042  0.502- 104 1.45  97 1.45 105 1.45
  34  0.583  0.167  0.502-  97 1.45  98 1.45 106 1.45
  35  0.583  0.292  0.502- 107 1.45  99 1.45  98 1.45
  36  0.583  0.417  0.502-  99 1.45 100 1.45 108 1.45
  37  0.583  0.542  0.502- 100 1.45 101 1.45 109 1.45
  38  0.583  0.667  0.502- 101 1.45 102 1.45 110 1.45
  39  0.583  0.792  0.502- 102 1.45 103 1.45 111 1.45
  40  0.583  0.917  0.502- 103 1.45 104 1.45 112 1.45
  41  0.708  0.042  0.502- 112 1.45 113 1.45 105 1.45
  42  0.708  0.167  0.502- 105 1.45 106 1.45 114 1.45
  43  0.708  0.292  0.502- 106 1.45 107 1.45 115 1.45
  44  0.708  0.417  0.502- 107 1.45 108 1.45 116 1.45
  45  0.708  0.542  0.502- 108 1.45 117 1.45 109 1.45
  46  0.708  0.667  0.502- 109 1.45 118 1.45 110 1.45
  47  0.708  0.792  0.502- 110 1.45 119 1.45 111 1.45
  48  0.708  0.917  0.502- 111 1.45 120 1.45 112 1.45
  49  0.833  0.042  0.502- 121 1.45 120 1.45 113 1.45
  50  0.833  0.167  0.502- 122 1.45 114 1.45 113 1.45
  51  0.833  0.292  0.502- 114 1.45 115 1.45 123 1.45
  52  0.833  0.417  0.502- 115 1.45 116 1.45 124 1.45
  53  0.833  0.542  0.502- 116 1.45 125 1.45 117 1.45
  54  0.833  0.667  0.502- 117 1.45 126 1.45 118 1.45
  55  0.833  0.792  0.502- 118 1.45 127 1.45 119 1.45
  56  0.833  0.917  0.502- 128 1.45 119 1.45 120 1.45
  57  0.958  0.042  0.502- 121 1.45  65 1.45 128 1.45
  58  0.958  0.167  0.502- 121 1.45 122 1.45  66 1.45
  59  0.958  0.292  0.502-  67 1.45 122 1.45 123 1.45
  60  0.958  0.417  0.502-  68 1.45 123 1.45 124 1.45
  61  0.958  0.542  0.502- 124 1.45 125 1.45  69 1.45
  62  0.958  0.667  0.502- 125 1.45  70 1.45 126 1.45
  63  0.958  0.792  0.502-  71 1.45 127 1.45 126 1.45
  64  0.958  0.917  0.502-  72 1.45 128 1.45 127 1.45
  65  0.042  0.083  0.502-   2 1.45   1 1.45  57 1.45
  66  0.042  0.208  0.502-   2 1.45   3 1.45  58 1.45
  67  0.042  0.333  0.502-   3 1.45  59 1.45   4 1.45
  68  0.042  0.458  0.502-  60 1.45   5 1.45   4 1.45
  69  0.042  0.583  0.502-   6 1.45  61 1.45   5 1.45
  70  0.042  0.708  0.502-  62 1.45   6 1.45   7 1.45
  71  0.042  0.833  0.502-  63 1.45   7 1.45   8 1.45
  72  0.042  0.958  0.502-   1 1.45  64 1.45   8 1.45
  73  0.167  0.083  0.502-  10 1.45   1 1.45   9 1.45
  74  0.167  0.208  0.502-  11 1.45  10 1.45   2 1.45
  75  0.167  0.333  0.501-  11 1.45  12 1.45   3 1.45
  76  0.167  0.458  0.501-  13 1.45  12 1.45   4 1.45
  77  0.167  0.583  0.502-  14 1.45   5 1.45  13 1.45
  78  0.167  0.708  0.502-  15 1.45   6 1.45  14 1.45
  79  0.167  0.833  0.502-   7 1.45  15 1.45  16 1.45
  80  0.167  0.958  0.502-   9 1.45  16 1.45   8 1.45
  81  0.292  0.083  0.502-  18 1.45   9 1.45  17 1.45
  82  0.292  0.208  0.502-  10 1.45  19 1.45  18 1.45
  83  0.292  0.333  0.502-  11 1.45  19 1.45  20 1.45
  84  0.292  0.458  0.501-  20 1.45  12 1.45  21 1.45
  85  0.292  0.583  0.502-  22 1.45  13 1.45  21 1.45
  86  0.292  0.708  0.502-  23 1.45  14 1.45  22 1.45
  87  0.292  0.833  0.502-  24 1.45  15 1.45  23 1.45
  88  0.292  0.958  0.502-  17 1.45  24 1.45  16 1.45
  89  0.417  0.083  0.502-  17 1.45  26 1.45  25 1.45
  90  0.417  0.208  0.502-  18 1.45  27 1.45  26 1.45
  91  0.417  0.333  0.502-  19 1.45  28 1.45  27 1.45
  92  0.417  0.458  0.502-  20 1.45  28 1.45  29 1.45
  93  0.417  0.583  0.502-  30 1.45  21 1.45  29 1.45
  94  0.417  0.708  0.502-  31 1.45  22 1.45  30 1.45
  95  0.417  0.833  0.502-  32 1.45  23 1.45  31 1.45
  96  0.417  0.958  0.502-  25 1.45  32 1.45  24 1.45
  97  0.542  0.083  0.502-  34 1.45  33 1.45  25 1.45
  98  0.542  0.208  0.502-  26 1.45  34 1.45  35 1.45
  99  0.542  0.333  0.502-  27 1.45  36 1.45  35 1.45
 100  0.542  0.458  0.502-  37 1.45  28 1.45  36 1.45
 101  0.542  0.583  0.502-  38 1.45  37 1.45  29 1.45
 102  0.542  0.708  0.502-  39 1.45  38 1.45  30 1.45
 103  0.542  0.833  0.502-  40 1.45  31 1.45  39 1.45
 104  0.542  0.958  0.502-  33 1.45  40 1.45  32 1.45
 105  0.667  0.083  0.502-  42 1.45  41 1.45  33 1.45
 106  0.667  0.208  0.502-  43 1.45  42 1.45  34 1.45
 107  0.667  0.333  0.502-  44 1.45  35 1.45  43 1.45
 108  0.667  0.458  0.502-  45 1.45  44 1.45  36 1.45
 109  0.667  0.583  0.502-  46 1.45  45 1.45  37 1.45
 110  0.667  0.708  0.502-  47 1.45  38 1.45  46 1.45
 111  0.667  0.833  0.502-  48 1.45  39 1.45  47 1.45
 112  0.667  0.958  0.502-  41 1.45  40 1.45  48 1.45
 113  0.792  0.083  0.502-  41 1.45  50 1.45  49 1.45
 114  0.792  0.208  0.502-  51 1.45  50 1.45  42 1.45
 115  0.792  0.333  0.502-  52 1.45  51 1.45  43 1.45
 116  0.792  0.458  0.502-  53 1.45  52 1.45  44 1.45
 117  0.792  0.583  0.502-  54 1.45  45 1.45  53 1.45
 118  0.792  0.708  0.502-  55 1.45  46 1.45  54 1.45
 119  0.792  0.833  0.502-  47 1.45  56 1.45  55 1.45
 120  0.792  0.958  0.502-  48 1.45  56 1.45  49 1.45
 121  0.917  0.083  0.502-  58 1.45  49 1.45  57 1.45
 122  0.917  0.208  0.502-  50 1.45  59 1.45  58 1.45
 123  0.917  0.333  0.502-  51 1.45  60 1.45  59 1.45
 124  0.917  0.458  0.502-  61 1.45  52 1.45  60 1.45
 125  0.917  0.583  0.502-  62 1.45  53 1.45  61 1.45
 126  0.917  0.708  0.502-  54 1.45  62 1.45  63 1.45
 127  0.917  0.833  0.502-  55 1.45  63 1.45  64 1.45
 128  0.917  0.958  0.502-  56 1.45  64 1.45  57 1.45
 129  0.279  0.235  0.675- 132 1.34 133 1.34 134 1.34 130 1.54
 130  0.265  0.237  0.632- 136 1.36 135 1.36 129 1.54 131 1.55
 131  0.257  0.306  0.620- 138 1.25 137 1.25 130 1.55
 132  0.346  0.297  0.686- 129 1.34
 133  0.283  0.172  0.685- 129 1.34
 134  0.222  0.235  0.695- 129 1.34
 135  0.325  0.238  0.614- 130 1.36
 136  0.201  0.170  0.624- 130 1.36
 137  0.318  0.368  0.614- 131 1.25
 138  0.191  0.296  0.617- 131 1.25
 

IMPORTANT INFORMATION: All symmetrisations will be switched off!
NOSYMM: (Re-)initialisation of all symmetry stuff for point group C_1.

 
 
 KPOINTS: K-Point Grid                            

Automatic generation of k-mesh.
Space group operators:
 irot       det(A)        alpha          n_x          n_y          n_z        tau_x        tau_y        tau_z
    1     1.000000     0.000001     1.000000     0.000000     0.000000     0.000000     0.000000     0.000000
 
 Subroutine IBZKPT returns following result:
 ===========================================
 
 Found      6 irreducible k-points:
 
 Following reciprocal coordinates:
            Coordinates               Weight
  0.250000  0.250000  0.000000     16.000000
  0.500000 -0.250000  0.000000     16.000000
  0.250000  0.500000  0.000000     16.000000
 -0.250000  0.250000  0.000000     16.000000
 -0.000000  0.250000  0.000000     16.000000
  0.250000 -0.000000  0.000000     16.000000
 
 Following cartesian coordinates:
            Coordinates               Weight
  0.024879  0.000000  0.000000     16.000000
  0.012439 -0.021546  0.000000     16.000000
  0.037318  0.007182  0.000000     16.000000
  0.000000  0.014364  0.000000     16.000000
  0.012439  0.007182  0.000000     16.000000
  0.012439 -0.007182  0.000000     16.000000
 


--------------------------------------------------------------------------------------------------------




 Dimension of arrays:
   k-points           NKPTS =      6   k-points in BZ     NKDIM =      6   number of bands    NBANDS=    480
   number of dos      NEDOS =   1200   number of ions     NIONS =    138
   non local maximal  LDIM  =      4   non local SUM 2l+1 LMDIM =      8
   total plane-waves  NPLWV = ******
   max r-space proj   IRMAX =   6620   max aug-charges    IRDMAX=   9003
   dimension x,y,z NGX =   160 NGY =  160 NGZ =  270
   dimension x,y,z NGXF=   320 NGYF=  320 NGZF=  540
   support grid    NGXF=   320 NGYF=  320 NGZF=  540
   ions per type =              64  64   3   5   2
   NGX,Y,Z   is equivalent  to a cutoff of  13.24, 13.24, 12.82 a.u.
   NGXF,Y,Z  is equivalent  to a cutoff of  26.47, 26.47, 25.65 a.u.

 SYSTEM =  hBN                                     
 POSCAR =  B N C F O                               

 Startparameter for this run:
   NWRITE =      2    write-flag & timer
   PREC   = accura    normal or accurate (medium, high low for compatibility)
   ISTART =      1    job   : 0-new  1-cont  2-samecut
   ICHARG =      0    charge: 1-file 2-atom 10-const
   ISPIN  =      2    spin polarized calculation?
   LNONCOLLINEAR =      F non collinear calculations
   LSORBIT =      F    spin-orbit coupling
   INIWAV =      1    electr: 0-lowe 1-rand  2-diag
   LASPH  =      T    aspherical Exc in radial PAW
   METAGGA=      F    non-selfconsistent MetaGGA calc.

 Electronic Relaxation 1
   ENCUT  =  550.0 eV  40.42 Ry    6.36 a.u.  38.43 38.43 66.93*2*pi/ulx,y,z
   ENINI  =  550.0     initial cutoff
   ENAUG  =  644.9 eV  augmentation charge cutoff
   NELM   =    500;   NELMIN=  2; NELMDL=  0     # of ELM steps 
   EDIFF  = 0.1E-04   stopping-criterion for ELM
   LREAL  =      T    real-space projection
   NLSPLINE    = F    spline interpolate recip. space projectors
   LCOMPAT=      F    compatible to vasp.4.4
   GGA_COMPAT  = T    GGA compatible to vasp.4.4-vasp.4.6
   LMAXPAW     = -100 max onsite density
   LMAXMIX     =    2 max onsite mixed and CHGCAR
   VOSKOWN=      0    Vosko Wilk Nusair interpolation
   ROPT   =   -0.00025  -0.00025  -0.00025  -0.00025
   ROPT   =   -0.00025
 Ionic relaxation
   EDIFFG = -.2E-01   stopping-criterion for IOM
   NSW    =      0    number of steps for IOM
   NBLOCK =      1;   KBLOCK =      1    inner block; outer block 
   IBRION =     -1    ionic relax: 0-MD 1-quasi-New 2-CG
   NFREE  =      1    steps in history (QN), initial steepest desc. (CG)
   ISIF   =      2    stress and relaxation
   IWAVPR =     10    prediction:  0-non 1-charg 2-wave 3-comb
   ISYM   =      0    0-nonsym 1-usesym 2-fastsym
   LCORR  =      T    Harris-Foulkes like correction to forces

   POTIM  = 0.5000    time-step for ionic-motion
   TEIN   =    0.0    initial temperature
   TEBEG  =    0.0;   TEEND  =   0.0 temperature during run
   SMASS  =  -3.00    Nose mass-parameter (am)
   estimated Nose-frequenzy (Omega)   =  0.10E-29 period in steps =****** mass=  -0.923E-26a.u.
   SCALEE = 1.0000    scale energy and forces
   NPACO  =    256;   APACO  = 16.0  distance and # of slots for P.C.
   PSTRESS=    0.0 pullay stress

  Mass of Ions in am
   POMASS =  10.81 14.00 12.01 19.00 16.00
  Ionic Valenz
   ZVAL   =   3.00  5.00  4.00  7.00  6.00
  Atomic Wigner-Seitz radii
   RWIGS  =  -1.00 -1.00 -1.00 -1.00 -1.00
  virtual crystal weights 
   VCA    =   1.00  1.00  1.00  1.00  1.00
   NELECT =     568.5000    total number of electrons
   NUPDOWN=      -1.0000    fix difference up-down

 DOS related values:
   EMIN   = -10.00;   EMAX   =  5.00  energy-range for DOS
   EFERMI =   0.00
   ISMEAR =     0;   SIGMA  =   0.05  broadening in eV -4-tet -1-fermi 0-gaus

 Electronic relaxation 2 (details)
   IALGO  =     68    algorithm
   LDIAG  =      T    sub-space diagonalisation (order eigenvalues)
   LSUBROT=      F    optimize rotation matrix (better conditioning)
   TURBO    =      0    0=normal 1=particle mesh
   IRESTART =      0    0=no restart 2=restart with 2 vectors
   NREBOOT  =      0    no. of reboots
   NMIN     =      0    reboot dimension
   EREF     =   0.00    reference energy to select bands
   IMIX   =      4    mixing-type and parameters
     AMIX     =   0.40;   BMIX     =  1.00
     AMIX_MAG =   1.60;   BMIX_MAG =  1.00
     AMIN     =   0.10
     WC   =   100.;   INIMIX=   1;  MIXPRE=   1;  MAXMIX= -45

 Intra band minimization:
   WEIMIN = 0.0000     energy-eigenvalue tresh-hold
   EBREAK =  0.52E-08  absolut break condition
   DEPER  =   0.30     relativ break condition  

   TIME   =   0.40     timestep for ELM

  volume/ion in A,a.u.               =      88.72       598.69
  Fermi-wavevector in a.u.,A,eV,Ry     =   0.588425  1.111962  4.710933  0.346244
  Thomas-Fermi vector in A             =   1.635684
 
 Write flags
   LWAVE        =      T    write WAVECAR
   LDOWNSAMPLE  =      F    k-point downsampling of WAVECAR
   LCHARG       =      T    write CHGCAR
   LVTOT        =      F    write LOCPOT, total local potential
   LVHAR        =      T    write LOCPOT, Hartree potential only
   LELF         =      F    write electronic localiz. function (ELF)
   LORBIT       =     11    0 simple, 1 ext, 2 COOP (PROOUT), +10 PAW based schemes


 Dipole corrections
   LMONO  =      F    monopole corrections only (constant potential shift)
   LDIPOL =      F    correct potential (dipole corrections)
   IDIPOL =      0    1-x, 2-y, 3-z, 4-all directions 
   EPSILON=  1.0000000 bulk dielectric constant

 Exchange correlation treatment:
   GGA     =    --    GGA type
   LEXCH   =     8    internal setting for exchange type
   VOSKOWN=      0    Vosko Wilk Nusair interpolation
   LHFCALC =     F    Hartree Fock is set to
   LHFONE  =     F    Hartree Fock one center treatment
   AEXX    =    0.0000 exact exchange contribution

 Linear response parameters
   LEPSILON=     F    determine dielectric tensor
   LRPA    =     F    only Hartree local field effects (RPA)
   LNABLA  =     F    use nabla operator in PAW spheres
   LVEL    =     F    velocity operator in full k-point grid
   LINTERFAST=   F  fast interpolation
   KINTER  =     0    interpolate to denser k-point grid
   CSHIFT  =0.1000    complex shift for real part using Kramers Kronig
   OMEGAMAX=  -1.0    maximum frequency
   DEG_THRESHOLD= 0.2000000E-02 threshold for treating states as degnerate
   RTIME   =   -0.100 relaxation time in fs
  (WPLASMAI=    0.000 imaginary part of plasma frequency in eV, 0.658/RTIME)
   DFIELD  = 0.0000000 0.0000000 0.0000000 field for delta impulse in time
 
 Orbital magnetization related:
   ORBITALMAG=     F  switch on orbital magnetization
   LCHIMAG   =     F  perturbation theory with respect to B field
   DQ        =  0.001000  dq finite difference perturbation B field
   LLRAUG    =     F  two centre corrections for induced B field

 Solvation model:
   LSOL    =     T         switch on solvation model
   EB_K    = 78.400000     relative permittivity of the bulk solvent
   SIGMA_K =  0.600000     width of the dielectric cavity
   NC_K    =  0.002500     cutoff charge density
   TAU     =  0.000000     cavity surface tension
   LAMBDA_D_K    =  3.040000     Debye length in Angstroms
   LRHOB     =     F     write boundcharge  density
   LRHOION     =     F     write ioniccharge density



--------------------------------------------------------------------------------------------------------


 Static calculation
 charge density and potential will be updated during run
 spin polarized calculation
 RMM-DIIS sequential band-by-band and
  variant of blocked Davidson during initial phase
 perform sub-space diagonalisation
    before iterative eigenvector-optimisation
 modified Broyden-mixing scheme, WC =      100.0
 initial mixing is a Kerker type mixing with AMIX =  0.4000 and BMIX =      1.0000
 Hartree-type preconditioning will be used
 using additional bands          195
 real space projection scheme for non local part
 use partial core corrections
 calculate Harris-corrections to forces 
   (improved forces if not selfconsistent)
 use gradient corrections 
 use of overlap-Matrix (Vanderbilt PP)
 Gauss-broadening in eV      SIGMA  =   0.05


--------------------------------------------------------------------------------------------------------


  energy-cutoff  :      550.00
  volume of cell :    12242.83
      direct lattice vectors                 reciprocal lattice vectors
    10.048700000-17.405000000  0.000000000     0.049757680 -0.028727377  0.000000000
    10.048700000 17.405000000  0.000000000     0.049757680  0.028727377  0.000000000
     0.000000000  0.000000000 35.000000000     0.000000000  0.000000000  0.028571429

  length of vectors
    20.097522153 20.097522153 35.000000000     0.057455104  0.057455104  0.028571429


 
 old parameters found on file WAVECAR:
  energy-cutoff  :      550.00
  volume of cell :    12242.83
      direct lattice vectors                 reciprocal lattice vectors
    10.048700000-17.405000000  0.000000000     0.049757680 -0.028727377  0.000000000
    10.048700000 17.405000000  0.000000000     0.049757680  0.028727377  0.000000000
     0.000000000  0.000000000 35.000000000     0.000000000  0.000000000  0.028571429

  length of vectors

 
 k-points in units of 2pi/SCALE and weight: K-Point Grid                            
   0.02487884  0.00000000  0.00000000       0.167
   0.01243942 -0.02154553  0.00000000       0.167
   0.03731826  0.00718184  0.00000000       0.167
   0.00000000  0.01436369  0.00000000       0.167
   0.01243942  0.00718184  0.00000000       0.167
   0.01243942 -0.00718184  0.00000000       0.167
 
 k-points in reciprocal lattice and weights: K-Point Grid                            
   0.25000000  0.25000000  0.00000000       0.167
   0.50000000 -0.25000000  0.00000000       0.167
   0.25000000  0.50000000  0.00000000       0.167
  -0.25000000  0.25000000  0.00000000       0.167
  -0.00000000  0.25000000  0.00000000       0.167
   0.25000000 -0.00000000  0.00000000       0.167
 
 position of ions in fractional coordinates (direct lattice) 
   0.08331595  0.04165129  0.50159195
   0.08330805  0.16664810  0.50158012
   0.08330975  0.29164857  0.50152245
   0.08331553  0.41664809  0.50152674
   0.08331797  0.54165026  0.50159177
   0.08331216  0.66664573  0.50166031
   0.08331248  0.79164667  0.50166857
   0.08331587  0.91665008  0.50162076
   0.20831882  0.04165006  0.50160601
   0.20831353  0.16664420  0.50158942
   0.20830584  0.29165764  0.50153412
   0.20831456  0.41665194  0.50150106
   0.20831486  0.54164679  0.50153101
   0.20831508  0.66664792  0.50161509
   0.20831139  0.79164569  0.50167257
   0.20831331  0.91664779  0.50164298
   0.33331644  0.04164686  0.50162290
   0.33332316  0.16664639  0.50162097
   0.33332758  0.29165849  0.50158168
   0.33331726  0.41665772  0.50153812
   0.33331552  0.54164846  0.50151039
   0.33331495  0.66664639  0.50157322
   0.33331208  0.79164527  0.50165362
   0.33331171  0.91664493  0.50166551
   0.45831212  0.04164440  0.50164837
   0.45831728  0.16664730  0.50161520
   0.45832261  0.29165306  0.50159650
   0.45831622  0.41665340  0.50155418
   0.45831309  0.54164828  0.50152399
   0.45831352  0.66664473  0.50156418
   0.45831293  0.79164455  0.50163146
   0.45831175  0.91664391  0.50167233
   0.58331193  0.04164323  0.50167183
   0.58331219  0.16664391  0.50164569
   0.58331561  0.29164842  0.50161359
   0.58331580  0.41665023  0.50158138
   0.58331284  0.54164647  0.50156151
   0.58331501  0.66664749  0.50158558
   0.58331347  0.79164495  0.50163428
   0.58331301  0.91664414  0.50166827
   0.70831436  0.04164508  0.50165242
   0.70831300  0.16664433  0.50165610
   0.70831245  0.29164411  0.50165636
   0.70831333  0.41664574  0.50163639
   0.70831536  0.54164731  0.50161830
   0.70831407  0.66664526  0.50162764
   0.70831514  0.79164598  0.50165405
   0.70831485  0.91664578  0.50166105
   0.83331718  0.04164881  0.50161235
   0.83331697  0.16664948  0.50160329
   0.83331443  0.29164678  0.50163071
   0.83331329  0.41664480  0.50165990
   0.83331326  0.54164450  0.50166671
   0.83331448  0.66664570  0.50166685
   0.83331522  0.79164664  0.50166353
   0.83331643  0.91664821  0.50164266
   0.95831811  0.04165216  0.50159177
   0.95831388  0.16664795  0.50156472
   0.95831523  0.29164903  0.50155928
   0.95831831  0.41665042  0.50160245
   0.95831318  0.54164533  0.50165434
   0.95831269  0.66664501  0.50167969
   0.95831482  0.79164742  0.50166262
   0.95831669  0.91664960  0.50162223
   0.04165204  0.08331980  0.50157296
   0.04164847  0.20831685  0.50153828
   0.04164661  0.33331632  0.50150889
   0.04165012  0.45831745  0.50155507
   0.04164715  0.58331370  0.50162832
   0.04164602  0.70831273  0.50166787
   0.04164789  0.83331501  0.50164157
   0.04165037  0.95831797  0.50159288
   0.16665212  0.08331943  0.50158255
   0.16665397  0.20832211  0.50158355
   0.16664534  0.33331833  0.50148336
   0.16664782  0.45831630  0.50149274
   0.16664974  0.58331634  0.50156266
   0.16664619  0.70831301  0.50164744
   0.16664603  0.83331344  0.50165845
   0.16664960  0.95831715  0.50160527
   0.29165160  0.08331817  0.50160371
   0.29165028  0.20832170  0.50162089
   0.29164174  0.33331033  0.50156873
   0.29164741  0.45831423  0.50148683
   0.29164850  0.58331483  0.50151210
   0.29164791  0.70831384  0.50160368
   0.29164522  0.83331185  0.50166575
   0.29164734  0.95831385  0.50163257
   0.41664886  0.08331423  0.50161073
   0.41665126  0.20831828  0.50160459
   0.41665028  0.33331781  0.50156791
   0.41664448  0.45831386  0.50150827
   0.41664771  0.58331477  0.50150764
   0.41664800  0.70831347  0.50157593
   0.41664599  0.83331157  0.50164930
   0.41664564  0.95831106  0.50165748
   0.54164619  0.08331078  0.50164882
   0.54164923  0.20831426  0.50160803
   0.54165218  0.33331763  0.50157805
   0.54164825  0.45831563  0.50154031
   0.54164766  0.58331491  0.50153199
   0.54164813  0.70831378  0.50158220
   0.54164693  0.83331211  0.50163722
   0.54164592  0.95831055  0.50166598
   0.66664649  0.08331106  0.50165607
   0.66664647  0.20831108  0.50164949
   0.66664865  0.33331329  0.50162708
   0.66664992  0.45831532  0.50159559
   0.66664823  0.58331379  0.50158653
   0.66664901  0.70831388  0.50161448
   0.66664796  0.83331280  0.50164921
   0.66664724  0.95831194  0.50165717
   0.79164863  0.08331469  0.50160652
   0.79164732  0.20831360  0.50162100
   0.79164658  0.33331216  0.50164991
   0.79164756  0.45831230  0.50165245
   0.79164881  0.58331342  0.50164530
   0.79164821  0.70831323  0.50165087
   0.79164886  0.83331409  0.50165447
   0.79164867  0.95831439  0.50163356
   0.91664932  0.08331606  0.50157291
   0.91664844  0.20831585  0.50155479
   0.91664819  0.33331612  0.50158438
   0.91664739  0.45831341  0.50163455
   0.91664678  0.58331219  0.50166506
   0.91664765  0.70831327  0.50166774
   0.91664873  0.83331487  0.50164403
   0.91665032  0.95831716  0.50160352
   0.27943979  0.23538699  0.67538568
   0.26531795  0.23705956  0.63233463
   0.25703609  0.30629547  0.61977312
   0.34578589  0.29738780  0.68573698
   0.28300423  0.17237302  0.68461876
   0.22201940  0.23460265  0.69540855
   0.32541229  0.23776975  0.61382671
   0.20065603  0.16966047  0.62368327
   0.31776040  0.36805429  0.61400541
   0.19063195  0.29581885  0.61692894
 
 position of ions in cartesian coordinates  (Angst):
   1.25575834 -0.72517344 17.55571808
   2.51173439  1.45053365 17.55530404
   3.76784371  3.62613709 17.55328561
   5.02398440  5.80165314 17.55343579
   6.28011831  7.97727351 17.55571206
   7.53610189 10.15292086 17.55811071
   8.79220194 12.32855655 17.55839980
  10.04835782 14.50418194 17.55672670
   2.51186225 -2.90086970 17.55621047
   3.76783776 -0.72525463 17.55562979
   5.02398300  1.45073820 17.55369418
   6.28010085  3.62611222 17.55253723
   7.53613964  5.80164227 17.55358527
   8.79224068  7.97728296 17.55652803
  10.04826870 10.15293347 17.55853986
  11.30439655 12.32856168 17.55750424
   3.76789370 -5.07650917 17.55680142
   5.02404408 -2.90100917 17.55673402
   6.28029746 -0.72525048 17.55535878
   7.53627358  1.45054077 17.55383437
   8.79225052  3.62603493 17.55286371
  10.04831159  5.80163373 17.55506261
  11.30435896  7.97728922 17.55787674
  12.56043925 10.15291474 17.55829284
   5.02391310 -7.25210167 17.55769286
   6.28008155 -5.07651588 17.55653197
   7.53628050 -2.90088340 17.55587750
   8.79230721 -0.72514134 17.55439627
  10.04831182  1.45044899 17.55333969
  11.30436794  3.62600460 17.55474627
  12.56044776  5.80163695 17.55710114
  13.81651690  7.97727119 17.55853167
   6.27998687 -9.42774375 17.55851416
   7.53608387 -7.25211142 17.55759927
   8.79225102 -5.07646736 17.55647555
  10.04835863 -2.90081429 17.55534822
  11.30437867 -0.72520317 17.55465294
  12.56049817  1.45040189 17.55549518
  13.81654473  3.62600935 17.55719971
  15.07261944  5.80162835 17.55838941
   7.53611748-11.60337887 17.55783476
   8.79218371 -9.42774317 17.55796333
  10.04826341 -7.25211243 17.55797251
  11.30437620 -5.07647427 17.55727377
  12.56049983 -2.90085749 17.55664063
  13.81655382 -0.72524570 17.55696738
  15.07265931  1.45037339 17.55789191
  16.32874185  3.62599984 17.55813669
   8.79227082-13.77898799 17.55643229
  10.04836288-11.60334764 17.55611529
  11.30439770 -9.42772554 17.55707484
  12.56045384 -7.25211495 17.55809656
  13.81653812 -5.07649481 17.55833477
  15.07264985 -2.90087012 17.55833992
  16.32875424 -0.72524160 17.55822359
  17.58486969  1.45038978 17.55749317
  10.04840127-15.95457075 17.55571193
  11.30440394-13.77894561 17.55476515
  12.56051591-11.60332514 17.55457467
  13.81664833 -9.42772961 17.55608577
  15.07263303 -7.25210396 17.55790184
  16.32871241 -5.07647598 17.55878918
  17.58484556 -2.90084595 17.55819154
  18.84097378 -0.72521581 17.55677790
   1.25580459  0.72522735 17.55505351
   2.51182653  2.90086305 17.55383970
   3.76788997  5.07651135 17.55281107
   5.02402409  7.25209495 17.55442741
   6.28004409  9.42770643 17.55699134
   7.53611045 11.60333410 17.55837562
   8.79223972 13.77896623 17.55745481
  10.04838186 15.95459973 17.55575072
   2.51188907 -1.45040545 17.55538913
   3.76802216  0.72523397 17.55542427
   5.02398500  2.90094340 17.55191754
   6.28007696  5.07648980 17.55224602
   7.53618417  7.25208229 17.55469312
   8.79220251  9.42771096 17.55766051
  10.04829279 11.60334627 17.55804571
  11.30445336 13.77897370 17.55618454
   3.76795873 -3.62604339 17.55612986
   5.02406839 -1.45033398 17.55673130
   6.27995586  0.72524190 17.55490556
   7.53613950  2.90083589 17.55203889
   8.79224403  5.07645251 17.55292346
  10.04831565  7.25207045 17.55612879
  11.30435610  9.42770755 17.55830118
  12.56048499 11.60333052 17.55713988
   5.02397902 -5.80168924 17.55637571
   6.28013147 -3.62603555 17.55616072
   7.53620437 -1.45040165 17.55487668
   8.79219383  0.72525553 17.55278952
  10.04832291  2.90084015 17.55276749
  11.30440025  5.07643746 17.55515741
  12.56044852  7.25206451 17.55772547
  13.81652746  9.42768659 17.55801188
   6.28000505 -7.97732786 17.55770868
   7.53615812 -5.80169532 17.55628104
   8.79230911 -3.62606285 17.55523174
  10.04833708 -1.45040427 17.55391086
  11.30441133  0.72521845 17.55361975
  12.56049226  2.90081574 17.55537712
  13.81655087  5.07643243 17.55730259
  15.07261258  7.25204787 17.55830923
   7.53609850-10.15295318 17.55796228
   8.79218589 -7.97732750 17.55773225
  10.04831760 -5.80170187 17.55694769
  11.30443823 -3.62606384 17.55584557
  12.56049331 -1.45043584 17.55552849
  13.81658961  0.72517713 17.55650672
  15.07265572  2.90080147 17.55772248
  16.32872736  5.07642418 17.55800110
   8.79224397-12.32855217 17.55622812
  10.04830731-10.15292355 17.55673499
  11.30437287 -7.97731067 17.55774683
  12.56047163 -5.80170006 17.55783581
  13.81658292 -3.62607737 17.55758548
  15.07266251 -1.45044525 17.55778060
  16.32876528  0.72518334 17.55790662
  17.58485378  2.90081678 17.55717452
  10.04835213-14.50416539 17.55505186
  11.30442864-12.32852861 17.55441782
  12.56051628-10.15289470 17.55545335
  13.81656860 -7.97730289 17.55720931
  15.07263763 -5.80168851 17.55827723
  16.32874478 -3.62605977 17.55837082
  17.58485925 -1.45042581 17.55754116
  18.84098567  0.72521136 17.55612328
   5.17333985 -0.76673886 23.63849867
   5.04824083 -0.49183725 22.13171212
   5.66074985  0.85735962 21.69205912
   6.46305941 -0.84236884 24.00079424
   4.57594936 -1.92553611 23.96165645
   4.58845798  0.21901148 24.33929930
   5.65924734 -1.52541831 21.48393496
   3.72119941 -0.53947766 21.82891437
   6.89154609  0.87536507 21.49018947
   4.88819809  1.83077799 21.59251298
 


--------------------------------------------------------------------------------------------------------


 k-point  1 :   0.2500 0.2500 0.0000  plane waves:  358590
 k-point  2 :   0.5000-0.2500 0.0000  plane waves:  358584
 k-point  3 :   0.2500 0.5000 0.0000  plane waves:  358584
 k-point  4 :  -0.2500 0.2500 0.0000  plane waves:  358603
 k-point  5 :  -0.0000 0.2500 0.0000  plane waves:  358599
 k-point  6 :   0.2500-0.0000 0.0000  plane waves:  358599

 maximum and minimum number of plane-waves per node :    358603   358584

 maximum number of plane-waves:    358603
 maximum index in each direction: 
   IXMAX=   38   IYMAX=   38   IZMAX=   66
   IXMIN=  -38   IYMIN=  -38   IZMIN=  -66


 serial   3D FFT for wavefunctions
 parallel 3D FFT for charge:
    minimum data exchange during FFTs selected (reduces bandwidth)


 total amount of memory used by VASP MPI-rank0  1569540. kBytes
=======================================================================

   base      :      30000. kBytes
   nonlr-proj:      63780. kBytes
   fftplans  :      50141. kBytes
   grid      :    1079357. kBytes
   one-center:        847. kBytes
   wavefun   :     345415. kBytes
 
     INWAV:  cpu time  154.8358: real time  154.9573
 Broyden mixing: mesh for mixing (old mesh)
   NGX = 77   NGY = 77   NGZ =133
  (NGX  =320   NGY  =320   NGZ  =540)
  gives a total of 788557 points

 charge density for first step will be calculated from the start-wavefunctions


--------------------------------------------------------------------------------------------------------


 Maximum index for non-local projection operator         6396
 Maximum index for augmentation-charges          390 (set IRDMAX)


--------------------------------------------------------------------------------------------------------


 initial charge from wavefunction
 First call to EWALD:  gamma=   0.077
 Maximum number of real-space cells 3x 3x 2
 Maximum number of reciprocal cells 2x 2x 4

    FEWALD:  cpu time    0.0369: real time    0.0357


--------------------------------------- Iteration      1(   1)  ---------------------------------------


    POTLOK:  cpu time   56.1951: real time   56.0116
    SETDIJ:  cpu time    0.0284: real time    0.0228
     EDDAV:  cpu time  299.9011: real time  247.8120
       DOS:  cpu time    0.0068: real time    0.0034
    CHARGE:  cpu time   48.9045: real time   46.7418
    MIXING:  cpu time    0.1344: real time    0.1344
    --------------------------------------------
      LOOP:  cpu time  405.1705: real time  350.7261

 eigenvalue-minimisations  : 11520
 total energy-change (2. order) :-0.1312274E+04  (-0.6779003E-02)
 number of electron     568.4999969 magnetization       0.3758942
 augmentation part       22.3847569 magnetization       0.0763735

 Broyden mixing:
  rms(total) = 0.24010E-01    rms(broyden)= 0.23980E-01
  rms(prec ) = 0.24538E-01
  weight for this iteration     100.00

 Free energy of the ion-electron system (eV)
  ---------------------------------------------------
  alpha Z        PSCENC =       143.65704873
  Ewald energy   TEWEN  =    181406.27559354
  -Hartree energ DENC   =   -201994.13126943
  -exchange      EXHF   =         0.00000000
  -V(xc)+E(xc)   XCENC  =      2551.36386839
  PAW double counting   =     67448.84119348   -67714.27209511
  entropy T*S    EENTRO =        -0.02860565
  eigenvalues    EBANDS =     -8263.85922393
  atomic energy  EATOM  =     26089.46230379
  Solvation  Ediel_sol  =      -979.58297141
  ---------------------------------------------------
  free energy    TOTEN  =     -1312.27415760 eV

  energy without entropy =    -1312.24555195  energy(sigma->0) =    -1312.25985477


--------------------------------------------------------------------------------------------------------




--------------------------------------- Iteration      1(   2)  ---------------------------------------


    POTLOK:  cpu time   44.0861: real time   44.0661
    SETDIJ:  cpu time    0.0205: real time    0.0153
    EDDIAG:  cpu time   62.5301: real time   56.0161
  RMM-DIIS:  cpu time  330.6729: real time  291.7157
    ORTHCH:  cpu time    3.0423: real time    1.5340
       DOS:  cpu time    0.0046: real time    0.0023
    CHARGE:  cpu time   30.2070: real time   27.8943
    MIXING:  cpu time    0.0656: real time    0.0656
    --------------------------------------------
      LOOP:  cpu time  470.6291: real time  421.3094

 eigenvalue-minimisations  : 12128
 total energy-change (2. order) :-0.8607406E-03  (-0.3381110E-03)
 number of electron     568.4999969 magnetization       0.3751349
 augmentation part       22.3924285 magnetization       0.1478965

 Broyden mixing:
  rms(total) = 0.67150E-01    rms(broyden)= 0.67080E-01
  rms(prec ) = 0.68793E-01
  weight for this iteration     100.00

 eigenvalues of (default mixing * dielectric matrix)
  average eigenvalue GAMMA=   0.2100
  0.2100

 Free energy of the ion-electron system (eV)
  ---------------------------------------------------
  alpha Z        PSCENC =       143.65704873
  Ewald energy   TEWEN  =    181406.27559354
  -Hartree energ DENC   =   -201994.15191962
  -exchange      EXHF   =         0.00000000
  -V(xc)+E(xc)   XCENC  =      2551.39401291
  PAW double counting   =     67481.68172171   -67747.08804217
  entropy T*S    EENTRO =        -0.02966532
  eigenvalues    EBANDS =     -8264.09197365
  atomic energy  EATOM  =     26089.46230379
  Solvation  Ediel_sol  =      -979.38409826
  ---------------------------------------------------
  free energy    TOTEN  =     -1312.27501834 eV

  energy without entropy =    -1312.24535302  energy(sigma->0) =    -1312.26018568


--------------------------------------------------------------------------------------------------------




--------------------------------------- Iteration      1(   3)  ---------------------------------------


    POTLOK:  cpu time   33.7969: real time   33.7900
    SETDIJ:  cpu time    0.0201: real time    0.0150
    EDDIAG:  cpu time   42.7099: real time   36.5242
  RMM-DIIS:  cpu time  251.1599: real time  210.0098
    ORTHCH:  cpu time    3.0551: real time    1.5360
       DOS:  cpu time    0.0046: real time    0.0023
    CHARGE:  cpu time   37.1178: real time   34.8172
    MIXING:  cpu time    0.0640: real time    0.0640
    --------------------------------------------
      LOOP:  cpu time  367.9283: real time  316.7585

 eigenvalue-minimisations  : 12098
 total energy-change (2. order) : 0.2674295E-02  (-0.3304446E-03)
 number of electron     568.4999969 magnetization       0.3748880
 augmentation part       22.3858524 magnetization       0.1023301

 Broyden mixing:
  rms(total) = 0.14941E-01    rms(broyden)= 0.14880E-01
  rms(prec ) = 0.15192E-01
  weight for this iteration     100.00

 eigenvalues of (default mixing * dielectric matrix)
  average eigenvalue GAMMA=   0.7881
  1.3098  0.2665

 Free energy of the ion-electron system (eV)
  ---------------------------------------------------
  alpha Z        PSCENC =       143.65704873
  Ewald energy   TEWEN  =    181406.27559354
  -Hartree energ DENC   =   -201994.07206585
  -exchange      EXHF   =         0.00000000
  -V(xc)+E(xc)   XCENC  =      2551.42597915
  PAW double counting   =     67486.10257177   -67751.50609736
  entropy T*S    EENTRO =        -0.02899841
  eigenvalues    EBANDS =     -8264.13590900
  atomic energy  EATOM  =     26089.46230379
  Solvation  Ediel_sol  =      -979.45277040
  ---------------------------------------------------
  free energy    TOTEN  =     -1312.27234405 eV

  energy without entropy =    -1312.24334564  energy(sigma->0) =    -1312.25784484


--------------------------------------------------------------------------------------------------------




--------------------------------------- Iteration      1(   4)  ---------------------------------------


    POTLOK:  cpu time   32.8575: real time   32.8511
    SETDIJ:  cpu time    0.0207: real time    0.0152
    EDDIAG:  cpu time   39.3652: real time   33.1781
  RMM-DIIS:  cpu time  248.0428: real time  207.7344
    ORTHCH:  cpu time    3.1158: real time    1.5656
       DOS:  cpu time    0.0039: real time    0.0019
    CHARGE:  cpu time   35.1983: real time   32.9026
    MIXING:  cpu time    0.0660: real time    0.0660
    --------------------------------------------
      LOOP:  cpu time  358.6701: real time  308.3150

 eigenvalue-minimisations  : 12190
 total energy-change (2. order) :-0.2021961E-02  (-0.1537987E-03)
 number of electron     568.4999969 magnetization       0.3756983
 augmentation part       22.3745920 magnetization       0.0245102

 Broyden mixing:
  rms(total) = 0.69175E-01    rms(broyden)= 0.69066E-01
  rms(prec ) = 0.71365E-01
  weight for this iteration     100.00

 eigenvalues of (default mixing * dielectric matrix)
  average eigenvalue GAMMA=   0.9802
  2.3151  0.3128  0.3128

 Free energy of the ion-electron system (eV)
  ---------------------------------------------------
  alpha Z        PSCENC =       143.65704873
  Ewald energy   TEWEN  =    181406.27559354
  -Hartree energ DENC   =   -201993.65789102
  -exchange      EXHF   =         0.00000000
  -V(xc)+E(xc)   XCENC  =      2551.38215839
  PAW double counting   =     67516.93316133   -67782.31423841
  entropy T*S    EENTRO =        -0.02796329
  eigenvalues    EBANDS =     -8264.58523091
  atomic energy  EATOM  =     26089.46230379
  Solvation  Ediel_sol  =      -979.39930816
  ---------------------------------------------------
  free energy    TOTEN  =     -1312.27436601 eV

  energy without entropy =    -1312.24640272  energy(sigma->0) =    -1312.26038436


--------------------------------------------------------------------------------------------------------




--------------------------------------- Iteration      1(   5)  ---------------------------------------


    POTLOK:  cpu time   33.6985: real time   33.6950
    SETDIJ:  cpu time    0.0200: real time    0.0149
    EDDIAG:  cpu time   39.4145: real time   33.1949
  RMM-DIIS:  cpu time  244.4411: real time  202.5163
    ORTHCH:  cpu time    3.0871: real time    1.5510
       DOS:  cpu time    0.0047: real time    0.0024
    CHARGE:  cpu time   38.9453: real time   36.6559
    MIXING:  cpu time    0.0672: real time    0.0672
    --------------------------------------------
      LOOP:  cpu time  359.6784: real time  307.6976

 eigenvalue-minimisations  : 12161
 total energy-change (2. order) :-0.1496791E-03  (-0.4898196E-03)
 number of electron     568.4999969 magnetization       0.3754948
 augmentation part       22.3856422 magnetization       0.1124753

 Broyden mixing:
  rms(total) = 0.19049E-01    rms(broyden)= 0.18773E-01
  rms(prec ) = 0.19414E-01
  weight for this iteration     100.00

 eigenvalues of (default mixing * dielectric matrix)
  average eigenvalue GAMMA=   0.8249
  2.3304  0.3006  0.3006  0.3679

 Free energy of the ion-electron system (eV)
  ---------------------------------------------------
  alpha Z        PSCENC =       143.65704873
  Ewald energy   TEWEN  =    181406.27559354
  -Hartree energ DENC   =   -201993.59656303
  -exchange      EXHF   =         0.00000000
  -V(xc)+E(xc)   XCENC  =      2551.32432458
  PAW double counting   =     67527.08489194   -67792.45749000
  entropy T*S    EENTRO =        -0.02912496
  eigenvalues    EBANDS =     -8264.72676325
  atomic energy  EATOM  =     26089.46230379
  Solvation  Ediel_sol  =      -979.26873703
  ---------------------------------------------------
  free energy    TOTEN  =     -1312.27451569 eV

  energy without entropy =    -1312.24539072  energy(sigma->0) =    -1312.25995320


--------------------------------------------------------------------------------------------------------




--------------------------------------- Iteration      1(   6)  ---------------------------------------


    POTLOK:  cpu time   33.3350: real time   33.3297
    SETDIJ:  cpu time    0.0212: real time    0.0160
    EDDIAG:  cpu time   39.3681: real time   33.1696
  RMM-DIIS:  cpu time  245.9135: real time  208.2586
    ORTHCH:  cpu time    3.0835: real time    1.5495
       DOS:  cpu time    0.0048: real time    0.0024
    CHARGE:  cpu time   39.5002: real time   37.2109
    MIXING:  cpu time    0.0741: real time    0.0741
    --------------------------------------------
      LOOP:  cpu time  361.3003: real time  313.6110

 eigenvalue-minimisations  : 12578
 total energy-change (2. order) : 0.3200552E-03  (-0.2936516E-03)
 number of electron     568.4999969 magnetization       0.3755090
 augmentation part       22.3843909 magnetization       0.0997251

 Broyden mixing:
  rms(total) = 0.67622E-02    rms(broyden)= 0.67611E-02
  rms(prec ) = 0.69877E-02
  weight for this iteration     100.00

 eigenvalues of (default mixing * dielectric matrix)
  average eigenvalue GAMMA=   0.8988
  2.4312  0.9100  0.3077  0.3077  0.5376

 Free energy of the ion-electron system (eV)
  ---------------------------------------------------
  alpha Z        PSCENC =       143.65704873
  Ewald energy   TEWEN  =    181406.27559354
  -Hartree energ DENC   =   -201993.50690924
  -exchange      EXHF   =         0.00000000
  -V(xc)+E(xc)   XCENC  =      2551.36094548
  PAW double counting   =     67528.04154723   -67793.41370708
  entropy T*S    EENTRO =        -0.02893557
  eigenvalues    EBANDS =     -8264.83331718
  atomic energy  EATOM  =     26089.46230379
  Solvation  Ediel_sol  =      -979.28876534
  ---------------------------------------------------
  free energy    TOTEN  =     -1312.27419563 eV

  energy without entropy =    -1312.24526006  energy(sigma->0) =    -1312.25972785


--------------------------------------------------------------------------------------------------------




--------------------------------------- Iteration      1(   7)  ---------------------------------------


    POTLOK:  cpu time   30.4531: real time   30.4504
    SETDIJ:  cpu time    0.0207: real time    0.0155
    EDDIAG:  cpu time   39.4530: real time   33.2468
  RMM-DIIS:  cpu time  219.1082: real time  184.5778
    ORTHCH:  cpu time    3.0702: real time    1.5431
       DOS:  cpu time    0.0039: real time    0.0019
    CHARGE:  cpu time   40.3324: real time   38.0473
    MIXING:  cpu time    0.0686: real time    0.0686
    --------------------------------------------
      LOOP:  cpu time  332.5100: real time  287.9514

 eigenvalue-minimisations  : 10346
 total energy-change (2. order) : 0.9777228E-05  (-0.1094524E-04)
 number of electron     568.4999969 magnetization       0.3755219
 augmentation part       22.3843626 magnetization       0.0970365

 Broyden mixing:
  rms(total) = 0.38157E-02    rms(broyden)= 0.38145E-02
  rms(prec ) = 0.39524E-02
  weight for this iteration     100.00

 eigenvalues of (default mixing * dielectric matrix)
  average eigenvalue GAMMA=   0.9372
  2.5124  1.1756  0.8263  0.3069  0.3069  0.4953

 Free energy of the ion-electron system (eV)
  ---------------------------------------------------
  alpha Z        PSCENC =       143.65704873
  Ewald energy   TEWEN  =    181406.27559354
  -Hartree energ DENC   =   -201993.40852097
  -exchange      EXHF   =         0.00000000
  -V(xc)+E(xc)   XCENC  =      2551.35330757
  PAW double counting   =     67529.43765108   -67794.80947514
  entropy T*S    EENTRO =        -0.02889555
  eigenvalues    EBANDS =     -8264.93664177
  atomic energy  EATOM  =     26089.46230379
  Solvation  Ediel_sol  =      -979.27655713
  ---------------------------------------------------
  free energy    TOTEN  =     -1312.27418585 eV

  energy without entropy =    -1312.24529030  energy(sigma->0) =    -1312.25973808


--------------------------------------------------------------------------------------------------------




--------------------------------------- Iteration      1(   8)  ---------------------------------------


    POTLOK:  cpu time   30.1608: real time   30.1562
    SETDIJ:  cpu time    0.0419: real time    0.0258
    EDDIAG:  cpu time   39.4258: real time   33.2334
  RMM-DIIS:  cpu time  210.8633: real time  178.3401
    ORTHCH:  cpu time    3.1073: real time    1.5613
       DOS:  cpu time    0.0038: real time    0.0019
    CHARGE:  cpu time   40.1414: real time   37.8490
    MIXING:  cpu time    0.0697: real time    0.0697
    --------------------------------------------
      LOOP:  cpu time  323.8140: real time  281.2375

 eigenvalue-minimisations  :  9941
 total energy-change (2. order) :-0.4105497E-04  (-0.3954968E-05)
 number of electron     568.4999969 magnetization       0.3755425
 augmentation part       22.3840091 magnetization       0.0938012

 Broyden mixing:
  rms(total) = 0.70040E-03    rms(broyden)= 0.67938E-03
  rms(prec ) = 0.70463E-03
  weight for this iteration     100.00

 eigenvalues of (default mixing * dielectric matrix)
  average eigenvalue GAMMA=   0.9376
  2.5688  1.1540  1.1540  0.3071  0.3071  0.5361  0.5361

 Free energy of the ion-electron system (eV)
  ---------------------------------------------------
  alpha Z        PSCENC =       143.65704873
  Ewald energy   TEWEN  =    181406.27559354
  -Hartree energ DENC   =   -201993.38256398
  -exchange      EXHF   =         0.00000000
  -V(xc)+E(xc)   XCENC  =      2551.35339546
  PAW double counting   =     67529.90602956   -67795.27809583
  entropy T*S    EENTRO =        -0.02884499
  eigenvalues    EBANDS =     -8264.96468669
  atomic energy  EATOM  =     26089.46230379
  Solvation  Ediel_sol  =      -979.27440650
  ---------------------------------------------------
  free energy    TOTEN  =     -1312.27422691 eV

  energy without entropy =    -1312.24538192  energy(sigma->0) =    -1312.25980441


--------------------------------------------------------------------------------------------------------




--------------------------------------- Iteration      1(   9)  ---------------------------------------


    POTLOK:  cpu time   29.7490: real time   29.7424
    SETDIJ:  cpu time    0.0200: real time    0.0149
    EDDIAG:  cpu time   39.4684: real time   33.2525
  RMM-DIIS:  cpu time  208.6786: real time  177.8150
    ORTHCH:  cpu time    3.1291: real time    1.5729
       DOS:  cpu time    0.0040: real time    0.0020
    CHARGE:  cpu time   35.4372: real time   33.1200
    MIXING:  cpu time    0.0709: real time    0.0709
    --------------------------------------------
      LOOP:  cpu time  316.5572: real time  275.5907

 eigenvalue-minimisations  :  9639
 total energy-change (2. order) :-0.6985277E-04  (-0.4407305E-05)
 number of electron     568.4999969 magnetization       0.3755651
 augmentation part       22.3840497 magnetization       0.0940996

 Broyden mixing:
  rms(total) = 0.70366E-03    rms(broyden)= 0.70318E-03
  rms(prec ) = 0.73468E-03
  weight for this iteration     100.00

 eigenvalues of (default mixing * dielectric matrix)
  average eigenvalue GAMMA=   0.9752
  2.6292  1.4345  1.4345  0.3070  0.3070  0.6142  0.6142  0.4614

 Free energy of the ion-electron system (eV)
  ---------------------------------------------------
  alpha Z        PSCENC =       143.65704873
  Ewald energy   TEWEN  =    181406.27559354
  -Hartree energ DENC   =   -201993.38249348
  -exchange      EXHF   =         0.00000000
  -V(xc)+E(xc)   XCENC  =      2551.35297630
  PAW double counting   =     67529.98331171   -67795.35555042
  entropy T*S    EENTRO =        -0.02884852
  eigenvalues    EBANDS =     -8264.96422997
  atomic energy  EATOM  =     26089.46230379
  Solvation  Ediel_sol  =      -979.27440845
  ---------------------------------------------------
  free energy    TOTEN  =     -1312.27429676 eV

  energy without entropy =    -1312.24544824  energy(sigma->0) =    -1312.25987250


--------------------------------------------------------------------------------------------------------




--------------------------------------- Iteration      1(  10)  ---------------------------------------


    POTLOK:  cpu time   28.9815: real time   28.9757
    SETDIJ:  cpu time    0.0202: real time    0.0149
    EDDIAG:  cpu time   39.4154: real time   33.2250
  RMM-DIIS:  cpu time  198.5252: real time  166.4039
    ORTHCH:  cpu time    3.1116: real time    1.5643
       DOS:  cpu time    0.0038: real time    0.0019
    --------------------------------------------
      LOOP:  cpu time  270.0577: real time  230.1857

 eigenvalue-minimisations  :  9269
 total energy-change (2. order) :-0.9326039E-05  (-0.8970177E-06)
 number of electron     568.4999969 magnetization       0.3755651
 augmentation part       22.3840497 magnetization       0.0940996

 Free energy of the ion-electron system (eV)
  ---------------------------------------------------
  alpha Z        PSCENC =       143.65704873
  Ewald energy   TEWEN  =    181406.27559354
  -Hartree energ DENC   =   -201993.38645432
  -exchange      EXHF   =         0.00000000
  -V(xc)+E(xc)   XCENC  =      2551.35389987
  PAW double counting   =     67530.00973652   -67795.38217724
  entropy T*S    EENTRO =        -0.02884371
  eigenvalues    EBANDS =     -8264.95819500
  atomic energy  EATOM  =     26089.46230379
  Solvation  Ediel_sol  =      -979.27721827
  ---------------------------------------------------
  free energy    TOTEN  =     -1312.27430609 eV

  energy without entropy =    -1312.24546238  energy(sigma->0) =    -1312.25988423


--------------------------------------------------------------------------------------------------------




 average (electrostatic) potential at core
  the test charge radii are     0.7672  0.7089  0.6991  0.7167  0.7215
  (the norm of the test charge is              1.0000)
       1 -39.1437       2 -39.1450       3 -39.1425       4 -39.1417       5 -39.1425
       6 -39.1429       7 -39.1428       8 -39.1426       9 -39.1440      10 -39.1483
      11 -39.1469      12 -39.1423      13 -39.1419      14 -39.1427      15 -39.1428
      16 -39.1427      17 -39.1430      18 -39.1460      19 -39.1478      20 -39.1441
      21 -39.1418      22 -39.1424      23 -39.1428      24 -39.1428      25 -39.1426
      26 -39.1430      27 -39.1438      28 -39.1430      29 -39.1418      30 -39.1421
      31 -39.1428      32 -39.1429      33 -39.1429      34 -39.1428      35 -39.1425
      36 -39.1421      37 -39.1420      38 -39.1423      39 -39.1428      40 -39.1429
      41 -39.1429      42 -39.1429      43 -39.1429      44 -39.1426      45 -39.1425
      46 -39.1427      47 -39.1429      48 -39.1429      49 -39.1425      50 -39.1426
      51 -39.1427      52 -39.1429      53 -39.1429      54 -39.1429      55 -39.1429
      56 -39.1427      57 -39.1426      58 -39.1423      59 -39.1420      60 -39.1425
      61 -39.1429      62 -39.1429      63 -39.1428      64 -39.1426      65 -76.7561
      66 -76.7560      67 -76.7550      68 -76.7558      69 -76.7564      70 -76.7562
      71 -76.7558      72 -76.7555      73 -76.7583      74 -76.7629      75 -76.7577
      76 -76.7550      77 -76.7560      78 -76.7563      79 -76.7560      80 -76.7555
      81 -76.7568      82 -76.7634      83 -76.7632      84 -76.7561      85 -76.7555
      86 -76.7563      87 -76.7562      88 -76.7558      89 -76.7554      90 -76.7569
      91 -76.7582      92 -76.7559      93 -76.7548      94 -76.7560      95 -76.7564
      96 -76.7560      97 -76.7560      98 -76.7558      99 -76.7553     100 -76.7550
     101 -76.7553     102 -76.7559     103 -76.7562     104 -76.7562     105 -76.7564
     106 -76.7562     107 -76.7559     108 -76.7556     109 -76.7559     110 -76.7562
     111 -76.7564     112 -76.7562     113 -76.7561     114 -76.7562     115 -76.7563
     116 -76.7563     117 -76.7563     118 -76.7564     119 -76.7562     120 -76.7560
     121 -76.7553     122 -76.7558     123 -76.7560     124 -76.7563     125 -76.7563
     126 -76.7563     127 -76.7560     128 -76.7558     129 -67.5524     130 -65.8506
     131 -64.3818     132 -92.0396     133 -92.0129     134 -92.0410     135 -91.6147
     136 -91.6193     137 -84.7004     138 -84.6976
 
 
 
 E-fermi :  -6.8432     XC(G=0):  -1.2878     alpha+bet : -1.0964


 spin component 1

 k-point     1 :       0.2500    0.2500    0.0000
  band No.  band energies     occupation 
      1     -35.7765      1.00000
      2     -34.3452      1.00000
      3     -33.4496      1.00000
      4     -33.3849      1.00000
      5     -32.8224      1.00000
      6     -29.1317      1.00000
      7     -26.7787      1.00000
      8     -25.3083      1.00000
      9     -25.2312      1.00000
     10     -25.2306      1.00000
     11     -25.0014      1.00000
     12     -25.0008      1.00000
     13     -24.8501      1.00000
     14     -24.7758      1.00000
     15     -24.7752      1.00000
[...]
      8.79224     13.77897     17.55745        -0.000385     -0.000204      0.006217
     10.04838     15.95460     17.55575        -0.000422     -0.000234      0.006923
      2.51189     -1.45041     17.55539        -0.000467     -0.000264      0.007824
      3.76802      0.72523     17.55542        -0.000572     -0.000420      0.007963
      5.02399      2.90094     17.55192        -0.000425     -0.000452      0.007477
      6.28008      5.07649     17.55225        -0.000311     -0.000175      0.006761
      7.53618      7.25208     17.55469        -0.000423     -0.000186      0.006564
      8.79220      9.42771     17.55766        -0.000220     -0.000183      0.005660
     10.04829     11.60335     17.55805        -0.000237     -0.000196      0.005804
     11.30445     13.77897     17.55618        -0.000468     -0.000212      0.007101
      3.76796     -3.62604     17.55613        -0.000587     -0.000218      0.007387
      5.02407     -1.45033     17.55673        -0.000561     -0.000574      0.008605
      6.27996      0.72524     17.55491        -0.000451     -0.000500      0.007144
      7.53614      2.90084     17.55204        -0.000202     -0.000209      0.008757
      8.79224      5.07645     17.55292        -0.000334     -0.000137      0.007340
     10.04832      7.25207     17.55613        -0.000337     -0.000124      0.006545
     11.30436      9.42771     17.55830        -0.000135     -0.000204      0.005226
     12.56048     11.60333     17.55714        -0.000380     -0.000168      0.006546
      5.02398     -5.80169     17.55638        -0.000381     -0.000160      0.007451
      6.28013     -3.62604     17.55616        -0.000570     -0.000280      0.006875
      7.53620     -1.45040     17.55488        -0.000504     -0.000360      0.008064
      8.79219      0.72526     17.55279        -0.000217     -0.000283      0.009726
     10.04832      2.90084     17.55277        -0.000274     -0.000190      0.007208
     11.30440      5.07644     17.55516        -0.000345     -0.000209      0.006509
     12.56045      7.25206     17.55773        -0.000209     -0.000169      0.005645
     13.81653      9.42769     17.55801        -0.000208     -0.000147      0.005848
      6.28001     -7.97733     17.55771        -0.000234     -0.000138      0.005878
      7.53616     -5.80170     17.55628        -0.000408     -0.000175      0.007142
      8.79231     -3.62606     17.55523        -0.000541     -0.000215      0.007144
     10.04834     -1.45040     17.55391        -0.000223     -0.000258      0.007825
     11.30441      0.72522     17.55362        -0.000268     -0.000194      0.007612
     12.56049      2.90082     17.55538        -0.000376     -0.000031      0.006433
     13.81655      5.07643     17.55730        -0.000304     -0.000185      0.006251
     15.07261      7.25205     17.55831        -0.000166     -0.000120      0.006121
      7.53610    -10.15295     17.55796        -0.000246     -0.000171      0.005737
      8.79219     -7.97733     17.55773        -0.000212     -0.000186      0.005681
     10.04832     -5.80170     17.55695        -0.000326     -0.000193      0.006148
     11.30444     -3.62606     17.55585        -0.000431     -0.000184      0.006848
     12.56049     -1.45044     17.55553        -0.000360     -0.000194      0.006722
     13.81659      0.72518     17.55651        -0.000402     -0.000037      0.006298
     15.07266      2.90080     17.55772        -0.000312     -0.000115      0.005415
     16.32873      5.07642     17.55800        -0.000264     -0.000130      0.005744
      8.79224    -12.32855     17.55623        -0.000387     -0.000187      0.007331
     10.04831    -10.15292     17.55673        -0.000318     -0.000283      0.006350
     11.30437     -7.97731     17.55775        -0.000249     -0.000198      0.005181
     12.56047     -5.80170     17.55784        -0.000262     -0.000197      0.005645
     13.81658     -3.62608     17.55759        -0.000354     -0.000164      0.006027
     15.07266     -1.45045     17.55778        -0.000278     -0.000184      0.005617
     16.32877      0.72518     17.55791        -0.000254     -0.000140      0.005234
     17.58485      2.90082     17.55717        -0.000376     -0.000193      0.005738
     10.04835    -14.50417     17.55505        -0.000366     -0.000266      0.006769
     11.30443    -12.32853     17.55442        -0.000291     -0.000314      0.007149
     12.56052    -10.15289     17.55545        -0.000413     -0.000232      0.006467
     13.81657     -7.97730     17.55721        -0.000291     -0.000161      0.005931
     15.07264     -5.80169     17.55828        -0.000229     -0.000186      0.006043
     16.32874     -3.62606     17.55837        -0.000279     -0.000190      0.006060
     17.58486     -1.45043     17.55754        -0.000333     -0.000184      0.005788
     18.84099      0.72521     17.55612        -0.000411     -0.000198      0.006951
      5.17334     -0.76674     23.63850        -0.003026      0.000596      0.001264
      5.04824     -0.49184     22.13171         0.001241     -0.003181     -0.005844
      5.66075      0.85736     21.69206        -0.012184     -0.013191     -0.000833
      6.46306     -0.84237     24.00079         0.000502      0.003152     -0.004702
      4.57595     -1.92554     23.96166         0.000406     -0.007703     -0.004374
      4.58846      0.21901     24.33930        -0.001833      0.006500      0.001200
      5.65925     -1.52542     21.48393        -0.003975      0.003253     -0.004986
      3.72120     -0.53948     21.82891         0.003487      0.003549     -0.006294
      6.89155      0.87537     21.49019         0.012228     -0.001814     -0.024900
      4.88820      1.83078     21.59251        -0.003182      0.007291     -0.012224
 -----------------------------------------------------------------------------------
    total drift:                                0.092127     -0.003651      0.325565


--------------------------------------------------------------------------------------------------------



  FREE ENERGIE OF THE ION-ELECTRON SYSTEM (eV)
  ---------------------------------------------------
  free  energy   TOTEN  =     -1312.27430609 eV

  energy  without entropy=    -1312.24546238  energy(sigma->0) =    -1312.25988423
 


--------------------------------------------------------------------------------------------------------


    POTLOK:  cpu time   28.5957: real time   28.5850


--------------------------------------------------------------------------------------------------------


 writing wavefunctions
     LOOP+:  cpu time 5090.0399: real time 4211.9672
    4ORBIT:  cpu time    0.0000: real time    0.0000
 


 total charge     
 
# of ion       s       p       d       tot
------------------------------------------
    1        0.743   1.391   0.000   2.134
    2        0.743   1.391   0.000   2.134
    3        0.743   1.391   0.000   2.134
    4        0.743   1.391   0.000   2.134
    5        0.743   1.391   0.000   2.134
    6        0.743   1.391   0.000   2.134
    7        0.743   1.391   0.000   2.134
    8        0.743   1.391   0.000   2.134
    9        0.743   1.391   0.000   2.134
   10        0.743   1.391   0.000   2.134
   11        0.743   1.391   0.000   2.135
   12        0.743   1.391   0.000   2.134
   13        0.743   1.391   0.000   2.134
   14        0.743   1.391   0.000   2.134
   15        0.743   1.391   0.000   2.134
   16        0.743   1.391   0.000   2.134
   17        0.743   1.391   0.000   2.134
   18        0.743   1.391   0.000   2.134
   19        0.743   1.391   0.000   2.135
   20        0.743   1.391   0.000   2.134
   21        0.743   1.391   0.000   2.134
   22        0.743   1.391   0.000   2.134
   23        0.743   1.391   0.000   2.134
   24        0.743   1.391   0.000   2.134
   25        0.743   1.391   0.000   2.134
   26        0.743   1.391   0.000   2.134
   27        0.743   1.391   0.000   2.134
   28        0.743   1.391   0.000   2.134
   29        0.743   1.391   0.000   2.134
   30        0.743   1.391   0.000   2.134
   31        0.743   1.391   0.000   2.134
   32        0.743   1.391   0.000   2.134
   33        0.743   1.391   0.000   2.134
   34        0.743   1.391   0.000   2.134
   35        0.743   1.391   0.000   2.134
   36        0.743   1.391   0.000   2.134
   37        0.743   1.391   0.000   2.134
   38        0.743   1.391   0.000   2.134
   39        0.743   1.391   0.000   2.134
   40        0.743   1.391   0.000   2.134
   41        0.743   1.391   0.000   2.134
   42        0.743   1.391   0.000   2.134
   43        0.743   1.391   0.000   2.134
   44        0.743   1.391   0.000   2.134
   45        0.743   1.391   0.000   2.134
   46        0.743   1.391   0.000   2.134
   47        0.743   1.391   0.000   2.134
   48        0.743   1.391   0.000   2.134
   49        0.743   1.391   0.000   2.134
   50        0.743   1.391   0.000   2.134
   51        0.743   1.391   0.000   2.134
   52        0.743   1.391   0.000   2.134
   53        0.743   1.391   0.000   2.134
   54        0.743   1.391   0.000   2.134
   55        0.743   1.391   0.000   2.134
   56        0.743   1.391   0.000   2.134
   57        0.743   1.391   0.000   2.134
   58        0.743   1.391   0.000   2.134
   59        0.743   1.391   0.000   2.134
   60        0.743   1.391   0.000   2.134
   61        0.743   1.391   0.000   2.134
   62        0.743   1.391   0.000   2.134
   63        0.743   1.391   0.000   2.134
   64        0.743   1.391   0.000   2.134
   65        1.240   2.814   0.000   4.054
   66        1.240   2.814   0.000   4.054
   67        1.240   2.814   0.000   4.054
   68        1.240   2.814   0.000   4.054
   69        1.240   2.814   0.000   4.054
   70        1.240   2.814   0.000   4.054
   71        1.240   2.814   0.000   4.054
   72        1.240   2.814   0.000   4.054
   73        1.240   2.814   0.000   4.054
   74        1.240   2.813   0.000   4.054
   75        1.240   2.814   0.000   4.054
   76        1.240   2.814   0.000   4.054
   77        1.240   2.814   0.000   4.054
   78        1.240   2.814   0.000   4.054
   79        1.240   2.814   0.000   4.054
   80        1.240   2.814   0.000   4.054
   81        1.240   2.814   0.000   4.054
   82        1.240   2.814   0.000   4.054
   83        1.240   2.813   0.000   4.054
   84        1.240   2.814   0.000   4.054
   85        1.240   2.814   0.000   4.054
   86        1.240   2.814   0.000   4.054
   87        1.240   2.814   0.000   4.054
   88        1.240   2.814   0.000   4.054
   89        1.240   2.814   0.000   4.054
   90        1.240   2.814   0.000   4.054
   91        1.240   2.814   0.000   4.054
   92        1.240   2.814   0.000   4.054
   93        1.240   2.814   0.000   4.054
   94        1.240   2.814   0.000   4.054
   95        1.240   2.814   0.000   4.054
   96        1.240   2.814   0.000   4.054
   97        1.240   2.814   0.000   4.054
   98        1.240   2.814   0.000   4.054
   99        1.240   2.814   0.000   4.054
  100        1.240   2.814   0.000   4.054
  101        1.240   2.814   0.000   4.054
  102        1.240   2.814   0.000   4.054
  103        1.240   2.814   0.000   4.054
  104        1.240   2.814   0.000   4.054
  105        1.240   2.814   0.000   4.054
  106        1.240   2.814   0.000   4.054
  107        1.240   2.814   0.000   4.054
  108        1.240   2.814   0.000   4.054
  109        1.240   2.814   0.000   4.054
  110        1.240   2.814   0.000   4.054
  111        1.240   2.814   0.000   4.054
  112        1.240   2.814   0.000   4.054
  113        1.240   2.814   0.000   4.054
  114        1.240   2.814   0.000   4.054
  115        1.240   2.814   0.000   4.054
  116        1.240   2.814   0.000   4.054
  117        1.240   2.814   0.000   4.054
  118        1.240   2.814   0.000   4.054
  119        1.240   2.814   0.000   4.054
  120        1.240   2.814   0.000   4.054
  121        1.240   2.814   0.000   4.054
  122        1.240   2.814   0.000   4.054
  123        1.240   2.814   0.000   4.054
  124        1.240   2.814   0.000   4.054
  125        1.240   2.814   0.000   4.054
  126        1.240   2.814   0.000   4.054
  127        1.240   2.814   0.000   4.054
  128        1.240   2.814   0.000   4.054
  129        0.819   1.562   0.000   2.381
  130        0.835   1.601   0.000   2.436
  131        0.879   1.729   0.000   2.608
  132        1.758   4.413   0.000   6.171
  133        1.758   4.412   0.000   6.170
  134        1.758   4.413   0.000   6.171
  135        1.756   4.401   0.000   6.157
  136        1.756   4.403   0.000   6.159
  137        1.595   3.540   0.000   5.135
  138        1.595   3.541   0.000   5.136
--------------------------------------------------
tot        141.448 303.112   0.000 444.560
 


 magnetization (x)
 
# of ion       s       p       d       tot
------------------------------------------
    1       -0.000  -0.000   0.000  -0.000
    2       -0.000  -0.000   0.000  -0.000
    3       -0.000  -0.000   0.000  -0.000
    4       -0.000  -0.000   0.000  -0.000
    5       -0.000  -0.000   0.000  -0.000
    6        0.000   0.000   0.000   0.000
    7        0.000   0.000   0.000   0.000
    8       -0.000   0.000   0.000  -0.000
    9       -0.000  -0.000   0.000  -0.000
   10       -0.000  -0.000   0.000  -0.000
   11       -0.000  -0.000   0.000  -0.000
   12       -0.000  -0.000   0.000  -0.000
   13       -0.000  -0.000   0.000  -0.000
   14       -0.000  -0.000   0.000  -0.000
   15        0.000   0.000   0.000   0.000
   16        0.000   0.000   0.000   0.000
   17       -0.000   0.000   0.000   0.000
   18       -0.000  -0.000   0.000  -0.000
   19       -0.000  -0.000   0.000  -0.000
   20       -0.000  -0.000   0.000  -0.000
   21       -0.000  -0.000   0.000  -0.000
   22       -0.000  -0.000   0.000  -0.000
   23        0.000   0.000   0.000   0.000
   24        0.000   0.000   0.000   0.000
   25        0.000   0.000   0.000   0.000
   26       -0.000   0.000   0.000   0.000
   27       -0.000  -0.000   0.000  -0.000
   28       -0.000  -0.000   0.000  -0.000
   29       -0.000  -0.000   0.000  -0.000
   30       -0.000  -0.000   0.000  -0.000
   31        0.000   0.000   0.000   0.000
   32        0.000   0.000   0.000   0.000
   33        0.000   0.000   0.000   0.000
   34        0.000   0.000   0.000   0.000
   35        0.000   0.000   0.000   0.000
   36        0.000   0.000   0.000   0.000
   37        0.000   0.000   0.000   0.000
   38        0.000   0.000   0.000   0.000
   39        0.000   0.000   0.000   0.000
   40        0.000   0.000   0.000   0.000
   41        0.000   0.000   0.000   0.000
   42        0.000   0.000   0.000   0.000
   43        0.000   0.000   0.000   0.000
   44        0.000   0.000   0.000   0.000
   45        0.000   0.000   0.000   0.000
   46        0.000   0.000   0.000   0.000
   47        0.000   0.000   0.000   0.000
   48        0.000   0.000   0.000   0.000
   49       -0.000  -0.000   0.000  -0.000
   50       -0.000  -0.000   0.000  -0.000
   51       -0.000  -0.000   0.000  -0.000
   52        0.000   0.000   0.000   0.000
   53        0.000   0.000   0.000   0.000
   54        0.000   0.000   0.000   0.000
   55        0.000   0.000   0.000   0.000
   56       -0.000   0.000   0.000   0.000
   57       -0.000  -0.000   0.000  -0.000
   58       -0.000  -0.000   0.000  -0.000
   59       -0.000  -0.000   0.000  -0.000
   60       -0.000  -0.000   0.000  -0.000
   61        0.000   0.000   0.000   0.000
   62        0.000   0.000   0.000   0.000
   63        0.000   0.000   0.000   0.000
   64       -0.000  -0.000   0.000  -0.000
   65        0.000   0.000   0.000   0.000
   66        0.000   0.000   0.000   0.000
   67        0.000   0.000   0.000   0.000
   68        0.000   0.000   0.000   0.000
   69        0.000   0.000   0.000   0.000
   70       -0.000  -0.000   0.000  -0.000
   71       -0.000  -0.000   0.000  -0.000
   72        0.000   0.000   0.000   0.000
   73        0.000   0.000   0.000   0.000
   74        0.000   0.000   0.000   0.000
   75        0.000   0.000   0.000   0.000
   76        0.000   0.000   0.000   0.000
   77        0.000   0.000   0.000   0.000
   78       -0.000  -0.000   0.000  -0.000
   79        0.000  -0.000   0.000  -0.000
   80       -0.000  -0.000   0.000  -0.000
   81        0.000   0.000   0.000   0.000
   82        0.000   0.000   0.000   0.000
   83       -0.000   0.000   0.000   0.000
   84        0.000   0.000   0.000   0.000
   85        0.000   0.000   0.000   0.000
   86        0.000   0.000   0.000   0.000
   87       -0.000  -0.000   0.000  -0.000
   88       -0.000  -0.000   0.000  -0.000
   89       -0.000  -0.000   0.000  -0.000
   90        0.000   0.000   0.000   0.000
   91       -0.000   0.000   0.000   0.000
   92        0.000   0.000   0.000   0.000
   93        0.000   0.000   0.000   0.000
   94        0.000   0.000   0.000   0.000
   95       -0.000  -0.000   0.000  -0.000
   96       -0.000  -0.000   0.000  -0.000
   97       -0.000  -0.000   0.000  -0.000
   98       -0.000  -0.000   0.000  -0.000
   99       -0.000  -0.000   0.000  -0.000
  100        0.000   0.000   0.000   0.000
  101        0.000   0.000   0.000   0.000
  102       -0.000  -0.000   0.000  -0.000
  103       -0.000  -0.000   0.000  -0.000
  104       -0.000  -0.000   0.000  -0.000
  105       -0.000  -0.000   0.000  -0.000
  106       -0.000  -0.000   0.000  -0.000
  107       -0.000  -0.000   0.000  -0.000
  108       -0.000  -0.000   0.000  -0.000
  109       -0.000  -0.000   0.000  -0.000
  110       -0.000  -0.000   0.000  -0.000
  111       -0.000  -0.000   0.000  -0.000
  112       -0.000  -0.000   0.000  -0.000
  113        0.000   0.000   0.000   0.000
  114        0.000   0.000   0.000   0.000
  115       -0.000  -0.000   0.000  -0.000
  116       -0.000  -0.000   0.000  -0.000
  117       -0.000  -0.000   0.000  -0.000
  118       -0.000  -0.000   0.000  -0.000
  119       -0.000  -0.000   0.000  -0.000
  120        0.000  -0.000   0.000  -0.000
  121        0.000   0.000   0.000   0.000
  122        0.000   0.000   0.000   0.000
  123        0.000   0.000   0.000   0.000
  124        0.000   0.000   0.000   0.000
  125       -0.000  -0.000   0.000  -0.000
  126       -0.000  -0.000   0.000  -0.000
  127       -0.000  -0.000   0.000  -0.000
  128        0.000   0.000   0.000   0.000
  129       -0.000  -0.000   0.000  -0.000
  130       -0.001  -0.002   0.000  -0.003
  131       -0.002  -0.012   0.000  -0.014
  132        0.000   0.000   0.000   0.000
  133       -0.000  -0.000   0.000  -0.000
  134        0.000   0.000   0.000   0.000
  135        0.000   0.003   0.000   0.003
  136        0.000   0.004   0.000   0.004
  137        0.002   0.161   0.000   0.163
  138        0.002   0.159   0.000   0.161
--------------------------------------------------
tot          0.001   0.315   0.000   0.316
 

 total amount of memory used by VASP MPI-rank0  1569540. kBytes
=======================================================================

   base      :      30000. kBytes
   nonlr-proj:      63780. kBytes
   fftplans  :      50141. kBytes
   grid      :    1079357. kBytes
   one-center:        847. kBytes
   wavefun   :     345415. kBytes
 
  
  
 General timing and accounting informations for this job:
 ========================================================
  
                  Total CPU time used (sec):     7412.630
                            User time (sec):     6116.537
                          System time (sec):     1296.093
                         Elapsed time (sec):     5959.359
  
                   Maximum memory used (kb):     3224960.
                   Average memory used (kb):           0.
  
                          Minor page faults:     18620904
                          Major page faults:            0
                 Voluntary context switches:        64206
