 vasp.5.4.4.18Apr17-6-g9f103f2a35 (build Oct 02 2017 16:27:17) complex          
  
 executed on             LinuxIFC date 2020.04.09  02:08:06
 running on   48 total cores
 distrk:  each k-point on   12 cores,    4 groups
 distr:  one band on NCORES_PER_BAND=   1 cores,   12 groups


--------------------------------------------------------------------------------------------------------


 INCAR:
 POTCAR:    PAW_PBE B 28Sep2005                   
 POTCAR:    PAW_PBE N_GW 10Apr2007                

 ----------------------------------------------------------------------------- 
|                                                                             |
|           W    W    AA    RRRRR   N    N  II  N    N   GGGG   !!!           |
|           W    W   A  A   R    R  NN   N  II  NN   N  G    G  !!!           |
|           W    W  A    A  R    R  N N  N  II  N N  N  G       !!!           |
|           W WW W  AAAAAA  RRRRR   N  N N  II  N  N N  G  GGG   !            |
|           WW  WW  A    A  R   R   N   NN  II  N   NN  G    G                |
|           W    W  A    A  R    R  N    N  II  N    N   GGGG   !!!           |
|                                                                             |
|      For optimal performance we recommend to set                            |
|        NCORE= 4 - approx SQRT( number of cores)                             |
|      NCORE specifies how many cores store one orbital (NPAR=cpu/NCORE).     |
|      This setting can  greatly improve the performance of VASP for DFT.     |
|      The default,   NCORE=1            might be grossly inefficient         |
|      on modern multi-core architectures or massively parallel machines.     |
|      Do your own testing !!!!                                               |
|      Unfortunately you need to use the default for GW and RPA calculations. |
|      (for HF NCORE is supported but not extensively tested yet)             |
|                                                                             |
 ----------------------------------------------------------------------------- 


 ----------------------------------------------------------------------------- 
|                                                                             |
|           W    W    AA    RRRRR   N    N  II  N    N   GGGG   !!!           |
|           W    W   A  A   R    R  NN   N  II  NN   N  G    G  !!!           |
|           W    W  A    A  R    R  N N  N  II  N N  N  G       !!!           |
|           W WW W  AAAAAA  RRRRR   N  N N  II  N  N N  G  GGG   !            |
|           WW  WW  A    A  R   R   N   NN  II  N   NN  G    G                |
|           W    W  A    A  R    R  N    N  II  N    N   GGGG   !!!           |
|                                                                             |
|      You have enabled k-point parallelism (KPAR>1).                         |
|      This developmental code was originally  written by Paul Kent at ORNL,  |
|      and carefully double checked in Vienna.                                |
|      GW as well as linear response parallelism added by Martijn Marsman     |
|      and Georg Kresse.                                                      |
|      Carefully verify results versus KPAR=1.                                |
|      Report problems to Paul Kent and Vienna.                               |
|                                                                             |
 ----------------------------------------------------------------------------- 

 POTCAR:    PAW_PBE B 28Sep2005                   
   VRHFIN =B: s2p1                                                              
   LEXCH  = PE                                                                  
   EATOM  =    71.1703 eV,    5.2309 Ry                                         
                                                                                
   TITEL  = PAW_PBE B 28Sep2005                                                 
   LULTRA =        F    use ultrasoft PP ?                                      
   IUNSCR =        0    unscreen: 0-lin 1-nonlin 2-no                           
   RPACOR =    0.000    partial core radius                                     
   POMASS =   10.811; ZVAL   =    3.000    mass and valenz                      
   RCORE  =    1.700    outmost cutoff radius                                   
   RWIGS  =    1.710; RWIGS  =    0.905    wigner-seitz radius (au A)           
   ENMAX  =  318.614; ENMIN  =  238.960 eV                                      
   ICORE  =        2    local potential                                         
   LCOR   =        T    correct aug charges                                     
   LPAW   =        T    paw PP                                                  
   EAUG   =  535.514                                                            
   DEXC   =    0.000                                                            
   RMAX   =    1.732    core radius for proj-oper                               
   RAUG   =    1.300    factor for augmentation sphere                          
   RDEP   =    1.757    radius for radial grids                                 
   RDEPT  =    1.436    core radius for aug-charge                              
                                                                                
   Atomic configuration                                                         
    4 entries                                                                   
     n  l   j            E        occ.                                          
     1  0  0.50      -180.5896   2.0000                                         
     2  0  0.50        -9.4431   2.0000                                         
     2  1  0.50        -3.6068   1.0000                                         
     3  2  1.50        -4.0817   0.0000                                         
   Description                                                                  
     l       E           TYP  RCUT    TYP  RCUT                                 
     0     -9.4430752     23  1.500                                             
     0     95.2407820     23  1.500                                             
     1     -3.6067956     23  1.700                                             
     1    108.8466080     23  1.700                                             
     2     -4.0817478      7  1.700                                             
  local pseudopotential read in
  kinetic energy density of atom read in
  atomic valenz-charges read in
  non local Contribution for L=           0  read in
    real space projection operators read in
  non local Contribution for L=           0  read in
    real space projection operators read in
  non local Contribution for L=           1  read in
    real space projection operators read in
  non local Contribution for L=           1  read in
    real space projection operators read in
    PAW grid and wavefunctions read in
 
   number of l-projection  operators is LMAX  =           4
   number of lm-projection operators is LMMAX =           8
 
 POTCAR:    PAW_PBE N_GW 10Apr2007                
   VRHFIN =N: s2p3                                                              
   LEXCH  = PE                                                                  
   EATOM  =   264.5486 eV,   19.4438 Ry                                         
                                                                                
   TITEL  = PAW_PBE N_GW 10Apr2007                                              
   LULTRA =        F    use ultrasoft PP ?                                      
   IUNSCR =        0    unscreen: 0-lin 1-nonlin 2-no                           
   RPACOR =    0.000    partial core radius                                     
   POMASS =   14.001; ZVAL   =    5.000    mass and valenz                      
   RCORE  =    1.500    outmost cutoff radius                                   
   RWIGS  =    1.400; RWIGS  =    0.741    wigner-seitz radius (au A)           
   ENMAX  =  420.902; ENMIN  =  315.677 eV                                      
   ICORE  =        2    local potential                                         
   LCOR   =        T    correct aug charges                                     
   LPAW   =        T    paw PP                                                  
   EAUG   =  904.640                                                            
   DEXC   =    0.000                                                            
   RMAX   =    1.529    core radius for proj-oper                               
   RAUG   =    1.300    factor for augmentation sphere                          
   RDEP   =    1.514    radius for radial grids                                 
   RDEPT  =    1.100    core radius for aug-charge                              
                                                                                
   Atomic configuration                                                         
    4 entries                                                                   
     n  l   j            E        occ.                                          
     1  0  0.50      -384.7179   2.0000                                         
     2  0  0.50       -18.5828   2.0000                                         
     2  1  0.50        -7.0898   3.0000                                         
     3  2  1.50        -8.1635   0.0000                                         
   Description                                                                  
     l       E           TYP  RCUT    TYP  RCUT                                 
     0    -18.5828120     23  1.300                                             
     0     81.6349560     23  1.300                                             
     1     -7.0897854     23  1.500                                             
     1     81.6349560     23  1.500                                             
     2     -8.1634956      7  1.500                                             
  local pseudopotential read in
  kinetic energy density of atom read in
  atomic valenz-charges read in
  non local Contribution for L=           0  read in
    real space projection operators read in
  non local Contribution for L=           0  read in
    real space projection operators read in
  non local Contribution for L=           1  read in
    real space projection operators read in
  non local Contribution for L=           1  read in
    real space projection operators read in
    PAW grid and wavefunctions read in
 
   number of l-projection  operators is LMAX  =           4
   number of lm-projection operators is LMMAX =           8
 
  PAW_PBE B 28Sep2005                   :
 energy of atom  1       EATOM=  -71.1703
 kinetic energy error for atom=    0.0005 (will be added to EATOM!!)
  PAW_PBE N_GW 10Apr2007                :
 energy of atom  2       EATOM= -264.5486
 kinetic energy error for atom=    0.0081 (will be added to EATOM!!)
 
 
 POSCAR: B N                                     
  positions in direct lattice
  velocities in cartesian coordinates
 exchange correlation table for  LEXCH =        8
   RHO(1)=    0.500       N(1)  =     2000
   RHO(2)=  100.500       N(2)  =     4000
 


--------------------------------------------------------------------------------------------------------


 ion  position               nearest neighbor table
   1  0.333  0.667  0.111-   2 1.45   2 1.45   2 1.45
   2  0.667  0.333  0.111-   1 1.45   1 1.45   1 1.45
 
  LATTYP: Found a hexagonal cell.
 ALAT       =     2.5104528693
 C/A-ratio  =     5.9693414622
  
  Lattice vectors:
  
 A1 = (   1.2552264347,  -2.1741126873,   0.0000000000)
 A2 = (   1.2552264347,   2.1741126873,   0.0000000000)
 A3 = (   0.0000000000,   0.0000000000,  14.9857504017)


Analysis of symmetry for initial positions (statically):
=====================================================================
 Subroutine PRICEL returns:
 Original cell was already a primitive cell.
 

 Routine SETGRP: Setting up the symmetry group for a 
 hexagonal supercell.


 Subroutine GETGRP returns: Found 12 space group operations
 (whereof  6 operations were pure point group operations)
 out of a pool of 24 trial point group operations.


The static configuration has the point symmetry C_3v.
 The point group associated with its full space group is D_3h.


Analysis of symmetry for dynamics (positions and initial velocities):
=====================================================================
 Subroutine PRICEL returns:
 Original cell was already a primitive cell.
 

 Routine SETGRP: Setting up the symmetry group for a 
 hexagonal supercell.


 Subroutine GETGRP returns: Found 12 space group operations
 (whereof  6 operations were pure point group operations)
 out of a pool of 24 trial point group operations.


The dynamic configuration has the point symmetry C_3v.
 The point group associated with its full space group is D_3h.


Analysis of constrained symmetry for selective dynamics:
=====================================================================
 Subroutine PRICEL returns:
 Original cell was already a primitive cell.
 

 Routine SETGRP: Setting up the symmetry group for a 
 hexagonal supercell.


 Subroutine GETGRP returns: Found 12 space group operations
 (whereof  6 operations were pure point group operations)
 out of a pool of 24 trial point group operations.


The constrained configuration has the point symmetry C_3v.
 The point group associated with its full space group is D_3h.


Analysis of structural, dynamic, and magnetic symmetry:
=====================================================================
 Subroutine PRICEL returns:
 Original cell was already a primitive cell.
 

 Routine SETGRP: Setting up the symmetry group for a 
 hexagonal supercell.


 Subroutine GETGRP returns: Found 12 space group operations
 (whereof  6 operations were pure point group operations)
 out of a pool of 24 trial point group operations.


The magnetic configuration has the point symmetry C_3v.
 The point group associated with its full space group is D_3h.


 Subroutine INISYM returns: Found 12 space group operations
 (whereof  6 operations are pure point group operations),
 and found     1 'primitive' translations

 
 
 KPOINTS: 12x12x1                                 

Automatic generation of k-mesh.
Space group operators:
 irot       det(A)        alpha          n_x          n_y          n_z        tau_x        tau_y        tau_z
    1     1.000000     0.000000     1.000000     0.000000     0.000000     0.000000     0.000000     0.000000
    2     1.000000   120.000000     0.000000     0.000000    -1.000000     0.000000     0.000000     0.000000
    3     1.000000   120.000000     0.000000     0.000000     1.000000     0.000000     0.000000     0.000000
    4    -1.000000   180.000000     0.499999    -0.866026     0.000000     0.000000     0.000000     0.000000
    5    -1.000000   180.000000    -0.499999    -0.866026     0.000000     0.000000     0.000000     0.000000
    6    -1.000000   180.000000     1.000000     0.000000     0.000000     0.000000     0.000000     0.000000
    7    -1.000000    60.000000     0.000000     0.000000    -1.000000     0.000000     0.000000     0.222825
    8    -1.000000   179.999999     0.000000     0.000000     1.000000     0.000000     0.000000     0.222825
    9    -1.000000    60.000000     0.000000     0.000000     1.000000     0.000000     0.000001     0.222825
   10     1.000000   180.000000     0.000000     1.000000     0.000000     0.000000     0.000000     0.222825
   11     1.000000   180.000000     0.866025     0.500001     0.000000     0.000000     0.000000     0.222825
   12     1.000000   180.000000     0.866025    -0.500001     0.000000     0.000000     0.000001     0.222825
 
 Subroutine IBZKPT returns following result:
 ===========================================
 
 Found     19 irreducible k-points:
 
 Following reciprocal coordinates:
            Coordinates               Weight
  0.000000  0.000000  0.000000      1.000000
  0.083333 -0.000000  0.000000      6.000000
  0.166667  0.000000  0.000000      6.000000
  0.250000 -0.000000  0.000000      6.000000
  0.333333 -0.000000  0.000000      6.000000
  0.416667 -0.000000  0.000000      6.000000
  0.500000 -0.000000  0.000000      3.000000
  0.083333  0.083333  0.000000      6.000000
  0.166667  0.083333  0.000000     12.000000
  0.250000  0.083333  0.000000     12.000000
  0.333333  0.083333  0.000000     12.000000
  0.416667  0.083333  0.000000     12.000000
  0.166667  0.166667  0.000000      6.000000
  0.250000  0.166667  0.000000     12.000000
  0.333333  0.166667  0.000000     12.000000
  0.416667  0.166667  0.000000      6.000000
  0.250000  0.250000  0.000000      6.000000
  0.333333  0.250000  0.000000     12.000000
  0.333333  0.333333  0.000000      2.000000
 
 Following cartesian coordinates:
            Coordinates               Weight
  0.000000  0.000000  0.000000      1.000000
  0.033195 -0.019165  0.000000      6.000000
  0.066389 -0.038330  0.000000      6.000000
  0.099584 -0.057495  0.000000      6.000000
  0.132778 -0.076660  0.000000      6.000000
  0.165973 -0.095825  0.000000      6.000000
  0.199167 -0.114989  0.000000      3.000000
  0.066389  0.000000  0.000000      6.000000
  0.099584 -0.019165  0.000000     12.000000
  0.132778 -0.038330  0.000000     12.000000
  0.165973 -0.057495  0.000000     12.000000
  0.199167 -0.076660  0.000000     12.000000
  0.132778  0.000000  0.000000      6.000000
  0.165973 -0.019165  0.000000     12.000000
  0.199167 -0.038330  0.000000     12.000000
  0.232362 -0.057495  0.000000      6.000000
  0.199167  0.000000  0.000000      6.000000
  0.232362 -0.019165  0.000000     12.000000
  0.265556  0.000000  0.000000      2.000000
 
 
 Subroutine IBZKPT_HF returns following result:
 ==============================================
 
 Found    144 k-points in 1st BZ
 the following    144 k-points will be used (e.g. in the exchange kernel)
 Following reciprocal coordinates:   # in IRBZ
  0.000000  0.000000  0.000000    0.00694444   1 t-inv F
  0.083333 -0.000000  0.000000    0.00694444   2 t-inv F
  0.166667  0.000000  0.000000    0.00694444   3 t-inv F
  0.250000 -0.000000  0.000000    0.00694444   4 t-inv F
  0.333333 -0.000000  0.000000    0.00694444   5 t-inv F
  0.416667 -0.000000  0.000000    0.00694444   6 t-inv F
  0.500000 -0.000000  0.000000    0.00694444   7 t-inv F
  0.083333  0.083333  0.000000    0.00694444   8 t-inv F
  0.166667  0.083333  0.000000    0.00694444   9 t-inv F
  0.250000  0.083333  0.000000    0.00694444  10 t-inv F
  0.333333  0.083333  0.000000    0.00694444  11 t-inv F
  0.416667  0.083333  0.000000    0.00694444  12 t-inv F
  0.166667  0.166667  0.000000    0.00694444  13 t-inv F
  0.250000  0.166667  0.000000    0.00694444  14 t-inv F
  0.333333  0.166667  0.000000    0.00694444  15 t-inv F
  0.416667  0.166667  0.000000    0.00694444  16 t-inv F
  0.250000  0.250000  0.000000    0.00694444  17 t-inv F
  0.333333  0.250000  0.000000    0.00694444  18 t-inv F
  0.333333  0.333333  0.000000    0.00694444  19 t-inv F
 -0.083333  0.083333  0.000000    0.00694444   2 t-inv F
 -0.000000 -0.083333  0.000000    0.00694444   2 t-inv F
 -0.166667  0.166667  0.000000    0.00694444   3 t-inv F
  0.000000 -0.166667  0.000000    0.00694444   3 t-inv F
 -0.250000  0.250000  0.000000    0.00694444   4 t-inv F
 -0.000000 -0.250000  0.000000    0.00694444   4 t-inv F
 -0.333333  0.333333  0.000000    0.00694444   5 t-inv F
 -0.000000 -0.333333  0.000000    0.00694444   5 t-inv F
 -0.416667  0.416667  0.000000    0.00694444   6 t-inv F
 -0.000000 -0.416667  0.000000    0.00694444   6 t-inv F
 -0.500000  0.500000  0.000000    0.00694444   7 t-inv F
 -0.000000 -0.500000  0.000000    0.00694444   7 t-inv F
 -0.166667  0.083333  0.000000    0.00694444   8 t-inv F
  0.083333 -0.166667  0.000000    0.00694444   8 t-inv F
 -0.083333  0.166667  0.000000    0.00694444   8 t-inv F
  0.166667 -0.083333  0.000000    0.00694444   8 t-inv F
 -0.083333 -0.083333  0.000000    0.00694444   8 t-inv F
 -0.250000  0.166667  0.000000    0.00694444   9 t-inv F
  0.083333 -0.250000  0.000000    0.00694444   9 t-inv F
 -0.166667  0.250000  0.000000    0.00694444   9 t-inv F
  0.250000 -0.083333  0.000000    0.00694444   9 t-inv F
 -0.083333 -0.166667  0.000000    0.00694444   9 t-inv F
 -0.333333  0.250000  0.000000    0.00694444  10 t-inv F
  0.083333 -0.333333  0.000000    0.00694444  10 t-inv F
 -0.250000  0.333333  0.000000    0.00694444  10 t-inv F
  0.333333 -0.083333  0.000000    0.00694444  10 t-inv F
 -0.083333 -0.250000  0.000000    0.00694444  10 t-inv F
 -0.416667  0.333333  0.000000    0.00694444  11 t-inv F
  0.083333 -0.416667  0.000000    0.00694444  11 t-inv F
 -0.333333  0.416667  0.000000    0.00694444  11 t-inv F
  0.416667 -0.083333  0.000000    0.00694444  11 t-inv F
 -0.083333 -0.333333  0.000000    0.00694444  11 t-inv F
 -0.500000  0.416667  0.000000    0.00694444  12 t-inv F
  0.083333 -0.500000  0.000000    0.00694444  12 t-inv F
 -0.416667  0.500000  0.000000    0.00694444  12 t-inv F
  0.500000 -0.083333  0.000000    0.00694444  12 t-inv F
 -0.083333 -0.416667  0.000000    0.00694444  12 t-inv F
 -0.333333  0.166667  0.000000    0.00694444  13 t-inv F
  0.166667 -0.333333  0.000000    0.00694444  13 t-inv F
 -0.166667  0.333333  0.000000    0.00694444  13 t-inv F
  0.333333 -0.166667  0.000000    0.00694444  13 t-inv F
 -0.166667 -0.166667  0.000000    0.00694444  13 t-inv F
 -0.416667  0.250000  0.000000    0.00694444  14 t-inv F
  0.166667 -0.416667  0.000000    0.00694444  14 t-inv F
 -0.250000  0.416667  0.000000    0.00694444  14 t-inv F
  0.416667 -0.166667  0.000000    0.00694444  14 t-inv F
 -0.166667 -0.250000  0.000000    0.00694444  14 t-inv F
 -0.500000  0.333333  0.000000    0.00694444  15 t-inv F
  0.166667 -0.500000  0.000000    0.00694444  15 t-inv F
 -0.333333  0.500000  0.000000    0.00694444  15 t-inv F
  0.500000 -0.166667  0.000000    0.00694444  15 t-inv F
 -0.166667 -0.333333  0.000000    0.00694444  15 t-inv F
 -0.583333  0.416667  0.000000    0.00694444  16 t-inv F
  0.166667 -0.583333  0.000000    0.00694444  16 t-inv F
 -0.416667  0.583333  0.000000    0.00694444  16 t-inv F
  0.583333 -0.166667  0.000000    0.00694444  16 t-inv F
 -0.166667 -0.416667  0.000000    0.00694444  16 t-inv F
 -0.500000  0.250000  0.000000    0.00694444  17 t-inv F
  0.250000 -0.500000  0.000000    0.00694444  17 t-inv F
 -0.250000  0.500000  0.000000    0.00694444  17 t-inv F
  0.500000 -0.250000  0.000000    0.00694444  17 t-inv F
 -0.250000 -0.250000  0.000000    0.00694444  17 t-inv F
 -0.583333  0.333333  0.000000    0.00694444  18 t-inv F
  0.250000 -0.583333  0.000000    0.00694444  18 t-inv F
 -0.333333  0.583333  0.000000    0.00694444  18 t-inv F
  0.583333 -0.250000  0.000000    0.00694444  18 t-inv F
 -0.250000 -0.333333  0.000000    0.00694444  18 t-inv F
 -0.333333  0.666667  0.000000    0.00694444  19 t-inv F
 -0.083333  0.000000  0.000000    0.00694444   2 t-inv T
  0.083333 -0.083333  0.000000    0.00694444   2 t-inv T
  0.000000  0.083333  0.000000    0.00694444   2 t-inv T
 -0.166667  0.000000  0.000000    0.00694444   3 t-inv T
  0.166667 -0.166667  0.000000    0.00694444   3 t-inv T
  0.000000  0.166667  0.000000    0.00694444   3 t-inv T
 -0.250000  0.000000  0.000000    0.00694444   4 t-inv T
  0.250000 -0.250000  0.000000    0.00694444   4 t-inv T
  0.000000  0.250000  0.000000    0.00694444   4 t-inv T
 -0.333333  0.000000  0.000000    0.00694444   5 t-inv T
  0.333333 -0.333333  0.000000    0.00694444   5 t-inv T
  0.000000  0.333333  0.000000    0.00694444   5 t-inv T
 -0.416667  0.000000  0.000000    0.00694444   6 t-inv T
  0.416667 -0.416667  0.000000    0.00694444   6 t-inv T
  0.000000  0.416667  0.000000    0.00694444   6 t-inv T
 -0.166667 -0.083333  0.000000    0.00694444   9 t-inv T
  0.250000 -0.166667  0.000000    0.00694444   9 t-inv T
 -0.083333  0.250000  0.000000    0.00694444   9 t-inv T
  0.166667 -0.250000  0.000000    0.00694444   9 t-inv T
 -0.250000  0.083333  0.000000    0.00694444   9 t-inv T
  0.083333  0.166667  0.000000    0.00694444   9 t-inv T
 -0.250000 -0.083333  0.000000    0.00694444  10 t-inv T
  0.333333 -0.250000  0.000000    0.00694444  10 t-inv T
 -0.083333  0.333333  0.000000    0.00694444  10 t-inv T
  0.250000 -0.333333  0.000000    0.00694444  10 t-inv T
 -0.333333  0.083333  0.000000    0.00694444  10 t-inv T
  0.083333  0.250000  0.000000    0.00694444  10 t-inv T
 -0.333333 -0.083333  0.000000    0.00694444  11 t-inv T
  0.416667 -0.333333  0.000000    0.00694444  11 t-inv T
 -0.083333  0.416667  0.000000    0.00694444  11 t-inv T
  0.333333 -0.416667  0.000000    0.00694444  11 t-inv T
 -0.416667  0.083333  0.000000    0.00694444  11 t-inv T
  0.083333  0.333333  0.000000    0.00694444  11 t-inv T
 -0.416667 -0.083333  0.000000    0.00694444  12 t-inv T
  0.500000 -0.416667  0.000000    0.00694444  12 t-inv T
 -0.083333  0.500000  0.000000    0.00694444  12 t-inv T
  0.416667 -0.500000  0.000000    0.00694444  12 t-inv T
 -0.500000  0.083333  0.000000    0.00694444  12 t-inv T
  0.083333  0.416667  0.000000    0.00694444  12 t-inv T
 -0.250000 -0.166667  0.000000    0.00694444  14 t-inv T
  0.416667 -0.250000  0.000000    0.00694444  14 t-inv T
 -0.166667  0.416667  0.000000    0.00694444  14 t-inv T
  0.250000 -0.416667  0.000000    0.00694444  14 t-inv T
 -0.416667  0.166667  0.000000    0.00694444  14 t-inv T
  0.166667  0.250000  0.000000    0.00694444  14 t-inv T
 -0.333333 -0.166667  0.000000    0.00694444  15 t-inv T
  0.500000 -0.333333  0.000000    0.00694444  15 t-inv T
 -0.166667  0.500000  0.000000    0.00694444  15 t-inv T
  0.333333 -0.500000  0.000000    0.00694444  15 t-inv T
 -0.500000  0.166667  0.000000    0.00694444  15 t-inv T
  0.166667  0.333333  0.000000    0.00694444  15 t-inv T
 -0.333333 -0.250000  0.000000    0.00694444  18 t-inv T
  0.583333 -0.333333  0.000000    0.00694444  18 t-inv T
 -0.250000  0.583333  0.000000    0.00694444  18 t-inv T
  0.333333 -0.583333  0.000000    0.00694444  18 t-inv T
 -0.583333  0.250000  0.000000    0.00694444  18 t-inv T
  0.250000  0.333333  0.000000    0.00694444  18 t-inv T


--------------------------------------------------------------------------------------------------------




 Dimension of arrays:
   k-points           NKPTS =     19   k-points in BZ     NKDIM =    144   number of bands    NBANDS=    192
   number of dos      NEDOS =   1200   number of ions     NIONS =      2
   non local maximal  LDIM  =      4   non local SUM 2l+1 LMDIM =      8
   total plane-waves  NPLWV =  72576
   max r-space proj   IRMAX =      1   max aug-charges    IRDMAX=  14035
   dimension x,y,z NGX =    24 NGY =   24 NGZ =  126
   dimension x,y,z NGXF=    48 NGYF=   48 NGZF=  252
   support grid    NGXF=    48 NGYF=   48 NGZF=  252
   ions per type =               1   1
   NGX,Y,Z   is equivalent  to a cutoff of  15.89, 15.89, 13.98 a.u.
   NGXF,Y,Z  is equivalent  to a cutoff of  31.79, 31.79, 27.96 a.u.

 SYSTEM =  hBN                                     
 POSCAR =  B N                                     

 Startparameter for this run:
   NWRITE =      2    write-flag & timer
   PREC   = accura    normal or accurate (medium, high low for compatibility)
   ISTART =      1    job   : 0-new  1-cont  2-samecut
   ICHARG =      1    charge: 1-file 2-atom 10-const
   ISPIN  =      2    spin polarized calculation?
   LNONCOLLINEAR =      F non collinear calculations
   LSORBIT =      F    spin-orbit coupling
   INIWAV =      1    electr: 0-lowe 1-rand  2-diag
   LASPH  =      F    aspherical Exc in radial PAW
   METAGGA=      F    non-selfconsistent MetaGGA calc.

 Electronic Relaxation 1
   ENCUT  =  650.0 eV  47.77 Ry    6.91 a.u.   5.22  5.22 31.15*2*pi/ulx,y,z
   ENINI  =  650.0     initial cutoff
   ENAUG  =  904.6 eV  augmentation charge cutoff
   NELM   =      1;   NELMIN=  2; NELMDL=  0     # of ELM steps 
   EDIFF  = 0.1E-07   stopping-criterion for ELM
   LREAL  =      F    real-space projection
   NLSPLINE    = F    spline interpolate recip. space projectors
   LCOMPAT=      F    compatible to vasp.4.4
   GGA_COMPAT  = T    GGA compatible to vasp.4.4-vasp.4.6
   LMAXPAW     = -100 max onsite density
   LMAXMIX     =    2 max onsite mixed and CHGCAR
   VOSKOWN=      0    Vosko Wilk Nusair interpolation
   ROPT   =    0.00000   0.00000
 Ionic relaxation
   EDIFFG = 0.1E-06   stopping-criterion for IOM
   NSW    =      0    number of steps for IOM
   NBLOCK =      1;   KBLOCK =      1    inner block; outer block 
   IBRION =     -1    ionic relax: 0-MD 1-quasi-New 2-CG
   NFREE  =      0    steps in history (QN), initial steepest desc. (CG)
   ISIF   =      0    stress and relaxation
   IWAVPR =     10    prediction:  0-non 1-charg 2-wave 3-comb
   ISYM   =      3    0-nonsym 1-usesym 2-fastsym
   LCORR  =      T    Harris-Foulkes like correction to forces

   POTIM  = 0.5000    time-step for ionic-motion
   TEIN   =    0.0    initial temperature
   TEBEG  =    0.0;   TEEND  =   0.0 temperature during run
   SMASS  =  -3.00    Nose mass-parameter (am)
   estimated Nose-frequenzy (Omega)   =  0.10E-29 period in steps =****** mass=  -0.144E-27a.u.
   SCALEE = 1.0000    scale energy and forces
   NPACO  =    256;   APACO  = 16.0  distance and # of slots for P.C.
   PSTRESS=    0.0 pullay stress

  Mass of Ions in am
   POMASS =  10.81 14.00
  Ionic Valenz
   ZVAL   =   3.00  5.00
  Atomic Wigner-Seitz radii
   RWIGS  =  -1.00 -1.00
  virtual crystal weights 
   VCA    =   1.00  1.00
   NELECT =       8.0000    total number of electrons
   NUPDOWN=      -1.0000    fix difference up-down

 DOS related values:
   EMIN   = -10.00;   EMAX   =  5.00  energy-range for DOS
   EFERMI =   0.00
   ISMEAR =     0;   SIGMA  =   0.05  broadening in eV -4-tet -1-fermi 0-gaus

 Electronic relaxation 2 (details)
   IALGO  =     38    algorithm
   LDIAG  =      T    sub-space diagonalisation (order eigenvalues)
   LSUBROT=      F    optimize rotation matrix (better conditioning)
   TURBO    =      0    0=normal 1=particle mesh
   IRESTART =      0    0=no restart 2=restart with 2 vectors
   NREBOOT  =      0    no. of reboots
   NMIN     =      0    reboot dimension
   EREF     =   0.00    reference energy to select bands
   IMIX   =      1    mixing-type and parameters
     AMIX     =   0.40;   BMIX     =  1.00
     AMIX_MAG =   1.60;   BMIX_MAG =  1.00
     AMIN     =   0.10
     WC   =   100.;   INIMIX=   1;  MIXPRE=   1;  MAXMIX= -45

 Intra band minimization:
   WEIMIN = 0.0000     energy-eigenvalue tresh-hold
   EBREAK =  0.13E-10  absolut break condition
   DEPER  =   0.30     relativ break condition  

   TIME   =   0.40     timestep for ELM

  volume/ion in A,a.u.               =      40.90       275.98
  Fermi-wavevector in a.u.,A,eV,Ry     =   0.754282  1.425387  7.740924  0.568942
  Thomas-Fermi vector in A             =   1.851914
 
 Write flags
   LWAVE        =      F    write WAVECAR
   LDOWNSAMPLE  =      F    k-point downsampling of WAVECAR
   LCHARG       =      F    write CHGCAR
   LVTOT        =      F    write LOCPOT, total local potential
   LVHAR        =      T    write LOCPOT, Hartree potential only
   LELF         =      F    write electronic localiz. function (ELF)
   LORBIT       =     11    0 simple, 1 ext, 2 COOP (PROOUT), +10 PAW based schemes


 Dipole corrections
   LMONO  =      F    monopole corrections only (constant potential shift)
   LDIPOL =      T    correct potential (dipole corrections)
   IDIPOL =      3    1-x, 2-y, 3-z, 4-all directions 
   EPSILON=  1.0000000 bulk dielectric constant

 Exchange correlation treatment:
   GGA     =    --    GGA type
   LEXCH   =     8    internal setting for exchange type
   VOSKOWN=      0    Vosko Wilk Nusair interpolation
   EXXOEP  =     0    0=HF, 1=EXX-LHF (local Hartree Fock) 2=EXX OEP
   LHFCALC =     T    Hartree Fock is set to
   LSYMGRAD=     F    symmetrize gradient (conserves proper symmetry)
   PRECFOCK=normal    Normal, Fast or Accurate (Low or Medium for compatibility)
   LRHFCALC=     F    long range Hartree Fock
   LRSCOR  =     F    long range correlation only (use DFT for short range part)
   LTHOMAS =     F    Thomas Fermi screening in HF
   LMODELHF=     F    short range full HF, long range fraction AEXX
   ENCUT4O =  -1.0   cutoff for four orbital integrals eV
   LMAXFOCK=     4    L truncation for augmentation on plane wave grid
   LMAXFOCKAE=   4    L truncation for all-electron charge restoration on plane wave grid
   NMAXFOCKAE=   1    number of basis functions for all-electron charge restoration
   LFOCKAEDFT=     F  apply the AE augmentation even for DFT
   NKREDX  =     1    reduce k-point grid by
   NKREDY  =     1    reduce k-point grid by
   NKREDZ  =     1    reduce k-point grid by
   SHIFTRED=     F    shift reduced grid of Gamma
   HFKIDENT=     F    idential grid for each k-point
   ODDONLY =     F    use only odd q-grid points
   EVENONLY=     F    use only even q-grid points
   HFALPHA =   -1.0000 decay constant for conv. correction
   MCALPHA =    0.0000 extent of test-charge in conv. correction in multipole expansion
   AEXX    =    1.0000 exact exchange contribution
   HFSCREEN=    0.0000 screening length (either q_TF or 0.3 A-1)
   HFSCREENC=   0.0000 screening length for correlation (either q_TF or 0.3 A-1)
   HFRCUT  =    0.0000 spherical cutoff for potential kernel
   ALDAX   =    0.0000 LDA exchange part
   AGGAX   =    0.0000 GGA exchange part
   ALDAC   =    0.0000 LDA correlation
   AGGAC   =    0.0000 GGA correlation
   ENCUTFOCK=  -1.0 apply spherical cutoff to Coloumb kernel
   NBANDSGWLOW=     1    first orbital included in HF term
   NBLOCK_FOCK=    64    blocking factor in FOCK_ACC
 Linear response parameters
   LEPSILON=     F    determine dielectric tensor
   LRPA    =     F    only Hartree local field effects (RPA)
   LNABLA  =     F    use nabla operator in PAW spheres
   LVEL    =     F    velocity operator in full k-point grid
   LINTERFAST=   F  fast interpolation
   KINTER  =     0    interpolate to denser k-point grid
   CSHIFT  =0.1000    complex shift for real part using Kramers Kronig
   OMEGAMAX=  -1.0    maximum frequency
   DEG_THRESHOLD= 0.2000000E-02 threshold for treating states as degnerate
   RTIME   =   -0.100 relaxation time in fs
  (WPLASMAI=    0.000 imaginary part of plasma frequency in eV, 0.658/RTIME)
   DFIELD  = 0.0000000 0.0000000 0.0000000 field for delta impulse in time
 
 Orbital magnetization related:
   ORBITALMAG=     F  switch on orbital magnetization
   LCHIMAG   =     F  perturbation theory with respect to B field
   DQ        =  0.001000  dq finite difference perturbation B field
   LLRAUG    =     F  two centre corrections for induced B field

 Response functions by sum over occupied states:
   ALGO    =GW0        execute GW part
   LFXC    =     F    include DFT xc kernel in TD-HF and W
   LADDER  =     F    particle hole ladder diagrams for BSE/TD-HF and W (Nano-quanta)
   LRPAFORCE=     F   calculate RPA forces
   LHARTREE=     T    include Hartree terms (bubbles-RPA) in BSE/TD-HF
   IBSE    =     0    BSE modus: 0 exact, 1 time-evolution (store matrix), 10 time-evolution (implicit)
   KPOINT  =    -1   0   0   0    k-point index at which BSE equation is solved (and G at which response is eval.)
   LTRIPLET=     F    triplet instead of singlet excitation (BSE only)
   LRSRPA  =     F    range separated RPA (total - short) in ACFDT
   LTCTE   =     F    use test-charge test-electron dielectric function
   LTETE   =     F    use test-electron test-electron dielectric function
   LFXCEPS =     F    determine f_xc=epsilon-1/Xi Sharma and Gross kernel
   LFXHEG  =     F    model exchange using f_x(G,k_F) from free electron gas
   NATURALO=     2    0 natural orbitals, 1 only virtual, 2 only occupied-virtual rotation
   L2ORDER =     F    2nd order terms only
   LMP2LT   =     F    use LT MP2
   LUSEW   =     F    use screened W from WXXXX.tmp files instead of (screened) HF kernel
   ENCUTGW = 433.3    cutoff for response function in eV
   ENCUTGWSOFT = 433.3 soft cutoff for Coulomb kernel in GW response function in eV
   ENCUTLF =  -1.0    cutoff for local field effects
   LMAXMP2 =    -1    maximum L for one center terms
   SCISSOR =   0.0    scissor correction
   NOMEGA  =    64    number of frequencies
   NOMEGAR =    64    number of frequencies along real axis
   NBANDSGW=    -1    number of bands for which selfenergy shift is calculated
   NBANDSGWLOW=     1 lowest band included in GW (to exclude core correlation)
   NBANDSO =    -1    number of bands for electron-hole treatment (occupied)
   NBANDSV =    -1    number of bands for electron-hole treatment (virtual)
   NELM    =     1    number of iterations in solving QP/BSE equation
   NELMHF  =     1    number of iterations in the inner HF iteration
   DIM     =     3    dimensionality of system (0=0D molecules, 3=3D)
   ANTIRES =     0    antiresonant part (0) no TDA (1) w=0 exact (2) accurate
   OMEGAMAX= -30.0    maximum frequency
   OMEGAMIN= -30.000    minimum frequency
   OMEGATL =-200.0    maximum frequency of tail
   OMEGAGRID=     0    grid type (0 default)
   CSHIFT  =-0.100    complex shift used in evaluation of response functions
   SELFENERGY=   F    calculate selfenergy instead of QP shifts
   LSPECTRAL =   T    use spectral functions                   
   LSPECTRALGW=   F   use spectral functions to calculate int dz G(w-z) W(z) (more accurate)
   LSINGLES  =   F   calculate the singles contribution to the correlation energy
   LFERMIGW  =   F   update Fermi-energy in the Greens function

   ODDONLYGW =   F    avoid all even points for polarizability 
   EVENONLYGW=   F    avoid all odd  points for polarizability 
   NKREDLFX  =   1   NKREDLFY  =   1   NKREDLFZ  =   1

   TELESCOPE =   0   use telescope k-point sampling
   TAUPAR    =   1   number of TAU groups used in imaginary time calculation
   OMEGAPAR  =  -1   number of OMEGA groups used in imaginary frequency calculation



--------------------------------------------------------------------------------------------------------


 Static calculation
 charge density and potential will be updated during run
 spin polarized calculation
 Variant of blocked Davidson
 Davidson routine will perform the subspace rotation
 perform sub-space diagonalisation
    after iterative eigenvector-optimisation
 Kerker-like  mixing scheme
 using additional bands          188
 reciprocal scheme for non local part
 calculate Harris-corrections to forces 
   (improved forces if not selfconsistent)
 use gradient corrections 
 use of overlap-Matrix (Vanderbilt PP)
 Gauss-broadening in eV      SIGMA  =   0.05


--------------------------------------------------------------------------------------------------------


  energy-cutoff  :      650.00
  volume of cell :       81.79
      direct lattice vectors                 reciprocal lattice vectors
     1.255226435 -2.174112687  0.000000000     0.398334505 -0.229978880  0.000000000
     1.255226435  2.174112687  0.000000000     0.398334505  0.229978880  0.000000000
     0.000000000  0.000000000 14.985750402     0.000000000  0.000000000  0.066730058

  length of vectors
     2.510450035  2.510450035 14.985750402     0.459957240  0.459957240  0.066730058


 
 old parameters found on file WAVECAR:
  energy-cutoff  :      650.00
  volume of cell :       81.79
      direct lattice vectors                 reciprocal lattice vectors
     1.255226435 -2.174112687  0.000000000     0.398334505 -0.229978880  0.000000000
     1.255226435  2.174112687  0.000000000     0.398334505  0.229978880  0.000000000
     0.000000000  0.000000000 14.985750402     0.000000000  0.000000000  0.066730058

  length of vectors

 
 k-points in units of 2pi/SCALE and weight: 12x12x1                                 
   0.00000000  0.00000000  0.00000000       0.007
   0.03319454 -0.01916491  0.00000000       0.042
   0.06638908 -0.03832981  0.00000000       0.042
   0.09958363 -0.05749472  0.00000000       0.042
   0.13277817 -0.07665963  0.00000000       0.042
   0.16597271 -0.09582453  0.00000000       0.042
   0.19916725 -0.11498944  0.00000000       0.021
   0.06638908  0.00000000  0.00000000       0.042
   0.09958363 -0.01916491  0.00000000       0.083
   0.13277817 -0.03832981  0.00000000       0.083
   0.16597271 -0.05749472  0.00000000       0.083
   0.19916725 -0.07665963  0.00000000       0.083
   0.13277817  0.00000000  0.00000000       0.042
   0.16597271 -0.01916491  0.00000000       0.083
   0.19916725 -0.03832981  0.00000000       0.083
   0.23236179 -0.05749472  0.00000000       0.042
   0.19916725  0.00000000  0.00000000       0.042
   0.23236179 -0.01916491  0.00000000       0.083
   0.26555634  0.00000000  0.00000000       0.014
 
 k-points in reciprocal lattice and weights: 12x12x1                                 
   0.00000000  0.00000000  0.00000000       0.007
   0.08333333 -0.00000000  0.00000000       0.042
   0.16666667  0.00000000  0.00000000       0.042
   0.25000000 -0.00000000  0.00000000       0.042
   0.33333333 -0.00000000  0.00000000       0.042
   0.41666667 -0.00000000  0.00000000       0.042
   0.50000000 -0.00000000  0.00000000       0.021
   0.08333333  0.08333333  0.00000000       0.042
   0.16666667  0.08333333  0.00000000       0.083
   0.25000000  0.08333333  0.00000000       0.083
   0.33333333  0.08333333  0.00000000       0.083
   0.41666667  0.08333333  0.00000000       0.083
   0.16666667  0.16666667  0.00000000       0.042
   0.25000000  0.16666667  0.00000000       0.083
   0.33333333  0.16666667  0.00000000       0.083
   0.41666667  0.16666667  0.00000000       0.042
   0.25000000  0.25000000  0.00000000       0.042
   0.33333333  0.25000000  0.00000000       0.083
   0.33333333  0.33333333  0.00000000       0.014
 
 position of ions in fractional coordinates (direct lattice) 
   0.33333306  0.66666686  0.11141238
   0.66666686  0.33333306  0.11141238
 
 position of ions in cartesian coordinates  (Angst):
   1.25522634  0.72470526  1.66959805
   1.25522634 -0.72470526  1.66959805
 


--------------------------------------------------------------------------------------------------------


 k-point  1 :   0.0000 0.0000 0.0000  plane waves:    3063
 k-point  2 :   0.0833-0.0000 0.0000  plane waves:    3057
 k-point  3 :   0.1667 0.0000 0.0000  plane waves:    3081
 k-point  4 :   0.2500-0.0000 0.0000  plane waves:    3081
 k-point  5 :   0.3333-0.0000 0.0000  plane waves:    3087
 k-point  6 :   0.4167-0.0000 0.0000  plane waves:    3091
 k-point  7 :   0.5000-0.0000 0.0000  plane waves:    3092
 k-point  8 :   0.0833 0.0833 0.0000  plane waves:    3079
 k-point  9 :   0.1667 0.0833 0.0000  plane waves:    3079
 k-point 10 :   0.2500 0.0833 0.0000  plane waves:    3080
 k-point 11 :   0.3333 0.0833 0.0000  plane waves:    3080
 k-point 12 :   0.4167 0.0833 0.0000  plane waves:    3086
 k-point 13 :   0.1667 0.1667 0.0000  plane waves:    3069
 k-point 14 :   0.2500 0.1667 0.0000  plane waves:    3069
 k-point 15 :   0.3333 0.1667 0.0000  plane waves:    3081
 k-point 16 :   0.4167 0.1667 0.0000  plane waves:    3076
 k-point 17 :   0.2500 0.2500 0.0000  plane waves:    3065
 k-point 18 :   0.3333 0.2500 0.0000  plane waves:    3068
 k-point 19 :   0.3333 0.3333 0.0000  plane waves:    3051

 maximum and minimum number of plane-waves per node :      3092     3051

 maximum number of plane-waves:      3092
 maximum index in each direction: 
   IXMAX=    5   IYMAX=    5   IZMAX=   31
   IXMIN=   -5   IYMIN=   -5   IZMIN=  -31


 serial   3D FFT for wavefunctions
 parallel 3D FFT for charge:
    minimum data exchange during FFTs selected (reduces bandwidth)


 FFT grid for exact exchange (Hartree Fock) 
  NGX = 16; NGY = 16; NGZ = 96

 
 Radii for the augmentation spheres in the non-local exchange
 for species   1 augmentation radius   0.767 (default was   0.767)
 error exchange integrals (PW-AE in eV) (mean, max) 0.631 4.355 density error[0,qmax] 0.0048
 for species   2 augmentation radius   0.590 (default was   0.590)
 error exchange integrals (PW-AE in eV) (mean, max) 0.714 2.886 density error[0,qmax] 0.0018
 Maximum index for augmentation-charges in exchange          570
  SETUP_FOCK is finished

 total amount of memory used by VASP MPI-rank0    79806. kBytes
=======================================================================

   base      :      30000. kBytes
   nonl-proj :       7628. kBytes
   fftplans  :       1927. kBytes
   grid      :       9719. kBytes
   one-center:         12. kBytes
   HF        :         18. kBytes
   nonlr-proj:        151. kBytes
   wavefun   :      30351. kBytes
 
     INWAV:  cpu time    2.2685: real time    2.7008
 initial charge density was supplied:
 number of electron       8.0000000 magnetization       0.0000006
 keeping initial charge density in first step


--------------------------------------------------------------------------------------------------------


 Maximum index for augmentation-charges         1091 (set IRDMAX)


--------------------------------------------------------------------------------------------------------


    FEWALD:  cpu time    0.0033: real time    0.0033

 The Fermi energy was updated, please check that it is located mid-gap
 values below the HOMO (VB) or above the LUMO (CB) will cause erroneous energies
 E-fermi :  -1.6799

 Response functions by sum over occupied states:
 ===============================================
   NOMEGA  =    64    number of frequencies
   NOMEGAR =    64    number of frequencies along real axis
   OMEGAMAX=  13.56   maximum frequency
   OMEGAMIN=   2.33   minimum frequency
   OMEGATL = 151.32   maximum frequency of tail
   CSHIFT  =  0.275   complex shift used in evaluation of response functions


 Energies iw= 
 ============
   0.000   0.000   0.459   0.000   0.916   0.000   1.372   0.000   1.824   0.000
   2.273   0.000   2.717   0.000   3.156   0.000   3.590   0.000   4.018   0.000
   4.440   0.000   4.856   0.000   5.266   0.000   5.671   0.000   6.071   0.000
   6.467   0.000   6.858   0.000   7.245   0.000   7.630   0.000   8.012   0.000
   8.393   0.000   8.773   0.000   9.154   0.000   9.535   0.000   9.918   0.000
  10.304   0.000  10.694   0.000  11.089   0.000  11.490   0.000  11.899   0.000
  12.317   0.000  12.744   0.000  13.184   0.000  13.638   0.000  14.108   0.000
  14.596   0.000  15.105   0.000  15.637   0.000  16.196   0.000  16.786   0.000
  17.411   0.000  18.076   0.000  18.787   0.000  19.551   0.000  20.376   0.000
  21.273   0.000  22.252   0.000  23.328   0.000  24.520   0.000  25.849   0.000
  27.344   0.000  29.039   0.000  30.981   0.000  33.229   0.000  35.867   0.000
  39.005   0.000  42.803   0.000  47.492   0.000  53.426   0.000  61.168   0.000
  71.686   0.000  86.770   0.000 110.178   0.000 151.317   0.000
 

IMPORTANT INFORMATION: All symmetrisations will be switched off!
NOSYMM: (Re-)initialisation of all symmetry stuff for point group C_1.

 
 KPOINTS: 12x12x1                                 

Automatic generation of k-mesh.
Space group operators:
 irot       det(A)        alpha          n_x          n_y          n_z        tau_x        tau_y        tau_z
    1     1.000000     0.000000     1.000000     0.000000     0.000000     0.000000     0.000000     0.000000
 
 Subroutine IBZKPT returns following result:
 ===========================================
 
 Found    144 irreducible k-points:
 
 Following reciprocal coordinates:
            Coordinates               Weight
  0.000000  0.000000  0.000000      1.000000
  0.083333 -0.000000  0.000000      1.000000
  0.166667  0.000000  0.000000      1.000000
  0.250000 -0.000000  0.000000      1.000000
  0.333333 -0.000000  0.000000      1.000000
  0.416667 -0.000000  0.000000      1.000000
  0.500000 -0.000000  0.000000      1.000000
 -0.416667  0.000000  0.000000      1.000000
 -0.333333  0.000000  0.000000      1.000000
 -0.250000  0.000000  0.000000      1.000000
 -0.166667  0.000000  0.000000      1.000000
 -0.083333  0.000000  0.000000      1.000000
 -0.000000  0.083333  0.000000      1.000000
  0.083333  0.083333  0.000000      1.000000
  0.166667  0.083333  0.000000      1.000000
  0.250000  0.083333  0.000000      1.000000
  0.333333  0.083333  0.000000      1.000000
  0.416667  0.083333  0.000000      1.000000
  0.500000  0.083333  0.000000      1.000000
 -0.416667  0.083333  0.000000      1.000000
 -0.333333  0.083333  0.000000      1.000000
 -0.250000  0.083333  0.000000      1.000000
 -0.166667  0.083333  0.000000      1.000000
 -0.083333  0.083333  0.000000      1.000000
  0.000000  0.166667  0.000000      1.000000
  0.083333  0.166667  0.000000      1.000000
  0.166667  0.166667  0.000000      1.000000
  0.250000  0.166667  0.000000      1.000000
  0.333333  0.166667  0.000000      1.000000
  0.416667  0.166667  0.000000      1.000000
  0.500000  0.166667  0.000000      1.000000
 -0.416667  0.166667  0.000000      1.000000
 -0.333333  0.166667  0.000000      1.000000
 -0.250000  0.166667  0.000000      1.000000
 -0.166667  0.166667  0.000000      1.000000
 -0.083333  0.166667  0.000000      1.000000
 -0.000000  0.250000  0.000000      1.000000
  0.083333  0.250000  0.000000      1.000000
  0.166667  0.250000  0.000000      1.000000
  0.250000  0.250000  0.000000      1.000000
  0.333333  0.250000  0.000000      1.000000
  0.416667  0.250000  0.000000      1.000000
  0.500000  0.250000  0.000000      1.000000
 -0.416667  0.250000  0.000000      1.000000
 -0.333333  0.250000  0.000000      1.000000
 -0.250000  0.250000  0.000000      1.000000
 -0.166667  0.250000  0.000000      1.000000
 -0.083333  0.250000  0.000000      1.000000
 -0.000000  0.333333  0.000000      1.000000
  0.083333  0.333333  0.000000      1.000000
  0.166667  0.333333  0.000000      1.000000
  0.250000  0.333333  0.000000      1.000000
  0.333333  0.333333  0.000000      1.000000
  0.416667  0.333333  0.000000      1.000000
  0.500000  0.333333  0.000000      1.000000
 -0.416667  0.333333  0.000000      1.000000
 -0.333333  0.333333  0.000000      1.000000
 -0.250000  0.333333  0.000000      1.000000
 -0.166667  0.333333  0.000000      1.000000
 -0.083333  0.333333  0.000000      1.000000
 -0.000000  0.416667  0.000000      1.000000
  0.083333  0.416667  0.000000      1.000000
  0.166667  0.416667  0.000000      1.000000
  0.250000  0.416667  0.000000      1.000000
  0.333333  0.416667  0.000000      1.000000
  0.416667  0.416667  0.000000      1.000000
  0.500000  0.416667  0.000000      1.000000
 -0.416667  0.416667  0.000000      1.000000
 -0.333333  0.416667  0.000000      1.000000
 -0.250000  0.416667  0.000000      1.000000
 -0.166667  0.416667  0.000000      1.000000
 -0.083333  0.416667  0.000000      1.000000
 -0.000000  0.500000  0.000000      1.000000
  0.083333  0.500000  0.000000      1.000000
  0.166667  0.500000  0.000000      1.000000
  0.250000  0.500000  0.000000      1.000000
  0.333333  0.500000  0.000000      1.000000
  0.416667  0.500000  0.000000      1.000000
  0.500000  0.500000  0.000000      1.000000
 -0.416667  0.500000  0.000000      1.000000
 -0.333333  0.500000  0.000000      1.000000
 -0.250000  0.500000  0.000000      1.000000
 -0.166667  0.500000  0.000000      1.000000
 -0.083333  0.500000  0.000000      1.000000
  0.000000 -0.416667  0.000000      1.000000
  0.083333 -0.416667  0.000000      1.000000
  0.166667 -0.416667  0.000000      1.000000
  0.250000 -0.416667  0.000000      1.000000
  0.333333 -0.416667  0.000000      1.000000
  0.416667 -0.416667  0.000000      1.000000
  0.500000 -0.416667  0.000000      1.000000
 -0.416667 -0.416667  0.000000      1.000000
 -0.333333 -0.416667  0.000000      1.000000
 -0.250000 -0.416667  0.000000      1.000000
 -0.166667 -0.416667  0.000000      1.000000
 -0.083333 -0.416667  0.000000      1.000000
  0.000000 -0.333333  0.000000      1.000000
  0.083333 -0.333333  0.000000      1.000000
  0.166667 -0.333333  0.000000      1.000000
  0.250000 -0.333333  0.000000      1.000000
  0.333333 -0.333333  0.000000      1.000000
  0.416667 -0.333333  0.000000      1.000000
  0.500000 -0.333333  0.000000      1.000000
 -0.416667 -0.333333  0.000000      1.000000
 -0.333333 -0.333333  0.000000      1.000000
 -0.250000 -0.333333  0.000000      1.000000
 -0.166667 -0.333333  0.000000      1.000000
 -0.083333 -0.333333  0.000000      1.000000
  0.000000 -0.250000  0.000000      1.000000
  0.083333 -0.250000  0.000000      1.000000
  0.166667 -0.250000  0.000000      1.000000
  0.250000 -0.250000  0.000000      1.000000
  0.333333 -0.250000  0.000000      1.000000
  0.416667 -0.250000  0.000000      1.000000
  0.500000 -0.250000  0.000000      1.000000
 -0.416667 -0.250000  0.000000      1.000000
 -0.333333 -0.250000  0.000000      1.000000
 -0.250000 -0.250000  0.000000      1.000000
 -0.166667 -0.250000  0.000000      1.000000
 -0.083333 -0.250000  0.000000      1.000000
  0.000000 -0.166667  0.000000      1.000000
  0.083333 -0.166667  0.000000      1.000000
  0.166667 -0.166667  0.000000      1.000000
  0.250000 -0.166667  0.000000      1.000000
  0.333333 -0.166667  0.000000      1.000000
  0.416667 -0.166667  0.000000      1.000000
  0.500000 -0.166667  0.000000      1.000000
 -0.416667 -0.166667  0.000000      1.000000
 -0.333333 -0.166667  0.000000      1.000000
 -0.250000 -0.166667  0.000000      1.000000
 -0.166667 -0.166667  0.000000      1.000000
 -0.083333 -0.166667  0.000000      1.000000
  0.000000 -0.083333  0.000000      1.000000
  0.083333 -0.083333  0.000000      1.000000
  0.166667 -0.083333  0.000000      1.000000
  0.250000 -0.083333  0.000000      1.000000
  0.333333 -0.083333  0.000000      1.000000
  0.416667 -0.083333  0.000000      1.000000
  0.500000 -0.083333  0.000000      1.000000
 -0.416667 -0.083333  0.000000      1.000000
 -0.333333 -0.083333  0.000000      1.000000
 -0.250000 -0.083333  0.000000      1.000000
 -0.166667 -0.083333  0.000000      1.000000
 -0.083333 -0.083333  0.000000      1.000000
 
 Following cartesian coordinates:
            Coordinates               Weight
  0.000000  0.000000  0.000000      1.000000
  0.033195 -0.019165  0.000000      1.000000
  0.066389 -0.038330  0.000000      1.000000
  0.099584 -0.057495  0.000000      1.000000
  0.132778 -0.076660  0.000000      1.000000
  0.165973 -0.095825  0.000000      1.000000
  0.199167 -0.114989  0.000000      1.000000
 -0.165973  0.095825  0.000000      1.000000
 -0.132778  0.076660  0.000000      1.000000
 -0.099584  0.057495  0.000000      1.000000
 -0.066389  0.038330  0.000000      1.000000
 -0.033195  0.019165  0.000000      1.000000
  0.033195  0.019165  0.000000      1.000000
  0.066389  0.000000  0.000000      1.000000
  0.099584 -0.019165  0.000000      1.000000
  0.132778 -0.038330  0.000000      1.000000
  0.165973 -0.057495  0.000000      1.000000
  0.199167 -0.076660  0.000000      1.000000
  0.232362 -0.095825  0.000000      1.000000
 -0.132778  0.114989  0.000000      1.000000
 -0.099584  0.095825  0.000000      1.000000
 -0.066389  0.076660  0.000000      1.000000
 -0.033195  0.057495  0.000000      1.000000
  0.000000  0.038330  0.000000      1.000000
  0.066389  0.038330  0.000000      1.000000
  0.099584  0.019165  0.000000      1.000000
  0.132778  0.000000  0.000000      1.000000
  0.165973 -0.019165  0.000000      1.000000
  0.199167 -0.038330  0.000000      1.000000
  0.232362 -0.057495  0.000000      1.000000
  0.265556 -0.076660  0.000000      1.000000
 -0.099584  0.134154  0.000000      1.000000
 -0.066389  0.114989  0.000000      1.000000
 -0.033195  0.095825  0.000000      1.000000
  0.000000  0.076660  0.000000      1.000000
  0.033195  0.057495  0.000000      1.000000
  0.099584  0.057495  0.000000      1.000000
  0.132778  0.038330  0.000000      1.000000
  0.165973  0.019165  0.000000      1.000000
  0.199167  0.000000  0.000000      1.000000
  0.232362 -0.019165  0.000000      1.000000
  0.265556 -0.038330  0.000000      1.000000
  0.298751 -0.057495  0.000000      1.000000
 -0.066389  0.153319  0.000000      1.000000
 -0.033195  0.134154  0.000000      1.000000
  0.000000  0.114989  0.000000      1.000000
  0.033195  0.095825  0.000000      1.000000
  0.066389  0.076660  0.000000      1.000000
  0.132778  0.076660  0.000000      1.000000
  0.165973  0.057495  0.000000      1.000000
  0.199167  0.038330  0.000000      1.000000
  0.232362  0.019165  0.000000      1.000000
  0.265556  0.000000  0.000000      1.000000
  0.298751 -0.019165  0.000000      1.000000
  0.331945 -0.038330  0.000000      1.000000
 -0.033195  0.172484  0.000000      1.000000
 -0.000000  0.153319  0.000000      1.000000
  0.033195  0.134154  0.000000      1.000000
  0.066389  0.114989  0.000000      1.000000
  0.099584  0.095825  0.000000      1.000000
  0.165973  0.095825  0.000000      1.000000
  0.199167  0.076660  0.000000      1.000000
  0.232362  0.057495  0.000000      1.000000
  0.265556  0.038330  0.000000      1.000000
  0.298751  0.019165  0.000000      1.000000
  0.331945  0.000000  0.000000      1.000000
  0.365140 -0.019165  0.000000      1.000000
 -0.000000  0.191649  0.000000      1.000000
  0.033195  0.172484  0.000000      1.000000
  0.066389  0.153319  0.000000      1.000000
  0.099584  0.134154  0.000000      1.000000
  0.132778  0.114989  0.000000      1.000000
  0.199167  0.114989  0.000000      1.000000
  0.232362  0.095825  0.000000      1.000000
  0.265556  0.076660  0.000000      1.000000
  0.298751  0.057495  0.000000      1.000000
  0.331945  0.038330  0.000000      1.000000
  0.365140  0.019165  0.000000      1.000000
  0.398335  0.000000  0.000000      1.000000
  0.033195  0.210814  0.000000      1.000000
  0.066389  0.191649  0.000000      1.000000
  0.099584  0.172484  0.000000      1.000000
  0.132778  0.153319  0.000000      1.000000
  0.165973  0.134154  0.000000      1.000000
 -0.165973 -0.095825  0.000000      1.000000
 -0.132778 -0.114989  0.000000      1.000000
 -0.099584 -0.134154  0.000000      1.000000
 -0.066389 -0.153319  0.000000      1.000000
 -0.033195 -0.172484  0.000000      1.000000
 -0.000000 -0.191649  0.000000      1.000000
  0.033195 -0.210814  0.000000      1.000000
 -0.331945  0.000000  0.000000      1.000000
 -0.298751 -0.019165  0.000000      1.000000
 -0.265556 -0.038330  0.000000      1.000000
 -0.232362 -0.057495  0.000000      1.000000
 -0.199167 -0.076660  0.000000      1.000000
 -0.132778 -0.076660  0.000000      1.000000
 -0.099584 -0.095825  0.000000      1.000000
 -0.066389 -0.114989  0.000000      1.000000
 -0.033195 -0.134154  0.000000      1.000000
 -0.000000 -0.153319  0.000000      1.000000
  0.033195 -0.172484  0.000000      1.000000
  0.066389 -0.191649  0.000000      1.000000
 -0.298751  0.019165  0.000000      1.000000
 -0.265556  0.000000  0.000000      1.000000
 -0.232362 -0.019165  0.000000      1.000000
 -0.199167 -0.038330  0.000000      1.000000
 -0.165973 -0.057495  0.000000      1.000000
 -0.099584 -0.057495  0.000000      1.000000
 -0.066389 -0.076660  0.000000      1.000000
 -0.033195 -0.095825  0.000000      1.000000
  0.000000 -0.114989  0.000000      1.000000
  0.033195 -0.134154  0.000000      1.000000
  0.066389 -0.153319  0.000000      1.000000
  0.099584 -0.172484  0.000000      1.000000
 -0.265556  0.038330  0.000000      1.000000
 -0.232362  0.019165  0.000000      1.000000
 -0.199167  0.000000  0.000000      1.000000
 -0.165973 -0.019165  0.000000      1.000000
 -0.132778 -0.038330  0.000000      1.000000
 -0.066389 -0.038330  0.000000      1.000000
 -0.033195 -0.057495  0.000000      1.000000
  0.000000 -0.076660  0.000000      1.000000
  0.033195 -0.095825  0.000000      1.000000
  0.066389 -0.114989  0.000000      1.000000
  0.099584 -0.134154  0.000000      1.000000
  0.132778 -0.153319  0.000000      1.000000
 -0.232362  0.057495  0.000000      1.000000
 -0.199167  0.038330  0.000000      1.000000
 -0.165973  0.019165  0.000000      1.000000
 -0.132778  0.000000  0.000000      1.000000
 -0.099584 -0.019165  0.000000      1.000000
 -0.033195 -0.019165  0.000000      1.000000
  0.000000 -0.038330  0.000000      1.000000
  0.033195 -0.057495  0.000000      1.000000
  0.066389 -0.076660  0.000000      1.000000
  0.099584 -0.095825  0.000000      1.000000
  0.132778 -0.114989  0.000000      1.000000
  0.165973 -0.134154  0.000000      1.000000
 -0.199167  0.076660  0.000000      1.000000
 -0.165973  0.057495  0.000000      1.000000
 -0.132778  0.038330  0.000000      1.000000
 -0.099584  0.019165  0.000000      1.000000
 -0.066389  0.000000  0.000000      1.000000
 
 files read and symmetry switched off, memory is now:
 total amount of memory used by VASP MPI-rank0   329022. kBytes
=======================================================================

   base      :      30000. kBytes
   nonl-proj :      57164. kBytes
   fftplans  :       1927. kBytes
   grid      :       9719. kBytes
   one-center:         12. kBytes
   HF        :         18. kBytes
   nonlr-proj:        151. kBytes
   wavefun   :     230031. kBytes
 
 Basis sets for responsefunctions:
 =================================
 k-point  1 :   0.0000 0.0000 0.0000  plane waves:    1701
 k-point  2 :   0.0833-0.0000 0.0000  plane waves:    1703
 k-point  3 :   0.1667 0.0000 0.0000  plane waves:    1675
 k-point  4 :   0.2500-0.0000 0.0000  plane waves:    1667
 k-point  5 :   0.3333-0.0000 0.0000  plane waves:    1670
 k-point  6 :   0.4167-0.0000 0.0000  plane waves:    1678
 k-point  7 :   0.5000-0.0000 0.0000  plane waves:    1680
 k-point  8 :   0.0833 0.0833 0.0000  plane waves:    1679
 k-point  9 :   0.1667 0.0833 0.0000  plane waves:    1680
 k-point 10 :   0.2500 0.0833 0.0000  plane waves:    1661
 k-point 11 :   0.3333 0.0833 0.0000  plane waves:    1671
 k-point 12 :   0.4167 0.0833 0.0000  plane waves:    1678
 k-point 13 :   0.1667 0.1667 0.0000  plane waves:    1664
 k-point 14 :   0.2500 0.1667 0.0000  plane waves:    1661
 k-point 15 :   0.3333 0.1667 0.0000  plane waves:    1678
 k-point 16 :   0.4167 0.1667 0.0000  plane waves:    1684
 k-point 17 :   0.2500 0.2500 0.0000  plane waves:    1676
 k-point 18 :   0.3333 0.2500 0.0000  plane waves:    1676
 k-point 19 :   0.3333 0.3333 0.0000  plane waves:    1686
 k-point 20 :  -0.4167 0.0000 0.0000  plane waves:    1678
 k-point 21 :  -0.3333 0.0000 0.0000  plane waves:    1670
 k-point 22 :  -0.2500 0.0000 0.0000  plane waves:    1667
 k-point 23 :  -0.1667 0.0000 0.0000  plane waves:    1675
 k-point 24 :  -0.0833 0.0000 0.0000  plane waves:    1703
 k-point 25 :   0.0000 0.0833 0.0000  plane waves:    1703
 k-point 26 :  -0.5000 0.0833 0.0000  plane waves:    1678
 k-point 27 :  -0.4167 0.0833 0.0000  plane waves:    1671
 k-point 28 :  -0.3333 0.0833 0.0000  plane waves:    1661
 k-point 29 :  -0.2500 0.0833 0.0000  plane waves:    1680
 k-point 30 :  -0.1667 0.0833 0.0000  plane waves:    1679
 k-point 31 :  -0.0833 0.0833 0.0000  plane waves:    1703
 k-point 32 :   0.0000 0.1667 0.0000  plane waves:    1675
 k-point 33 :   0.0833 0.1667 0.0000  plane waves:    1680
 k-point 34 :  -0.5000 0.1667 0.0000  plane waves:    1678
 k-point 35 :  -0.4167 0.1667 0.0000  plane waves:    1661
 k-point 36 :  -0.3333 0.1667 0.0000  plane waves:    1664
 k-point 37 :  -0.2500 0.1667 0.0000  plane waves:    1680
 k-point 38 :  -0.1667 0.1667 0.0000  plane waves:    1675
 k-point 39 :  -0.0833 0.1667 0.0000  plane waves:    1679
 k-point 40 :   0.0000 0.2500 0.0000  plane waves:    1667
 k-point 41 :   0.0833 0.2500 0.0000  plane waves:    1661
 k-point 42 :   0.1667 0.2500 0.0000  plane waves:    1661
 k-point 43 :  -0.5833 0.2500 0.0000  plane waves:    1676
 k-point 44 :  -0.5000 0.2500 0.0000  plane waves:    1676
 k-point 45 :  -0.4167 0.2500 0.0000  plane waves:    1661
 k-point 46 :  -0.3333 0.2500 0.0000  plane waves:    1661
 k-point 47 :  -0.2500 0.2500 0.0000  plane waves:    1667
 k-point 48 :  -0.1667 0.2500 0.0000  plane waves:    1680
 k-point 49 :  -0.0833 0.2500 0.0000  plane waves:    1680
 k-point 50 :   0.0000 0.3333 0.0000  plane waves:    1670
 k-point 51 :   0.0833 0.3333 0.0000  plane waves:    1671
 k-point 52 :   0.1667 0.3333 0.0000  plane waves:    1678
 k-point 53 :   0.2500 0.3333 0.0000  plane waves:    1676
 k-point 54 :  -0.5833 0.3333 0.0000  plane waves:    1676
 k-point 55 :  -0.5000 0.3333 0.0000  plane waves:    1678
 k-point 56 :  -0.4167 0.3333 0.0000  plane waves:    1671
 k-point 57 :  -0.3333 0.3333 0.0000  plane waves:    1670
 k-point 58 :  -0.2500 0.3333 0.0000  plane waves:    1661
 k-point 59 :  -0.1667 0.3333 0.0000  plane waves:    1664
 k-point 60 :  -0.0833 0.3333 0.0000  plane waves:    1661
 k-point 61 :   0.0000 0.4167 0.0000  plane waves:    1678
 k-point 62 :   0.0833 0.4167 0.0000  plane waves:    1678
 k-point 63 :   0.1667-0.5833 0.0000  plane waves:    1684
 k-point 64 :   0.2500-0.5833 0.0000  plane waves:    1676
 k-point 65 :   0.3333-0.5833 0.0000  plane waves:    1676
 k-point 66 :  -0.5833 0.4167 0.0000  plane waves:    1684
 k-point 67 :  -0.5000 0.4167 0.0000  plane waves:    1678
 k-point 68 :  -0.4167 0.4167 0.0000  plane waves:    1678
 k-point 69 :  -0.3333 0.4167 0.0000  plane waves:    1671
 k-point 70 :  -0.2500 0.4167 0.0000  plane waves:    1661
 k-point 71 :  -0.1667 0.4167 0.0000  plane waves:    1661
 k-point 72 :  -0.0833 0.4167 0.0000  plane waves:    1671
 k-point 73 :  -0.0000-0.5000 0.0000  plane waves:    1680
 k-point 74 :   0.0833-0.5000 0.0000  plane waves:    1678
 k-point 75 :   0.1667-0.5000 0.0000  plane waves:    1678
 k-point 76 :   0.2500-0.5000 0.0000  plane waves:    1676
 k-point 77 :   0.3333-0.5000 0.0000  plane waves:    1678
 k-point 78 :   0.4167-0.5000 0.0000  plane waves:    1678
 k-point 79 :  -0.5000 0.5000 0.0000  plane waves:    1680
 k-point 80 :  -0.4167 0.5000 0.0000  plane waves:    1678
 k-point 81 :  -0.3333 0.5000 0.0000  plane waves:    1678
 k-point 82 :  -0.2500 0.5000 0.0000  plane waves:    1676
 k-point 83 :  -0.1667 0.5000 0.0000  plane waves:    1678
 k-point 84 :  -0.0833 0.5000 0.0000  plane waves:    1678
 k-point 85 :  -0.0000-0.4167 0.0000  plane waves:    1678
 k-point 86 :   0.0833-0.4167 0.0000  plane waves:    1671
 k-point 87 :   0.1667-0.4167 0.0000  plane waves:    1661
 k-point 88 :   0.2500-0.4167 0.0000  plane waves:    1661
 k-point 89 :   0.3333-0.4167 0.0000  plane waves:    1671
 k-point 90 :   0.4167-0.4167 0.0000  plane waves:    1678
 k-point 91 :   0.5000-0.4167 0.0000  plane waves:    1678
 k-point 92 :  -0.4167 0.5833 0.0000  plane waves:    1684
 k-point 93 :  -0.3333 0.5833 0.0000  plane waves:    1676
 k-point 94 :  -0.2500 0.5833 0.0000  plane waves:    1676
 k-point 95 :  -0.1667-0.4167 0.0000  plane waves:    1684
 k-point 96 :  -0.0833-0.4167 0.0000  plane waves:    1678
 k-point 97 :  -0.0000-0.3333 0.0000  plane waves:    1670
 k-point 98 :   0.0833-0.3333 0.0000  plane waves:    1661
 k-point 99 :   0.1667-0.3333 0.0000  plane waves:    1664
 k-point ** :   0.2500-0.3333 0.0000  plane waves:    1661
 k-point ** :   0.3333-0.3333 0.0000  plane waves:    1670
 k-point ** :   0.4167-0.3333 0.0000  plane waves:    1671
 k-point ** :   0.5000-0.3333 0.0000  plane waves:    1678
 k-point ** :   0.5833-0.3333 0.0000  plane waves:    1676
 k-point ** :  -0.3333 0.6667 0.0000  plane waves:    1686
 k-point ** :  -0.2500-0.3333 0.0000  plane waves:    1676
 k-point ** :  -0.1667-0.3333 0.0000  plane waves:    1678
 k-point ** :  -0.0833-0.3333 0.0000  plane waves:    1671
 k-point ** :  -0.0000-0.2500 0.0000  plane waves:    1667
 k-point ** :   0.0833-0.2500 0.0000  plane waves:    1680
 k-point ** :   0.1667-0.2500 0.0000  plane waves:    1680
 k-point ** :   0.2500-0.2500 0.0000  plane waves:    1667
 k-point ** :   0.3333-0.2500 0.0000  plane waves:    1661
 k-point ** :   0.4167-0.2500 0.0000  plane waves:    1661
 k-point ** :   0.5000-0.2500 0.0000  plane waves:    1676
 k-point ** :   0.5833-0.2500 0.0000  plane waves:    1676
 k-point ** :  -0.3333-0.2500 0.0000  plane waves:    1676
 k-point ** :  -0.2500-0.2500 0.0000  plane waves:    1676
 k-point ** :  -0.1667-0.2500 0.0000  plane waves:    1661
 k-point ** :  -0.0833-0.2500 0.0000  plane waves:    1661
 k-point ** :   0.0000-0.1667 0.0000  plane waves:    1675
 k-point ** :   0.0833-0.1667 0.0000  plane waves:    1679
 k-point ** :   0.1667-0.1667 0.0000  plane waves:    1675
 k-point ** :   0.2500-0.1667 0.0000  plane waves:    1680
 k-point ** :   0.3333-0.1667 0.0000  plane waves:    1664
 k-point ** :   0.4167-0.1667 0.0000  plane waves:    1661
 k-point ** :   0.5000-0.1667 0.0000  plane waves:    1678
 k-point ** :   0.5833-0.1667 0.0000  plane waves:    1684
 k-point ** :  -0.3333-0.1667 0.0000  plane waves:    1678
 k-point ** :  -0.2500-0.1667 0.0000  plane waves:    1661
 k-point ** :  -0.1667-0.1667 0.0000  plane waves:    1664
 k-point ** :  -0.0833-0.1667 0.0000  plane waves:    1680
 k-point ** :  -0.0000-0.0833 0.0000  plane waves:    1703
 k-point ** :   0.0833-0.0833 0.0000  plane waves:    1703
 k-point ** :   0.1667-0.0833 0.0000  plane waves:    1679
 k-point ** :   0.2500-0.0833 0.0000  plane waves:    1680
 k-point ** :   0.3333-0.0833 0.0000  plane waves:    1661
 k-point ** :   0.4167-0.0833 0.0000  plane waves:    1671
 k-point ** :   0.5000-0.0833 0.0000  plane waves:    1678
 k-point ** :  -0.4167-0.0833 0.0000  plane waves:    1678
 k-point ** :  -0.3333-0.0833 0.0000  plane waves:    1671
 k-point ** :  -0.2500-0.0833 0.0000  plane waves:    1661
 k-point ** :  -0.1667-0.0833 0.0000  plane waves:    1680
 k-point ** :  -0.0833-0.0833 0.0000  plane waves:    1679

 maximum and minimum number of plane-waves per node :      1703     1661

 maximum number of plane-waves:      1703
 maximum index in each direction: 
   IXMAX=    4   IYMAX=    4   IZMAX=   25
   IXMIN=   -4   IYMIN=   -4   IZMIN=  -25

 exchange correlation table for  LEXCH =        8
   RHO(1)=    0.500       N(1)  =     2000
   RHO(2)=  100.500       N(2)  =     4000
 shmem allocating  32 responsefunctions rank=  1704
 response function shared by NCSHMEM nodes    1
 all allocation done, memory is now:
 total amount of memory used by VASP MPI-rank0  1963145. kBytes
=======================================================================

   base      :      30000. kBytes
   nonl-proj :      57164. kBytes
   fftplans  :       1927. kBytes
   grid      :       9719. kBytes
   one-center:         12. kBytes
   HF        :         18. kBytes
   nonlr-proj:        151. kBytes
   wavefun   :     230031. kBytes
   2eintegral:      33619. kBytes
   response  :    1600504. kBytes
 


--------------------------------------------------------------------------------------------------------


NQ=   1    0.0000    0.0000    0.0000, 
       CHI:  cpu time    1.9187: real time    1.9232
   KRAMKRO:  cpu time    5.3462: real time    5.3588
       CHI:  cpu time   11.4471: real time   11.4741
   KRAMKRO:  cpu time    4.9671: real time    4.9788
    LFIELD:  cpu time    0.0001: real time    0.0001

 HEAD OF MICROSCOPIC DIELECTRIC TENSOR (INDEPENDENT PARTICLE)
 -------------------------------------
 w=     0.000     0.000
         1.8583    0.0000      0.0000    0.0000     -0.0000   -0.0000
         0.0000   -0.0000      1.8583   -0.0000     -0.0000   -0.0000
        -0.0000    0.0000     -0.0000    0.0000      1.3805   -0.0000

        0.000         1.699     0.000 dielectric  constant
 
 w=     0.459     0.000
         1.8620    0.0045      0.0000    0.0000     -0.0000   -0.0000
         0.0000    0.0000      1.8620    0.0045     -0.0000   -0.0000
        -0.0000    0.0000     -0.0000    0.0000      1.3810    0.0006

        0.459         1.702     0.003 dielectric  constant
 
 w=     0.916     0.000
         1.8732    0.0093      0.0000    0.0000     -0.0000   -0.0000
         0.0000    0.0000      1.8732    0.0093     -0.0000   -0.0000
        -0.0000    0.0000     -0.0000    0.0000      1.3824    0.0012

        0.916         1.710     0.007 dielectric  constant
 
 w=     1.372     0.000
         1.8928    0.0149      0.0000    0.0000     -0.0000   -0.0000
         0.0000    0.0000      1.8928    0.0149     -0.0000   -0.0000
        -0.0000    0.0000     -0.0000    0.0000      1.3848    0.0018

        1.372         1.723     0.011 dielectric  constant
 
 w=     1.824     0.000
         1.9224    0.0218      0.0000    0.0000     -0.0000   -0.0000
         0.0000    0.0000      1.9224    0.0218     -0.0000   -0.0000
        -0.0000    0.0000     -0.0000    0.0000      1.3882    0.0024

        1.824         1.744     0.015 dielectric  constant
 
 w=     2.273     0.000
         1.9645    0.0312      0.0000    0.0000     -0.0000   -0.0000
         0.0000    0.0000      1.9645    0.0312     -0.0000   -0.0000
        -0.0000    0.0000     -0.0000    0.0000      1.3926    0.0031

        2.273         1.774     0.022 dielectric  constant
 
 w=     2.717     0.000
         2.0237    0.0447      0.0000    0.0000     -0.0000   -0.0000
         0.0000    0.0000      2.0237    0.0447     -0.0000   -0.0000
        -0.0000    0.0000     -0.0000    0.0000      1.3981    0.0038

        2.717         1.815     0.031 dielectric  constant
 
 w=     3.156     0.000
         2.1083    0.0666      0.0000    0.0000     -0.0000   -0.0000
         0.0000    0.0000      2.1083    0.0666     -0.0000   -0.0000
        -0.0000    0.0000     -0.0000    0.0000      1.4048    0.0046

        3.156         1.874     0.046 dielectric  constant
 
 w=     3.590     0.000
         2.2345    0.1077      0.0000    0.0000     -0.0000   -0.0000
         0.0000    0.0000      2.2345    0.1077     -0.0000   -0.0000
        -0.0000    0.0000     -0.0000    0.0000      1.4127    0.0055

        3.590         1.961     0.074 dielectric  constant
 
 w=     4.018     0.000
         2.4306    0.2101      0.0000    0.0000      0.0000   -0.0000
         0.0000    0.0000      2.4306    0.2101      0.0000   -0.0000
        -0.0000    0.0000     -0.0000    0.0000      1.4219    0.0065

        4.018         2.094     0.142 dielectric  constant
 
 w=     4.440     0.000
         2.6752    0.4734      0.0000    0.0000      0.0000   -0.0000
         0.0000    0.0000      2.6752    0.4734      0.0000   -0.0000
        -0.0000    0.0000     -0.0000    0.0000      1.4328    0.0077

        4.440         2.261     0.318 dielectric  constant
 
 w=     4.856     0.000
         2.8775    1.0694     -0.0000    0.0000      0.0000    0.0000
        -0.0000    0.0000      2.8775    1.0694      0.0000    0.0000
        -0.0000    0.0000     -0.0000    0.0000      1.4453    0.0090

        4.856         2.400     0.716 dielectric  constant
 
 w=     5.266     0.000
         2.2862    1.9271     -0.0000    0.0000     -0.0000    0.0000
        -0.0000    0.0000      2.2862    1.9271     -0.0000    0.0000
        -0.0000    0.0000     -0.0000    0.0000      1.4598    0.0106

        5.266         2.011     1.288 dielectric  constant
 
 w=     5.671     0.000
         1.4433    1.7922     -0.0000    0.0000     -0.0000   -0.0000
        -0.0000    0.0000      1.4433    1.7922     -0.0000   -0.0000
        -0.0000    0.0000     -0.0000    0.0000      1.4768    0.0126

        5.671         1.454     1.199 dielectric  constant
 
 w=     6.071     0.000
         1.0619    1.5465     -0.0000    0.0000     -0.0000   -0.0000
        -0.0000    0.0000      1.0619    1.5465     -0.0000   -0.0000
        -0.0000    0.0000     -0.0000   -0.0000      1.4966    0.0150

        6.071         1.207     1.036 dielectric  constant
 
 w=     6.467     0.000
         0.7996    1.2372     -0.0000    0.0000     -0.0000   -0.0000
        -0.0000    0.0000      0.7996    1.2372      0.0000   -0.0000
        -0.0000    0.0000     -0.0000    0.0000      1.5201    0.0181

        6.467         1.040     0.831 dielectric  constant
 
 w=     6.858     0.000
         0.6401    0.9383     -0.0000    0.0000     -0.0000   -0.0000
        -0.0000    0.0000      0.6401    0.9383     -0.0000    0.0000
        -0.0000    0.0000     -0.0000    0.0000      1.5481    0.0221

        6.858         0.943     0.633 dielectric  constant
 
 w=     7.245     0.000
         0.6554    0.5397     -0.0000    0.0000     -0.0000   -0.0000
        -0.0000    0.0000      0.6554    0.5397     -0.0000   -0.0000
        -0.0000    0.0000     -0.0000    0.0000      1.5822    0.0276

        7.245         0.964     0.369 dielectric  constant
 
 w=     7.630     0.000
         0.8888    0.3505     -0.0000    0.0000     -0.0000   -0.0000
        -0.0000    0.0000      0.8888    0.3505     -0.0000   -0.0000
        -0.0000    0.0000     -0.0000    0.0000      1.6241    0.0356

        7.630         1.134     0.246 dielectric  constant
 
 w=     8.012     0.000
         0.9990    0.3698     -0.0000    0.0000     -0.0000   -0.0000
        -0.0000    0.0000      0.9990    0.3698     -0.0000   -0.0000
        -0.0000    0.0000     -0.0000    0.0000      1.6774    0.0467

        8.012         1.225     0.262 dielectric  constant
 
 w=     8.393     0.000
         1.0233    0.3102     -0.0000    0.0000     -0.0000   -0.0000
        -0.0000    0.0000      1.0233    0.3102     -0.0000   -0.0000
        -0.0000    0.0000     -0.0000    0.0000      1.7492    0.0643

        8.393         1.265     0.228 dielectric  constant
 
 w=     8.773     0.000
         1.0830    0.2673     -0.0000    0.0000     -0.0000   -0.0000
        -0.0000    0.0000      1.0830    0.2673     -0.0000   -0.0000
        -0.0000    0.0000     -0.0000    0.0000      1.8512    0.0980

        8.773         1.339     0.211 dielectric  constant
 
 w=     9.154     0.000
         1.1311    0.2278     -0.0000    0.0000     -0.0000   -0.0000
        -0.0000    0.0000      1.1311    0.2278     -0.0000   -0.0000
        -0.0000    0.0000     -0.0000    0.0000      2.0041    0.1746

        9.154         1.422     0.210 dielectric  constant
 
 w=     9.535     0.000
         1.1837    0.1900     -0.0000    0.0000     -0.0000   -0.0000
        -0.0000    0.0000      1.1837    0.1900     -0.0000   -0.0000
        -0.0000    0.0000     -0.0000    0.0000      2.2213    0.4038

        9.535         1.530     0.261 dielectric  constant
 
 w=     9.918     0.000
         1.2610    0.1474     -0.0000   -0.0000     -0.0000   -0.0000
        -0.0000   -0.0000      1.2610    0.1474     -0.0000   -0.0000
        -0.0000    0.0000     -0.0000    0.0000      2.2231    0.9119

        9.918         1.582     0.402 dielectric  constant
 
 w=    10.304     0.000
         1.3606    0.1488     -0.0000   -0.0000     -0.0000   -0.0000
        -0.0000   -0.0000      1.3606    0.1488     -0.0000   -0.0000
        -0.0000    0.0000     -0.0000    0.0000      1.7926    1.2924

       10.304         1.505     0.530 dielectric  constant
 
 w=    10.694     0.000
         1.4322    0.1789     -0.0000   -0.0000     -0.0000   -0.0000
        -0.0000   -0.0000      1.4322    0.1789     -0.0000   -0.0000
        -0.0000    0.0000     -0.0000    0.0000      1.3044    1.2317

       10.694         1.390     0.530 dielectric  constant
 
 w=    11.089     0.000
         1.4987    0.1916     -0.0000   -0.0000     -0.0000   -0.0000
        -0.0000   -0.0000      1.4987    0.1916     -0.0000   -0.0000
        -0.0000    0.0000     -0.0000    0.0000      1.0931    1.0051

       11.089         1.363     0.463 dielectric  constant
 
 w=    11.490     0.000
         1.5923    0.2102     -0.0000   -0.0000     -0.0000   -0.0000
        -0.0000   -0.0000      1.5923    0.2102     -0.0000   -0.0000
        -0.0000    0.0000     -0.0000    0.0000      0.9800    0.8599

       11.490         1.388     0.427 dielectric  constant
 
 w=    11.899     0.000
[...]
     18      16.6594      17.2127      -3.7358      -4.3541      -1.6338       0.8950       0.0000      -0.2165
     19      17.4594      17.9844      -3.3303      -3.9088      -1.2959       0.9075       0.0000      -0.2407
     20      17.7950      18.1278      -2.2749      -2.6373      -0.6355       0.9183       0.0000      -0.2044
     21      18.4231      18.9557      -2.6113      -3.1959      -0.6876       0.9112       0.0000      -0.2494
     22      18.7575      19.0067      -1.7653      -2.0350      -0.2643       0.9241       0.0000      -0.2301
     23      19.3074      19.5535      -2.0043      -2.2717      -0.6450       0.9205       0.0000      -0.1308
     24      19.8039      19.8912      -1.3765      -1.4706      -0.3069       0.9290       0.0000      -0.1074

 k-point  15 :       0.3333    0.1667    0.0000
  band No.  KS-energies  QP-energies   sigma(KS)   V_xc(KS)     V^pw_x(r,r')   Z            occupation Imag(sigma)

      1     -18.6756     -20.9764     -20.0762     -17.1856     -26.8758       0.7960       1.0000       1.0740
      2     -12.0640     -13.9160     -18.3053     -15.7063     -22.4280       0.7126       1.0000       0.1443
      3      -9.3212     -11.1239     -18.9403     -16.5532     -22.2636       0.7552       1.0000       0.0655
      4      -5.0823      -6.4690     -16.9236     -15.1268     -18.8567       0.7718       1.0000       0.0301
      5       1.4530       2.8952      -9.8548     -11.6605      -6.2868       0.7987       0.0000      -0.0692
      6       6.4809       7.3576      -4.8182      -5.8555      -2.2618       0.8453       0.0000      -0.0693
      7       7.7062       8.1184      -2.2070      -2.6668      -0.6021       0.8966       0.0000      -0.0698
      8       8.1029       8.7688      -4.7756      -5.5362      -2.6865       0.8755       0.0000      -0.0547
      9       8.6794       9.4945      -5.3215      -6.2659      -2.9365       0.8631       0.0000      -0.0646
     10       9.7609      10.1034      -2.7519      -3.1266      -0.9921       0.9137       0.0000      -0.1260
     11      10.6641      11.2787      -4.2852      -4.9930      -2.0434       0.8683       0.0000      -0.1174
     12      11.4743      12.1318      -3.5527      -4.2928      -1.2857       0.8882       0.0000      -0.1710
     13      11.6436      12.4374      -4.1711      -5.0945      -1.7120       0.8596       0.0000      -0.1272
     14      13.3691      13.5708      -2.3897      -2.6113      -1.0283       0.9102       0.0000      -0.0856
     15      13.4300      13.6587      -1.7089      -1.9597      -0.3934       0.9120       0.0000      -0.0925
     16      14.2691      14.8426      -3.7391      -4.3856      -1.6209       0.8873       0.0000      -0.1911
     17      14.6893      14.9047      -1.9785      -2.2141      -0.5421       0.9141       0.0000      -0.1284
     18      15.2845      16.1205      -4.6081      -5.5630      -2.0012       0.8754       0.0000      -0.2117
     19      16.0035      16.2748      -1.9749      -2.2697      -0.5097       0.9203       0.0000      -0.1581
     20      16.3217      17.1882      -4.6708      -5.6407      -1.9578       0.8934       0.0000      -0.3189
     21      17.7708      18.3166      -2.9478      -3.5485      -0.9128       0.9087       0.0000      -0.2631
     22      18.3098      18.6538      -2.0778      -2.4558      -0.4740       0.9099       0.0000      -0.2121
     23      18.4989      19.4209      -5.1769      -6.2286      -2.2317       0.8766       0.0000      -0.3377
     24      19.2218      19.3950      -1.9182      -2.1048      -0.5859       0.9280       0.0000      -0.1538

 k-point  16 :       0.4167    0.1667    0.0000
  band No.  KS-energies  QP-energies   sigma(KS)   V_xc(KS)     V^pw_x(r,r')   Z            occupation Imag(sigma)

      1     -18.3435     -20.7541     -20.2850     -17.4135     -27.0194       0.8395       1.0000       1.1076
      2     -12.5676     -14.4313     -18.0532     -15.4170     -22.2861       0.7070       1.0000       0.1657
      3      -9.4922     -11.3029     -18.9271     -16.5217     -22.3009       0.7528       1.0000       0.0674
      4      -4.5587      -5.8762     -17.4562     -15.7556     -19.3371       0.7748       1.0000       0.0240
      5       0.8191       2.1915      -9.2851     -10.9800      -5.7804       0.8097       0.0000      -0.0622
      6       7.5107       9.0190      -9.4936     -11.4103      -5.4624       0.7870       0.0000      -0.1109
      7       8.9943       9.7302      -4.2335      -5.1017      -1.7250       0.8477       0.0000      -0.0991
      8       9.0760       9.9130      -4.5255      -5.4875      -1.7525       0.8700       0.0000      -0.1876
      9       9.6828      10.4824      -4.0399      -4.9587      -1.8335       0.8703       0.0000      -0.0745
     10      10.2892      10.5799      -1.6071      -1.9265      -0.2665       0.9104       0.0000      -0.0774
     11      10.7352      10.6207      -1.2020      -1.0800      -0.4123       0.9387       0.0000      -0.0370
     12      10.9143      10.8837      -1.2551      -1.2224      -0.3945       0.9364       0.0000      -0.0360
     13      11.3672      11.5761      -2.1039      -2.3298      -0.7378       0.9246       0.0000      -0.0896
     14      12.6621      12.7847      -1.5108      -1.6440      -0.3085       0.9209       0.0000      -0.0922
     15      12.7506      13.1840      -3.3651      -3.8522      -1.5230       0.8897       0.0000      -0.1261
     16      13.4370      13.6659      -1.9908      -2.2398      -0.6691       0.9191       0.0000      -0.0741
     17      13.7612      14.0933      -2.2505      -2.6163      -0.7312       0.9078       0.0000      -0.1061
     18      15.5104      16.7936      -7.0835      -8.6027      -3.2638       0.8447       0.0000      -0.4259
     19      16.3767      16.6795      -2.2143      -2.5455      -0.6228       0.9143       0.0000      -0.1822
     20      16.4907      17.7813      -6.8610      -8.3757      -3.0551       0.8520       0.0000      -0.4231
     21      17.2539      17.5667      -2.0802      -2.4200      -0.4275       0.9206       0.0000      -0.2264
     22      17.3739      17.7702      -2.2269      -2.6625      -0.6432       0.9101       0.0000      -0.1526
     23      18.2005      18.6885      -2.9317      -3.4680      -1.0876       0.9100       0.0000      -0.1961
     24      18.6960      18.8047      -1.3877      -1.5052      -0.2772       0.9257       0.0000      -0.1051

 k-point  17 :       0.2500    0.2500    0.0000
  band No.  KS-energies  QP-energies   sigma(KS)   V_xc(KS)     V^pw_x(r,r')   Z            occupation Imag(sigma)

      1     -18.7044     -20.9905     -20.0398     -17.1536     -26.8512       0.7921       1.0000       1.0723
      2     -11.6033     -13.4338     -18.4891     -15.9438     -22.4885       0.7192       1.0000       0.1233
      3      -9.8876     -11.7317     -18.7162     -16.2476     -22.1699       0.7470       1.0000       0.0757
      4      -5.1322      -6.5256     -16.8441     -15.0383     -18.7709       0.7716       1.0000       0.0311
      5       1.7038       3.1920     -10.1180     -11.9876      -6.4684       0.7960       0.0000      -0.0734
      6       6.4036       7.1285      -3.7926      -4.6356      -1.5626       0.8599       0.0000      -0.0619
      7       7.4646       7.8883      -2.2639      -2.7372      -0.6203       0.8950       0.0000      -0.0684
      8       8.1141       8.0142      -1.2288      -1.1223      -0.4446       0.9374       0.0000      -0.0271
      9       9.4713       9.8288      -2.8310      -3.2209      -1.0444       0.9172       0.0000      -0.1237
     10       9.7481      11.1344      -8.9131     -10.6669      -5.0577       0.7905       0.0000      -0.1466
     11      10.2378      11.3465      -6.8333      -8.1639      -3.7536       0.8333       0.0000      -0.0986
     12      11.2459      11.8996      -3.5658      -4.2950      -1.3820       0.8964       0.0000      -0.1514
     13      11.6797      12.7946      -6.3022      -7.6500      -3.0983       0.8272       0.0000      -0.1324
     14      14.2122      14.5569      -2.2560      -2.6368      -0.6146       0.9052       0.0000      -0.1527
     15      14.4943      15.3453      -4.1606      -5.1181      -1.4616       0.8887       0.0000      -0.3189
     16      14.8323      15.4079      -3.2956      -3.9415      -1.2704       0.8911       0.0000      -0.1513
     17      15.3894      15.6893      -2.2149      -2.5424      -0.7270       0.9158       0.0000      -0.1407
     18      15.4171      15.7387      -1.7955      -2.1488      -0.2732       0.9104       0.0000      -0.1734
     19      16.0784      16.0169      -1.2702      -1.2050      -0.3897       0.9438       0.0000      -0.0810
     20      16.2211      16.2763      -1.2514      -1.3109      -0.2649       0.9286       0.0000      -0.0671
     21      16.4870      16.5884      -1.6150      -1.7231      -0.4512       0.9382       0.0000      -0.1302
     22      17.6817      17.8219      -1.6634      -1.8141      -0.3838       0.9303       0.0000      -0.1703
     23      17.8589      18.8100      -5.3136      -6.4013      -2.3445       0.8744       0.0000      -0.3357
     24      18.5188      18.6519      -1.5231      -1.6665      -0.2850       0.9281       0.0000      -0.1445

 k-point  18 :       0.3333    0.2500    0.0000
  band No.  KS-energies  QP-energies   sigma(KS)   V_xc(KS)     V^pw_x(r,r')   Z            occupation Imag(sigma)

      1     -18.2007     -20.5961     -20.3417     -17.4831     -27.0533       0.8380       1.0000       1.0934
      2     -12.1142     -13.9333     -18.1394     -15.5807     -22.2217       0.7110       1.0000       0.1424
      3     -10.4967     -12.3827     -18.6384     -16.0871     -22.2760       0.7392       1.0000       0.0864
      4      -4.3412      -5.6253     -17.6006     -15.9467     -19.4257       0.7764       1.0000       0.0218
      5       0.8852       2.2795      -9.4173     -11.1516      -5.8290       0.8040       0.0000      -0.0639
      6       8.2391       9.2237      -5.7557      -6.9601      -2.7275       0.8175       0.0000      -0.1140
      7       8.5267       9.4225      -4.9728      -5.9971      -2.0279       0.8746       0.0000      -0.1825
      8       9.7424      10.8197      -6.7881      -8.1049      -3.5840       0.8182       0.0000      -0.1252
      9      10.3629      10.5464      -2.4142      -2.6155      -1.0745       0.9111       0.0000      -0.0534
     10      10.3717      10.6949      -2.1174      -2.4697      -0.6677       0.9172       0.0000      -0.0869
     11      11.2196      12.2651      -5.5517      -6.7984      -2.6443       0.8386       0.0000      -0.1204
     12      12.2523      12.4934      -1.7004      -1.9646      -0.3693       0.9124       0.0000      -0.0995
     13      12.5489      12.8407      -2.6033      -2.9259      -1.1122       0.9046       0.0000      -0.0867
     14      13.0267      13.2161      -1.6127      -1.8191      -0.3983       0.9179       0.0000      -0.0801
     15      13.0315      13.1078      -1.5533      -1.6355      -0.5047       0.9296       0.0000      -0.0525
     16      13.9548      15.1262      -6.5587      -7.9552      -2.9752       0.8388       0.0000      -0.3208
     17      14.6025      15.0617      -2.8419      -3.3505      -0.9948       0.9028       0.0000      -0.1788
     18      14.7802      15.0135      -1.7728      -2.0273      -0.3950       0.9167       0.0000      -0.1412
     19      15.4778      15.6080      -1.4311      -1.5720      -0.2555       0.9240       0.0000      -0.1051
     20      15.5476      15.9297      -3.0675      -3.4840      -1.2803       0.9172       0.0000      -0.1823
     21      16.1087      16.6249      -3.3125      -3.8894      -1.3339       0.8948       0.0000      -0.1788
     22      16.5685      16.7135      -1.6932      -1.8498      -0.4205       0.9266       0.0000      -0.1346
     23      16.5997      17.1470      -3.4293      -4.0281      -1.4151       0.9138       0.0000      -0.2203
     24      17.7951      17.9393      -1.5925      -1.7482      -0.3237       0.9260       0.0000      -0.1523

 k-point  19 :       0.3333    0.3333    0.0000
  band No.  KS-energies  QP-energies   sigma(KS)   V_xc(KS)     V^pw_x(r,r')   Z            occupation Imag(sigma)

      1     -18.0089     -20.4257     -20.4758     -17.6189     -27.1452       0.8459       1.0000       1.0977
      2     -11.8913     -13.6186     -17.9929     -15.5685     -21.9430       0.7124       1.0000       0.1368
      3     -11.1855     -13.1823     -18.5927     -15.8618     -22.4649       0.7312       1.0000       0.1008
      4      -4.0224      -5.2579     -17.9927     -16.4038     -19.8024       0.7775       1.0000       0.0191
      5       0.6626       2.0379      -9.1398     -10.8444      -5.5075       0.8068       0.0000      -0.0624
      6       8.3352       9.3159      -5.6615      -6.7904      -2.4621       0.8688       0.0000      -0.1900
      7       9.2807      10.5834      -8.4905     -10.1873      -4.3886       0.7678       0.0000      -0.1941
      8      10.5695      11.5023      -5.4608      -6.5776      -2.4794       0.8353       0.0000      -0.1279
      9      11.0976      11.7804      -2.9617      -3.7413      -0.8991       0.8758       0.0000      -0.1148
     10      11.9363      12.3866      -2.0762      -2.5791      -0.4941       0.8953       0.0000      -0.1166
     11      12.3507      12.5599      -1.4176      -1.6467      -0.1591       0.9130       0.0000      -0.0909
     12      12.4370      12.4359      -1.4772      -1.4760      -0.5356       0.9288       0.0000      -0.0496
     13      12.6046      12.5434      -1.4058      -1.3404      -0.5532       0.9353       0.0000      -0.0348
     14      12.8049      12.6778      -0.9377      -0.8033      -0.2312       0.9456       0.0000      -0.0342
     15      13.0133      13.0423      -1.1888      -1.2199      -0.2767       0.9321       0.0000      -0.0439
     16      13.7818      14.1934      -3.0232      -3.4850      -1.2657       0.8912       0.0000      -0.1328
     17      13.9961      16.0841     -11.6052     -14.3177      -5.6035       0.7698       0.0000      -0.5015
     18      14.1647      14.7007      -3.8072      -4.4082      -1.8416       0.8919       0.0000      -0.1289
     19      14.3505      14.4617      -1.5790      -1.6996      -0.4037       0.9224       0.0000      -0.1081
     20      14.7866      14.8587      -1.3433      -1.4207      -0.1713       0.9321       0.0000      -0.1260
     21      15.3723      15.5793      -1.9459      -2.1673      -0.6379       0.9347       0.0000      -0.1334
     22      15.7360      15.8801      -1.5099      -1.6654      -0.3959       0.9266       0.0000      -0.0794
     23      16.6716      17.1412      -3.1999      -3.7091      -1.2332       0.9222       0.0000      -0.2362
     24      16.8361      17.4090      -3.6302      -4.2506      -1.5635       0.9234       0.0000      -0.2371


--------------------------------------------------------------------------------------------------------


  QP_SHIFT:  cpu time    1.0748: real time    1.0788
    GWLOOP:  cpu time 2058.7833: real time 2065.0353
  LATTYP: Found a hexagonal cell.
 ALAT       =     2.5104528693
 C/A-ratio  =     5.9693414622
  
  Lattice vectors:
  
 A1 = (   1.2552264347,  -2.1741126873,   0.0000000000)
 A2 = (   1.2552264347,   2.1741126873,   0.0000000000)
 A3 = (   0.0000000000,   0.0000000000,  14.9857504017)


Analysis of symmetry for initial positions (statically):
=====================================================================
 Subroutine PRICEL returns:
 Original cell was already a primitive cell.
 

 Routine SETGRP: Setting up the symmetry group for a 
 hexagonal supercell.


 Subroutine GETGRP returns: Found 12 space group operations
 (whereof  6 operations were pure point group operations)
 out of a pool of 24 trial point group operations.


The static configuration has the point symmetry C_3v.
 The point group associated with its full space group is D_3h.


Analysis of symmetry for dynamics (positions and initial velocities):
=====================================================================
 Subroutine PRICEL returns:
 Original cell was already a primitive cell.
 

 Routine SETGRP: Setting up the symmetry group for a 
 hexagonal supercell.


 Subroutine GETGRP returns: Found 12 space group operations
 (whereof  6 operations were pure point group operations)
 out of a pool of 24 trial point group operations.


The dynamic configuration has the point symmetry C_3v.
 The point group associated with its full space group is D_3h.


Analysis of constrained symmetry for selective dynamics:
=====================================================================
 Subroutine PRICEL returns:
 Original cell was already a primitive cell.
 

 Routine SETGRP: Setting up the symmetry group for a 
 hexagonal supercell.


 Subroutine GETGRP returns: Found 12 space group operations
 (whereof  6 operations were pure point group operations)
 out of a pool of 24 trial point group operations.


The constrained configuration has the point symmetry C_3v.
 The point group associated with its full space group is D_3h.


Analysis of structural, dynamic, and magnetic symmetry:
=====================================================================
 Subroutine PRICEL returns:
 Original cell was already a primitive cell.
 

 Routine SETGRP: Setting up the symmetry group for a 
 hexagonal supercell.


 Subroutine GETGRP returns: Found 12 space group operations
 (whereof  6 operations were pure point group operations)
 out of a pool of 24 trial point group operations.


The magnetic configuration has the point symmetry C_3v.
 The point group associated with its full space group is D_3h.


 Subroutine INISYM returns: Found 12 space group operations
 (whereof  6 operations are pure point group operations),
 and found     1 'primitive' translations

    --------------------------------------------
   GWTOTAL:  cpu time 2060.0965: real time 2069.4793
 vacuum level on the upper side and lower side of the slab         1.800         1.797
    4ORBIT:  cpu time    0.0000: real time    0.0000
 


 total charge     
 
# of ion       s       p       d       tot
------------------------------------------
    1        0.702   1.307   0.000   2.009
    2        1.183   2.703   0.000   3.886
--------------------------------------------------
tot          1.884   4.010   0.000   5.895
 


 magnetization (x)
 
# of ion       s       p       d       tot
------------------------------------------
    1       -0.000  -0.000   0.000  -0.000
    2        0.000   0.000   0.000   0.000
--------------------------------------------------
tot          0.000   0.000   0.000   0.000
 

 total amount of memory used by VASP MPI-rank0    79806. kBytes
=======================================================================

   base      :      30000. kBytes
   nonl-proj :       7628. kBytes
   fftplans  :       1927. kBytes
   grid      :       9719. kBytes
   one-center:         12. kBytes
   HF        :         18. kBytes
   nonlr-proj:        151. kBytes
   wavefun   :      30351. kBytes
   2eintegral:          0. kBytes
   response  :          0. kBytes
 
  
  
 General timing and accounting informations for this job:
 ========================================================
  
                  Total CPU time used (sec):     2072.051
                            User time (sec):     2062.993
                          System time (sec):        9.058
                         Elapsed time (sec):     2082.933
  
                   Maximum memory used (kb):     2264640.
                   Average memory used (kb):           0.
  
                          Minor page faults:       426380
                          Major page faults:            0
                 Voluntary context switches:         1799
