Job started on c491-081.stampede2.tacc.utexas.edu at Fri May 21 20:03:20 CDT 2021
TACC:  Starting up job 7740875 
TACC:  Starting parallel tasks... 
 running on   48 total cores
 distrk:  each k-point on   48 cores,    1 groups
 distr:  one band on   12 cores,    4 groups
 using from now: INCAR     
 vasp.5.4.4.18Apr17-6-g9f103f2a35 (build May 01 2020 14:57:12) complex          
  
 POSCAR found type information on POSCAR  C  F  O 
 POSCAR found :  3 types and      25 ions
 scaLAPACK will be used

 ----------------------------------------------------------------------------- 
|                                                                             |
|  ADVICE TO THIS USER RUNNING 'VASP/VAMP'   (HEAR YOUR MASTER'S VOICE ...):  |
|                                                                             |
|      You have switched on vdW-DFT.                                          |
|      This routine was written and supplied by Jiri Klimes.                  |
|      We recommed that you carefully read and cite the following             |
|      publication                                                            |
|      J. Klimes, D.R. Bowler, A. Michelides                                  |
|        J. Phys.: Cond Matt. 22 022201 (2010)                                |
|      J. Klimes, D.R. Bowler, A. Michelides                                  |
|        Phys. Rev. B. 83, 195131 (2011)                                      |
|      and references therein.                                                |
|                                                                             |
 ----------------------------------------------------------------------------- 

 LDA part: xc-table for Pade appr. of Perdew
 found WAVECAR, reading the header
 POSCAR, INCAR and KPOINTS ok, starting setup
 FFT: planning ...
 reading WAVECAR
 the WAVECAR file was read successfully
 initial charge from wavefunction
 entering main loop
       N       E                     dE             d eps       ncg     rms          rms(c)
SOL:   1  -0.16287E+01    0.00000E+00   -0.16287E+01   113
  FERMI_SHIFT =   2.651894739186250E-002
Total rVV10 correction in eV:      3.9673682   150.3853671
DAV:   1    -0.182303304021E+03   -0.18230E+03   -0.88078E-01   576   0.813E+00    0.666E-01
SOL:   2  -0.16555E+01    0.00000E+00   -0.16555E+01    93
  FERMI_SHIFT =   2.651893183754724E-002
Total rVV10 correction in eV:      3.9677860   150.3897187
RMM:   2    -0.182309569718E+03   -0.62657E-02   -0.22367E-01   416   0.133E+00    0.380E-01
SOL:   3  -0.16847E+01    0.00000E+00   -0.16847E+01    92
  FERMI_SHIFT =   2.651893183751268E-002
Total rVV10 correction in eV:      3.9680398   150.3924483
RMM:   3    -0.182307340491E+03    0.22292E-02   -0.21827E-02   428   0.326E-01    0.241E-01
SOL:   4  -0.17106E+01    0.00000E+00   -0.17106E+01    90
  FERMI_SHIFT =   2.651893183744082E-002
Total rVV10 correction in eV:      3.9681580   150.3951732
RMM:   4    -0.182305541230E+03    0.17993E-02   -0.42986E-03   420   0.174E-01    0.128E-01
SOL:   5  -0.17527E+01    0.00000E+00   -0.17527E+01    92
  FERMI_SHIFT =   2.651893219680439E-002
Total rVV10 correction in eV:      3.9684096   150.3999004
RMM:   5    -0.182303120759E+03    0.24205E-02   -0.40164E-03   416   0.212E-01    0.657E-02
SOL:   6  -0.17748E+01    0.00000E+00   -0.17748E+01    90
  FERMI_SHIFT =   2.652010596267897E-002
Total rVV10 correction in eV:      3.9685212   150.4006695
RMM:   6    -0.182303607023E+03   -0.48626E-03   -0.24691E-03   408   0.971E-02    0.777E-02
SOL:   7  -0.18109E+01    0.00000E+00   -0.18109E+01    91
  FERMI_SHIFT =   2.651893346192884E-002
Total rVV10 correction in eV:      3.9685976   150.4016931
RMM:   7    -0.182303924860E+03   -0.31784E-03   -0.13623E-03   416   0.977E-02    0.324E-02
SOL:   8  -0.18185E+01    0.00000E+00   -0.18185E+01    84
  FERMI_SHIFT =   2.651893346194359E-002
Total rVV10 correction in eV:      3.9686037   150.4003559
RMM:   8    -0.182304384134E+03   -0.45927E-03   -0.34916E-04   383   0.606E-02    0.311E-02
SOL:   9  -0.18402E+01    0.00000E+00   -0.18402E+01    88
  FERMI_SHIFT =   2.651893346194693E-002
Total rVV10 correction in eV:      3.9686475   150.3979617
RMM:   9    -0.182305766705E+03   -0.13826E-02   -0.95363E-04   394   0.878E-02    0.114E-02
SOL:  10  -0.18467E+01    0.00000E+00   -0.18467E+01    81
  FERMI_SHIFT =   2.651893346193918E-002
Total rVV10 correction in eV:      3.9686306   150.3948980
RMM:  10    -0.182306995058E+03   -0.12284E-02   -0.65416E-04   383   0.744E-02    0.120E-02
SOL:  11  -0.18495E+01    0.00000E+00   -0.18495E+01    78
  FERMI_SHIFT =   2.652010596269339E-002
Total rVV10 correction in eV:      3.9686123   150.3931000
RMM:  11    -0.182307424695E+03   -0.42964E-03   -0.24716E-04   347   0.516E-02    0.522E-03
SOL:  12  -0.18504E+01    0.00000E+00   -0.18504E+01    78
  FERMI_SHIFT =   2.651905137193147E-002
Total rVV10 correction in eV:      3.9685899   150.3909123
RMM:  12    -0.182307822149E+03   -0.39745E-03   -0.17364E-04   333   0.488E-02    0.382E-03
SOL:  13  -0.18510E+01    0.00000E+00   -0.18510E+01    78
  FERMI_SHIFT =   2.651905977220927E-002
Total rVV10 correction in eV:      3.9685667   150.3889372
RMM:  13    -0.182308142766E+03   -0.32062E-03   -0.12236E-04   322   0.410E-02    0.332E-03
SOL:  14  -0.18512E+01    0.00000E+00   -0.18512E+01    73
  FERMI_SHIFT =   2.651905977220666E-002
Total rVV10 correction in eV:      3.9685594   150.3881934
RMM:  14    -0.182308226952E+03   -0.84185E-04   -0.28675E-05   282   0.216E-02    0.129E-03
SOL:  15  -0.18513E+01    0.00000E+00   -0.18513E+01    73
  FERMI_SHIFT =   2.652000420844761E-002
Total rVV10 correction in eV:      3.9685439   150.3871749
RMM:  15    -0.182308334788E+03   -0.10784E-03   -0.18164E-05   278   0.210E-02    0.197E-03
SOL:  16  -0.18512E+01    0.00000E+00   -0.18512E+01    68
  FERMI_SHIFT =   2.652000838979184E-002
Total rVV10 correction in eV:      3.9685332   150.3866432
RMM:  16    -0.182308380655E+03   -0.45867E-04   -0.10480E-05   272   0.172E-02    0.674E-04
SOL:  17  -0.18512E+01    0.00000E+00   -0.18512E+01    65
  FERMI_SHIFT =   2.652000838979157E-002
Total rVV10 correction in eV:      3.9685277   150.3863670
RMM:  17    -0.182308400530E+03   -0.19875E-04   -0.60290E-06   266   0.143E-02    0.583E-04
SOL:  18  -0.18512E+01    0.00000E+00   -0.18512E+01    67
  FERMI_SHIFT =   2.651903918875004E-002
Total rVV10 correction in eV:      3.9685174   150.3858567
RMM:  18    -0.182308433216E+03   -0.32687E-04   -0.55661E-06   266   0.139E-02    0.539E-04
SOL:  19  -0.18512E+01    0.00000E+00   -0.18512E+01    60
  FERMI_SHIFT =   2.651903445242471E-002
Total rVV10 correction in eV:      3.9685152   150.3857512
RMM:  19    -0.182308439156E+03   -0.59394E-05   -0.38133E-06   266   0.116E-02
Total rVV10 correction in eV:      3.9685062   150.3853672
SOL:  20  -0.18512E+01    0.00000E+00   -0.18512E+01    57
  FERMI_SHIFT =   2.651903445242210E-002
Total rVV10 correction in eV:      3.9685134   150.3856619
   1 F= -.18230844E+03 E0= -.18230844E+03  d E =-.182308E+03  mag=     0.0000
 curvature:   0.00 expect dE= 0.000E+00 dE for cont linesearch  0.000E+00
 trial: gam= 0.00000 g(F)=  0.828E-01 g(S)=  0.000E+00 ort = 0.000E+00 (trialstep = 0.100E+01)
 search vector abs. value=  0.828E-01
 bond charge predicted
       N       E                     dE             d eps       ncg     rms          rms(c)
SOL:  21  -0.18505E+01    0.00000E+00   -0.18505E+01    94
  FERMI_SHIFT =   2.651888545614144E-002
Total rVV10 correction in eV:      3.9683010   150.3857164
DAV:   1    -0.182256822781E+03    0.51610E-01   -0.13567E+01   544   0.134E+01    0.729E-01
SOL:  22  -0.18673E+01    0.00000E+00   -0.18673E+01    90
  FERMI_SHIFT =   2.652032390667969E-002
Total rVV10 correction in eV:      3.9684904   150.3924716
RMM:   2    -0.182294013259E+03   -0.37190E-01   -0.35880E-01   416   0.213E+00    0.469E-01
SOL:  23  -0.18788E+01    0.00000E+00   -0.18788E+01    88
  FERMI_SHIFT =   2.652033486236678E-002
Total rVV10 correction in eV:      3.9684656   150.3925700
RMM:   3    -0.182292977601E+03    0.10357E-02   -0.13615E-02   426   0.317E-01    0.332E-01
SOL:  24  -0.19041E+01    0.00000E+00   -0.19041E+01    92
  FERMI_SHIFT =   2.651871379229034E-002
Total rVV10 correction in eV:      3.9684245   150.3917746
RMM:   4    -0.182294079451E+03   -0.11018E-02   -0.79595E-03   416   0.320E-01    0.564E-02
SOL:  25  -0.19089E+01    0.00000E+00   -0.19089E+01    86
  FERMI_SHIFT =   2.652032390775787E-002
Total rVV10 correction in eV:      3.9684534   150.3919659
RMM:   5    -0.182294197936E+03   -0.11849E-03   -0.33846E-04   398   0.618E-02    0.335E-02
SOL:  26  -0.19185E+01    0.00000E+00   -0.19185E+01    88
  FERMI_SHIFT =   2.652032390775702E-002
Total rVV10 correction in eV:      3.9684980   150.3921603
RMM:   6    -0.182294465026E+03   -0.26709E-03   -0.53924E-04   408   0.588E-02    0.203E-02
SOL:  27  -0.19211E+01    0.00000E+00   -0.19211E+01    81
  FERMI_SHIFT =   2.651871379227924E-002
Total rVV10 correction in eV:      3.9684941   150.3919820
RMM:   7    -0.182294611382E+03   -0.14636E-03   -0.76875E-05   349   0.345E-02    0.120E-02
SOL:  28  -0.19324E+01    0.00000E+00   -0.19324E+01    86
  FERMI_SHIFT =   2.651871379227327E-002
Total rVV10 correction in eV:      3.9685172   150.3913662
RMM:   8    -0.182295163038E+03   -0.55166E-03   -0.21742E-04   374   0.473E-02    0.740E-03
SOL:  29  -0.19358E+01    0.00000E+00   -0.19358E+01    80
  FERMI_SHIFT =   2.651871379227970E-002
Total rVV10 correction in eV:      3.9685241   150.3907885
RMM:   9    -0.182295338667E+03   -0.17563E-03   -0.11554E-04   315   0.424E-02    0.557E-03
SOL:  30  -0.19424E+01    0.00000E+00   -0.19424E+01    83
  FERMI_SHIFT =   2.651871379227214E-002
Total rVV10 correction in eV:      3.9685307   150.3894193
RMM:  10    -0.182295766172E+03   -0.42750E-03   -0.21154E-04   357   0.502E-02    0.404E-03
SOL:  31  -0.19446E+01    0.00000E+00   -0.19446E+01    76
  FERMI_SHIFT =   2.651871379227924E-002
Total rVV10 correction in eV:      3.9685266   150.3887245
RMM:  11    -0.182295895955E+03   -0.12978E-03   -0.99137E-05   313   0.387E-02    0.249E-03
SOL:  32  -0.19455E+01    0.00000E+00   -0.19455E+01    74
  FERMI_SHIFT =   2.651871379227561E-002
Total rVV10 correction in eV:      3.9685158   150.3878438
RMM:  12    -0.182296062195E+03   -0.16624E-03   -0.51428E-05   283   0.268E-02    0.200E-03
SOL:  33  -0.19463E+01    0.00000E+00   -0.19463E+01    73
  FERMI_SHIFT =   2.652032812668091E-002
Total rVV10 correction in eV:      3.9685072   150.3870735
RMM:  13    -0.182296166466E+03   -0.10427E-03   -0.30281E-05   279   0.219E-02    0.957E-04
SOL:  34  -0.19464E+01    0.00000E+00   -0.19464E+01    72
  FERMI_SHIFT =   2.652033120525188E-002
Total rVV10 correction in eV:      3.9684983   150.3865373
RMM:  14    -0.182296219516E+03   -0.53050E-04   -0.16509E-05   275   0.191E-02    0.914E-04
SOL:  35  -0.19464E+01    0.00000E+00   -0.19464E+01    69
  FERMI_SHIFT =   2.652034130180063E-002
Total rVV10 correction in eV:      3.9684910   150.3862040
RMM:  15    -0.182296249262E+03   -0.29745E-04   -0.10473E-05   272   0.167E-02    0.434E-04
SOL:  36  -0.19464E+01    0.00000E+00   -0.19464E+01    67
  FERMI_SHIFT =   2.651868659533610E-002
Total rVV10 correction in eV:      3.9684845   150.3859323
RMM:  16    -0.182296267991E+03   -0.18729E-04   -0.54984E-06   268   0.128E-02    0.610E-04
SOL:  37  -0.19463E+01    0.00000E+00   -0.19463E+01    65
  FERMI_SHIFT =   2.652035161320992E-002
Total rVV10 correction in eV:      3.9684803   150.3857347
RMM:  17    -0.182296280126E+03   -0.12135E-04   -0.39445E-06   266   0.115E-02    0.355E-04
SOL:  38  -0.19463E+01    0.00000E+00   -0.19463E+01    60
  FERMI_SHIFT =   2.652035161320559E-002
Total rVV10 correction in eV:      3.9684791   150.3856695
RMM:  18    -0.182296283743E+03   -0.36172E-05   -0.30200E-06   266   0.102E-02
Total rVV10 correction in eV:      3.9684717   150.3853672
SOL:  39  -0.19463E+01    0.00000E+00   -0.19463E+01    62
  FERMI_SHIFT =   2.652012030031800E-002
Total rVV10 correction in eV:      3.9684765   150.3855461
   2 F= -.18229628E+03 E0= -.18229628E+03  d E =0.121554E-01  mag=     0.0000
 trial-energy change:    0.012155  1 .order    0.012635   -0.082760    0.108031
 step:   0.4375(harm=  0.4338)  dis= 0.01359  next Energy=  -182.326583 (dE=-0.181E-01)
 bond charge predicted
       N       E                     dE             d eps       ncg     rms          rms(c)
SOL:  40  -0.19468E+01    0.00000E+00   -0.19468E+01    91
  FERMI_SHIFT =   2.651900163337442E-002
Total rVV10 correction in eV:      3.9686111   150.3855736
DAV:   1    -0.182313836416E+03   -0.17556E-01   -0.42783E+00   512   0.754E+00    0.414E-01
SOL:  41  -0.19374E+01    0.00000E+00   -0.19374E+01    88
  FERMI_SHIFT =   2.652023800567080E-002
Total rVV10 correction in eV:      3.9686901   150.3893521
RMM:   2    -0.182325561342E+03   -0.11725E-01   -0.12098E-01   416   0.123E+00    0.261E-01
SOL:  42  -0.19307E+01    0.00000E+00   -0.19307E+01    86
  FERMI_SHIFT =   2.651880165025508E-002
Total rVV10 correction in eV:      3.9686829   150.3893203
RMM:   3    -0.182325426012E+03    0.13533E-03   -0.52121E-03   426   0.195E-01    0.182E-01
SOL:  43  -0.19162E+01    0.00000E+00   -0.19162E+01    89
  FERMI_SHIFT =   2.652023253128813E-002
Total rVV10 correction in eV:      3.9686066   150.3887494
RMM:   4    -0.182325845432E+03   -0.41942E-03   -0.25348E-03   416   0.183E-01    0.313E-02
SOL:  44  -0.19135E+01    0.00000E+00   -0.19135E+01    83
  FERMI_SHIFT =   2.651880486266818E-002
Total rVV10 correction in eV:      3.9685900   150.3888320
RMM:   5    -0.182325854674E+03   -0.92420E-05   -0.11528E-04   386   0.399E-02    0.183E-02
SOL:  45  -0.19083E+01    0.00000E+00   -0.19083E+01    85
  FERMI_SHIFT =   2.651881138405307E-002
Total rVV10 correction in eV:      3.9685693   150.3889305
RMM:   6    -0.182325936439E+03   -0.81765E-04   -0.14689E-04   388   0.354E-02    0.107E-02
SOL:  46  -0.19063E+01    0.00000E+00   -0.19063E+01    80
  FERMI_SHIFT =   2.652023023128011E-002
Total rVV10 correction in eV:      3.9685714   150.3888286
RMM:   7    -0.182325989404E+03   -0.52966E-04   -0.28214E-05   291   0.250E-02    0.660E-03
SOL:  47  -0.18998E+01    0.00000E+00   -0.18998E+01    84
  FERMI_SHIFT =   2.651881138404745E-002
Total rVV10 correction in eV:      3.9685561   150.3884883
RMM:   8    -0.182326161568E+03   -0.17216E-03   -0.57501E-05   331   0.306E-02    0.429E-03
SOL:  48  -0.18985E+01    0.00000E+00   -0.18985E+01    75
  FERMI_SHIFT =   2.651881138405164E-002
Total rVV10 correction in eV:      3.9685488   150.3881989
RMM:   9    -0.182326233201E+03   -0.71634E-04   -0.28531E-05   289   0.274E-02    0.311E-03
SOL:  49  -0.18949E+01    0.00000E+00   -0.18949E+01    80
  FERMI_SHIFT =   2.651881138405367E-002
Total rVV10 correction in eV:      3.9685330   150.3874456
RMM:  10    -0.182326382030E+03   -0.14883E-03   -0.52139E-05   325   0.321E-02    0.244E-03
SOL:  50  -0.18937E+01    0.00000E+00   -0.18937E+01    74
  FERMI_SHIFT =   2.651881138405063E-002
Total rVV10 correction in eV:      3.9685291   150.3871369
RMM:  11    -0.182326428788E+03   -0.46758E-04   -0.29981E-05   292   0.262E-02    0.153E-03
SOL:  51  -0.18932E+01    0.00000E+00   -0.18932E+01    71
  FERMI_SHIFT =   2.651881138404905E-002
Total rVV10 correction in eV:      3.9685239   150.3866269
RMM:  12    -0.182326494498E+03   -0.65709E-04   -0.13415E-05   272   0.181E-02    0.139E-03
SOL:  52  -0.18928E+01    0.00000E+00   -0.18928E+01    70
  FERMI_SHIFT =   2.652023023128525E-002
Total rVV10 correction in eV:      3.9685172   150.3862750
RMM:  13    -0.182326533940E+03   -0.39442E-04   -0.11006E-05   272   0.170E-02    0.628E-04
SOL:  53  -0.18927E+01    0.00000E+00   -0.18927E+01    67
  FERMI_SHIFT =   2.652023253128621E-002
Total rVV10 correction in eV:      3.9685130   150.3860502
RMM:  14    -0.182326555557E+03   -0.21617E-04   -0.80161E-06   270   0.161E-02    0.730E-04
SOL:  54  -0.18927E+01    0.00000E+00   -0.18927E+01    69
  FERMI_SHIFT =   2.651879622721004E-002
Total rVV10 correction in eV:      3.9685089   150.3857930
RMM:  15    -0.182326577570E+03   -0.22013E-04   -0.63410E-06   268   0.143E-02    0.303E-04
SOL:  55  -0.18927E+01    0.00000E+00   -0.18927E+01    63
  FERMI_SHIFT =   2.652024865445247E-002
Total rVV10 correction in eV:      3.9685073   150.3856858
RMM:  16    -0.182326585300E+03   -0.77299E-05   -0.40936E-06   266   0.119E-02
Total rVV10 correction in eV:      3.9684981   150.3853673
SOL:  56  -0.18927E+01    0.00000E+00   -0.18927E+01    63
  FERMI_SHIFT =   2.652024865445077E-002
Total rVV10 correction in eV:      3.9685044   150.3855576
   3 F= -.18232659E+03 E0= -.18232659E+03  d E =-.181461E-01  mag=    -0.0000
 curvature:  -0.22 expect dE=-0.871E-02 dE for cont linesearch -0.632E-07
 trial: gam= 0.48348 g(F)=  0.402E-01 g(S)=  0.000E+00 ort = 0.155E-03 (trialstep = 0.887E+00)
 search vector abs. value=  0.597E-01
 bond charge predicted
       N       E                     dE             d eps       ncg     rms          rms(c)
SOL:  57  -0.18982E+01    0.00000E+00   -0.18982E+01    95
  FERMI_SHIFT =   2.652008171425202E-002
Total rVV10 correction in eV:      3.9684302   150.3856062
DAV:   1    -0.182297850233E+03    0.28727E-01   -0.10125E+01   448   0.115E+01    0.692E-01
SOL:  58  -0.19026E+01    0.00000E+00   -0.19026E+01    90
  FERMI_SHIFT =   2.651894857421418E-002
Total rVV10 correction in eV:      3.9686650   150.3914357
RMM:   2    -0.182329431733E+03   -0.31581E-01   -0.29275E-01   416   0.182E+00    0.367E-01
SOL:  59  -0.19056E+01    0.00000E+00   -0.19056E+01    86
  FERMI_SHIFT =   2.651894714976130E-002
Total rVV10 correction in eV:      3.9686731   150.3908340
RMM:   3    -0.182328216585E+03    0.12151E-02   -0.12310E-02   424   0.268E-01    0.256E-01
SOL:  60  -0.19123E+01    0.00000E+00   -0.19123E+01    89
  FERMI_SHIFT =   2.651914827809883E-002
Total rVV10 correction in eV:      3.9686282   150.3882144
RMM:   4    -0.182329303186E+03   -0.10866E-02   -0.51332E-03   416   0.218E-01    0.642E-02
SOL:  61  -0.19168E+01    0.00000E+00   -0.19168E+01    83
  FERMI_SHIFT =   2.651913902494620E-002
Total rVV10 correction in eV:      3.9686416   150.3879002
RMM:   5    -0.182329428921E+03   -0.12573E-03   -0.45874E-04   408   0.686E-02    0.267E-02
SOL:  62  -0.19204E+01    0.00000E+00   -0.19204E+01    82
  FERMI_SHIFT =   2.651913902493808E-002
Total rVV10 correction in eV:      3.9686476   150.3878692
RMM:   6    -0.182329423044E+03    0.58773E-05   -0.14943E-04   354   0.329E-02    0.180E-02
SOL:  63  -0.19244E+01    0.00000E+00   -0.19244E+01    83
  FERMI_SHIFT =   2.651991994897313E-002
Total rVV10 correction in eV:      3.9686464   150.3877748
RMM:   7    -0.182329449375E+03   -0.26331E-04   -0.74328E-05   320   0.336E-02    0.824E-03
SOL:  64  -0.19268E+01    0.00000E+00   -0.19268E+01    78
  FERMI_SHIFT =   2.651992567496839E-002
Total rVV10 correction in eV:      3.9686488   150.3876197
RMM:   8    -0.182329502862E+03   -0.53487E-04   -0.33573E-05   284   0.260E-02    0.355E-03
SOL:  65  -0.19306E+01    0.00000E+00   -0.19306E+01    80
  FERMI_SHIFT =   2.651894714932446E-002
Total rVV10 correction in eV:      3.9686483   150.3873020
RMM:   9    -0.182329608858E+03   -0.10600E-03   -0.45031E-05   301   0.287E-02    0.340E-03
SOL:  66  -0.19331E+01    0.00000E+00   -0.19331E+01    78
  FERMI_SHIFT =   2.651894714932055E-002
Total rVV10 correction in eV:      3.9686430   150.3869697
RMM:  10    -0.182329682250E+03   -0.73392E-04   -0.46848E-05   309   0.319E-02    0.217E-03
SOL:  67  -0.19350E+01    0.00000E+00   -0.19350E+01    75
  FERMI_SHIFT =   2.651894714932244E-002
Total rVV10 correction in eV:      3.9686376   150.3866408
RMM:  11    -0.182329734053E+03   -0.51803E-04   -0.42440E-05   301   0.317E-02    0.157E-03
SOL:  68  -0.19358E+01    0.00000E+00   -0.19358E+01    70
  FERMI_SHIFT =   2.651894537145803E-002
Total rVV10 correction in eV:      3.9686329   150.3863771
RMM:  12    -0.182329770490E+03   -0.36437E-04   -0.20660E-05   280   0.227E-02    0.776E-04
SOL:  69  -0.19360E+01    0.00000E+00   -0.19360E+01    69
  FERMI_SHIFT =   2.652009950489813E-002
Total rVV10 correction in eV:      3.9686272   150.3861213
RMM:  13    -0.182329799734E+03   -0.29244E-04   -0.12122E-05   273   0.182E-02    0.475E-04
SOL:  70  -0.19361E+01    0.00000E+00   -0.19361E+01    67
  FERMI_SHIFT =   2.651915633151782E-002
Total rVV10 correction in eV:      3.9686223   150.3859159
RMM:  14    -0.182329821009E+03   -0.21276E-04   -0.10057E-05   272   0.171E-02    0.374E-04
SOL:  71  -0.19362E+01    0.00000E+00   -0.19362E+01    67
  FERMI_SHIFT =   2.651916504533569E-002
Total rVV10 correction in eV:      3.9686171   150.3857118
RMM:  15    -0.182329838278E+03   -0.17269E-04   -0.60501E-06   268   0.139E-02    0.247E-04
SOL:  72  -0.19362E+01    0.00000E+00   -0.19362E+01    62
  FERMI_SHIFT =   2.651990439500169E-002
Total rVV10 correction in eV:      3.9686147   150.3856184
RMM:  16    -0.182329844719E+03   -0.64409E-05   -0.41444E-06   266   0.118E-02
Total rVV10 correction in eV:      3.9686083   150.3853673
SOL:  73  -0.19362E+01    0.00000E+00   -0.19362E+01    59
  FERMI_SHIFT =   2.651914827802916E-002
Total rVV10 correction in eV:      3.9686131   150.3855532
   4 F= -.18232984E+03 E0= -.18232984E+03  d E =-.325942E-02  mag=    -0.0000
 trial-energy change:   -0.003259  1 .order   -0.002976   -0.035716    0.029763
 step:   0.4898(harm=  0.4841)  dis= 0.00976  next Energy=  -182.336488 (dE=-0.990E-02)
 bond charge predicted
       N       E                     dE             d eps       ncg     rms          rms(c)
SOL:  74  -0.19337E+01    0.00000E+00   -0.19337E+01    91
  FERMI_SHIFT =   2.651906060166419E-002
Total rVV10 correction in eV:      3.9686506   150.3855713
DAV:   1    -0.182332191833E+03   -0.23536E-02   -0.20292E+00   464   0.514E+00    0.312E-01
SOL:  75  -0.19316E+01    0.00000E+00   -0.19316E+01    86
  FERMI_SHIFT =   2.651887000111964E-002
Total rVV10 correction in eV:      3.9686803   150.3880580
RMM:   2    -0.182335992460E+03   -0.38006E-02   -0.58165E-02   416   0.825E-01    0.164E-01
SOL:  76  -0.19302E+01    0.00000E+00   -0.19302E+01    82
  FERMI_SHIFT =   2.652017243362852E-002
Total rVV10 correction in eV:      3.9686597   150.3878824
RMM:   3    -0.182335801511E+03    0.19095E-03   -0.25423E-03   424   0.122E-01    0.115E-01
SOL:  77  -0.19273E+01    0.00000E+00   -0.19273E+01    85
  FERMI_SHIFT =   2.652017442242273E-002
Total rVV10 correction in eV:      3.9686081   150.3868569
RMM:   4    -0.182336360721E+03   -0.55921E-03   -0.11711E-03   416   0.108E-01    0.311E-02
SOL:  78  -0.19253E+01    0.00000E+00   -0.19253E+01    80
  FERMI_SHIFT =   2.651886845786926E-002
Total rVV10 correction in eV:      3.9685908   150.3867392
RMM:   5    -0.182336390534E+03   -0.29812E-04   -0.10725E-04   348   0.367E-02    0.128E-02
SOL:  79  -0.19236E+01    0.00000E+00   -0.19236E+01    79
  FERMI_SHIFT =   2.652017243343290E-002
Total rVV10 correction in eV:      3.9685861   150.3867090
RMM:   6    -0.182336391467E+03   -0.93307E-06   -0.43474E-05   306   0.202E-02
Total rVV10 correction in eV:      3.9685671   150.3853674
SOL:  80  -0.19219E+01    0.00000E+00   -0.19219E+01    79
  FERMI_SHIFT =   2.651887000218141E-002
Total rVV10 correction in eV:      3.9685860   150.3866336
   5 F= -.18233639E+03 E0= -.18233639E+03  d E =-.980617E-02  mag=    -0.0000
 curvature:  -0.36 expect dE=-0.287E-02 dE for cont linesearch -0.238E-06
 trial: gam= 0.19788 g(F)=  0.800E-02 g(S)=  0.000E+00 ort = 0.199E-03 (trialstep = 0.808E+00)
 search vector abs. value=  0.104E-01
 bond charge predicted
       N       E                     dE             d eps       ncg     rms          rms(c)
SOL:  81  -0.19217E+01    0.00000E+00   -0.19217E+01    89
  FERMI_SHIFT =   2.651888058539760E-002
Total rVV10 correction in eV:      3.9686585   150.3866404
DAV:   1    -0.182329720371E+03    0.66702E-02   -0.15498E+00   464   0.475E+00    0.265E-01
SOL:  82  -0.19225E+01    0.00000E+00   -0.19225E+01    85
  FERMI_SHIFT =   2.652016081704432E-002
Total rVV10 correction in eV:      3.9686676   150.3886972
RMM:   2    -0.182335780865E+03   -0.60605E-02   -0.53498E-02   416   0.815E-01    0.169E-01
SOL:  83  -0.19230E+01    0.00000E+00   -0.19230E+01    84
  FERMI_SHIFT =   2.652016081657955E-002
Total rVV10 correction in eV:      3.9686523   150.3885136
RMM:   3    -0.182335581969E+03    0.19890E-03   -0.17586E-03   429   0.116E-01    0.120E-01
SOL:  84  -0.19238E+01    0.00000E+00   -0.19238E+01    87
  FERMI_SHIFT =   2.651888058854352E-002
Total rVV10 correction in eV:      3.9685995   150.3875275
RMM:   4    -0.182335871540E+03   -0.28957E-03   -0.98298E-04   416   0.114E-01    0.247E-02
SOL:  85  -0.19238E+01    0.00000E+00   -0.19238E+01    82
  FERMI_SHIFT =   2.652016027902183E-002
Total rVV10 correction in eV:      3.9685856   150.3875158
RMM:   5    -0.182335879941E+03   -0.84016E-05   -0.71920E-05   367   0.360E-02
Total rVV10 correction in eV:      3.9685631   150.3853674
SOL:  86  -0.19239E+01    0.00000E+00   -0.19239E+01    81
  FERMI_SHIFT =   2.651887972588010E-002
Total rVV10 correction in eV:      3.9685820   150.3875042
   6 F= -.18233588E+03 E0= -.18233588E+03  d E =0.511525E-03  mag=     0.0000
 trial-energy change:    0.000512  1 .order    0.000263   -0.006499    0.007025
 step:   0.3662(harm=  0.3882)  dis= 0.00282  next Energy=  -182.337841 (dE=-0.145E-02)
 bond charge predicted
       N       E                     dE             d eps       ncg     rms          rms(c)
SOL:  87  -0.19240E+01    0.00000E+00   -0.19240E+01    86
  FERMI_SHIFT =   2.651887507605222E-002
Total rVV10 correction in eV:      3.9685431   150.3875057
DAV:   1    -0.182335765305E+03    0.10623E-03   -0.46223E-01   480   0.259E+00    0.145E-01
SOL:  88  -0.19233E+01    0.00000E+00   -0.19233E+01    83
  FERMI_SHIFT =   2.652016325662337E-002
Total rVV10 correction in eV:      3.9685951   150.3881884
RMM:   2    -0.182337550978E+03   -0.17857E-02   -0.15809E-02   416   0.446E-01    0.913E-02
SOL:  89  -0.19228E+01    0.00000E+00   -0.19228E+01    80
  FERMI_SHIFT =   2.651887560962585E-002
Total rVV10 correction in eV:      3.9685930   150.3878112
RMM:   3    -0.182337591032E+03   -0.40054E-04   -0.50152E-04   412   0.659E-02    0.637E-02
SOL:  90  -0.19219E+01    0.00000E+00   -0.19219E+01    83
  FERMI_SHIFT =   2.651887560957911E-002
Total rVV10 correction in eV:      3.9685756   150.3865379
RMM:   4    -0.182337949794E+03   -0.35876E-03   -0.33848E-04   416   0.713E-02    0.131E-02
SOL:  91  -0.19218E+01    0.00000E+00   -0.19218E+01    76
  FERMI_SHIFT =   2.651887560957326E-002
Total rVV10 correction in eV:      3.9685784   150.3863171
RMM:   5    -0.182337974366E+03   -0.24572E-04   -0.29201E-05   288   0.240E-02    0.558E-03
SOL:  92  -0.19216E+01    0.00000E+00   -0.19216E+01    76
  FERMI_SHIFT =   2.651887560957637E-002
Total rVV10 correction in eV:      3.9685788   150.3861420
RMM:   6    -0.182337993370E+03   -0.19005E-04   -0.15651E-05   272   0.194E-02    0.297E-03
SOL:  93  -0.19213E+01    0.00000E+00   -0.19213E+01    76
  FERMI_SHIFT =   2.652016146905420E-002
Total rVV10 correction in eV:      3.9685767   150.3859424
RMM:   7    -0.182338011403E+03   -0.18033E-04   -0.18487E-05   280   0.226E-02    0.129E-03
SOL:  94  -0.19212E+01    0.00000E+00   -0.19212E+01    71
  FERMI_SHIFT =   2.652016146905445E-002
Total rVV10 correction in eV:      3.9685756   150.3858506
RMM:   8    -0.182338019428E+03   -0.80248E-05   -0.15802E-05   278   0.210E-02
Total rVV10 correction in eV:      3.9685654   150.3853674
SOL:  95  -0.19210E+01    0.00000E+00   -0.19210E+01    72
  FERMI_SHIFT =   2.651887716758447E-002
Total rVV10 correction in eV:      3.9685737   150.3857235
   7 F= -.18233802E+03 E0= -.18233802E+03  d E =-.162796E-02  mag=     0.0000
 curvature:  -0.25 expect dE=-0.140E-02 dE for cont linesearch -0.565E-05
 trial: gam= 0.63581 g(F)=  0.557E-02 g(S)=  0.000E+00 ort = 0.484E-03 (trialstep = 0.720E+00)
 search vector abs. value=  0.104E-01
 bond charge predicted
       N       E                     dE             d eps       ncg     rms          rms(c)
SOL:  96  -0.19203E+01    0.00000E+00   -0.19203E+01    90
  FERMI_SHIFT =   2.652006816101828E-002
Total rVV10 correction in eV:      3.9686081   150.3857382
DAV:   1    -0.182333425883E+03    0.45855E-02   -0.14072E+00   464   0.438E+00    0.244E-01
SOL:  97  -0.19209E+01    0.00000E+00   -0.19209E+01    84
  FERMI_SHIFT =   2.651897864972810E-002
Total rVV10 correction in eV:      3.9686391   150.3877084
RMM:   2    -0.182337903584E+03   -0.44777E-02   -0.45620E-02   416   0.757E-01    0.141E-01
SOL:  98  -0.19215E+01    0.00000E+00   -0.19215E+01    82
  FERMI_SHIFT =   2.652005499598763E-002
Total rVV10 correction in eV:      3.9686290   150.3875073
RMM:   3    -0.182337721435E+03    0.18215E-03   -0.13013E-03   424   0.105E-01    0.972E-02
SOL:  99  -0.19225E+01    0.00000E+00   -0.19225E+01    86
  FERMI_SHIFT =   2.652005170346092E-002
Total rVV10 correction in eV:      3.9685880   150.3864253
RMM:   4    -0.182338171254E+03   -0.44982E-03   -0.81903E-04   416   0.106E-01    0.205E-02
SOL: 100  -0.19227E+01    0.00000E+00   -0.19227E+01    80
  FERMI_SHIFT =   2.652005170345816E-002
Total rVV10 correction in eV:      3.9685803   150.3864193
RMM:   5    -0.182338175143E+03   -0.38887E-05   -0.53257E-05   318   0.312E-02
Total rVV10 correction in eV:      3.9685558   150.3853670
SOL: 101  -0.19229E+01    0.00000E+00   -0.19229E+01    81
  FERMI_SHIFT =   2.652005170345544E-002
Total rVV10 correction in eV:      3.9685781   150.3864717
   8 F= -.18233818E+03 E0= -.18233818E+03  d E =-.155715E-03  mag=     0.0000
 trial-energy change:   -0.000156  1 .order   -0.000329   -0.004231    0.003573
 step:   0.3662(harm=  0.3901)  dis= 0.00250  next Energy=  -182.339073 (dE=-0.105E-02)
 bond charge predicted
       N       E                     dE             d eps       ncg     rms          rms(c)
SOL: 102  -0.19233E+01    0.00000E+00   -0.19233E+01    86
  FERMI_SHIFT =   2.652008827656611E-002
Total rVV10 correction in eV:      3.9685618   150.3864735
DAV:   1    -0.182337843902E+03    0.32735E-03   -0.33831E-01   480   0.215E+00    0.120E-01
SOL: 103  -0.19231E+01    0.00000E+00   -0.19231E+01    81
  FERMI_SHIFT =   2.652008827741054E-002
Total rVV10 correction in eV:      3.9685984   150.3871648
RMM:   2    -0.182338861765E+03   -0.10179E-02   -0.10758E-02   416   0.371E-01    0.676E-02
SOL: 104  -0.19229E+01    0.00000E+00   -0.19229E+01    78
  FERMI_SHIFT =   2.652008827757567E-002
Total rVV10 correction in eV:      3.9685951   150.3869184
RMM:   3    -0.182338870299E+03   -0.85343E-05   -0.30905E-04   410   0.540E-02    0.460E-02
SOL: 105  -0.19228E+01    0.00000E+00   -0.19228E+01    81
  FERMI_SHIFT =   2.652008827760620E-002
Total rVV10 correction in eV:      3.9685740   150.3860029
RMM:   4    -0.182339119279E+03   -0.24898E-03   -0.19778E-04   394   0.574E-02    0.873E-03
SOL: 106  -0.19228E+01    0.00000E+00   -0.19228E+01    75
  FERMI_SHIFT =   2.652008827761079E-002
Total rVV10 correction in eV:      3.9685730   150.3858591
RMM:   5    -0.182339138511E+03   -0.19232E-04   -0.18698E-05   277   0.220E-02    0.505E-03
SOL: 107  -0.19228E+01    0.00000E+00   -0.19228E+01    76
  FERMI_SHIFT =   2.651895221190909E-002
Total rVV10 correction in eV:      3.9685718   150.3857450
RMM:   6    -0.182339151448E+03   -0.12937E-04   -0.12944E-05   273   0.172E-02    0.217E-03
SOL: 108  -0.19228E+01    0.00000E+00   -0.19228E+01    72
  FERMI_SHIFT =   2.651895221190903E-002
Total rVV10 correction in eV:      3.9685697   150.3856655
RMM:   7    -0.182339158684E+03   -0.72356E-05   -0.15608E-05   280   0.206E-02
Total rVV10 correction in eV:      3.9685621   150.3853672
SOL: 109  -0.19228E+01    0.00000E+00   -0.19228E+01    71
  FERMI_SHIFT =   2.651895221190533E-002
Total rVV10 correction in eV:      3.9685681   150.3856000
   9 F= -.18233916E+03 E0= -.18233916E+03  d E =-.113926E-02  mag=     0.0000
 curvature:  -0.34 expect dE=-0.768E-03 dE for cont linesearch -0.446E-05
 trial: gam= 0.41457 g(F)=  0.224E-02 g(S)=  0.000E+00 ort = 0.367E-03 (trialstep = 0.649E+00)
 search vector abs. value=  0.433E-02
 bond charge predicted
       N       E                     dE             d eps       ncg     rms          rms(c)
SOL: 110  -0.19230E+01    0.00000E+00   -0.19230E+01    86
  FERMI_SHIFT =   2.651901335564953E-002
Total rVV10 correction in eV:      3.9685373   150.3856066
DAV:   1    -0.182338151548E+03    0.99990E-03   -0.46341E-01   464   0.250E+00    0.134E-01
SOL: 111  -0.19229E+01    0.00000E+00   -0.19229E+01    82
  FERMI_SHIFT =   2.652001811869460E-002
Total rVV10 correction in eV:      3.9685866   150.3866719
RMM:   2    -0.182339387732E+03   -0.12362E-02   -0.14136E-02   416   0.438E-01    0.733E-02
SOL: 112  -0.19228E+01    0.00000E+00   -0.19228E+01    80
  FERMI_SHIFT =   2.652001319775725E-002
Total rVV10 correction in eV:      3.9685894   150.3865332
RMM:   3    -0.182339360612E+03    0.27121E-04   -0.38043E-04   417   0.624E-02    0.512E-02
SOL: 113  -0.19229E+01    0.00000E+00   -0.19229E+01    83
  FERMI_SHIFT =   2.651905453166548E-002
Total rVV10 correction in eV:      3.9685814   150.3857576
RMM:   4    -0.182339618991E+03   -0.25838E-03   -0.26942E-04   414   0.700E-02    0.111E-02
SOL: 114  -0.19230E+01    0.00000E+00   -0.19230E+01    75
  FERMI_SHIFT =   2.651998236132583E-002
Total rVV10 correction in eV:      3.9685835   150.3857394
RMM:   5    -0.182339619180E+03   -0.18977E-06   -0.22523E-05   283   0.231E-02
Total rVV10 correction in eV:      3.9685701   150.3853670
SOL: 115  -0.19232E+01    0.00000E+00   -0.19232E+01    76
  FERMI_SHIFT =   2.651998236132261E-002
Total rVV10 correction in eV:      3.9685846   150.3857306
  10 F= -.18233962E+03 E0= -.18233962E+03  d E =-.460497E-03  mag=     0.0000
 trial-energy change:   -0.000460  1 .order   -0.000477   -0.001551    0.000597
 step:   0.4685(harm=  0.4685)  dis= 0.00251  next Energy=  -182.339719 (dE=-0.560E-03)
 bond charge predicted
       N       E                     dE             d eps       ncg     rms          rms(c)
SOL: 116  -0.19232E+01    0.00000E+00   -0.19232E+01    80
  FERMI_SHIFT =   2.651999864709721E-002
Total rVV10 correction in eV:      3.9685934   150.3857309
DAV:   1    -0.182339602179E+03    0.16812E-04   -0.35710E-02   496   0.695E-01    0.372E-02
SOL: 117  -0.19233E+01    0.00000E+00   -0.19233E+01    77
  FERMI_SHIFT =   2.651903813865539E-002
Total rVV10 correction in eV:      3.9685950   150.3859355
RMM:   2    -0.182339689222E+03   -0.87043E-04   -0.10753E-03   416   0.124E-01    0.199E-02
SOL: 118  -0.19234E+01    0.00000E+00   -0.19234E+01    73
  FERMI_SHIFT =   2.652000331604148E-002
Total rVV10 correction in eV:      3.9685909   150.3858696
RMM:   3    -0.182339689763E+03   -0.54090E-06   -0.31811E-05   290   0.241E-02
Total rVV10 correction in eV:      3.9685654   150.3853671
SOL: 119  -0.19236E+01    0.00000E+00   -0.19236E+01    76
  FERMI_SHIFT =   2.651903813864458E-002
Total rVV10 correction in eV:      3.9685778   150.3856042
  11 F= -.18233969E+03 E0= -.18233969E+03  d E =-.531079E-03  mag=     0.0000
 curvature:  -0.42 expect dE=-0.421E-03 dE for cont linesearch -0.259E-06
 trial: gam= 0.50744 g(F)=  0.992E-03 g(S)=  0.000E+00 ort = 0.514E-04 (trialstep = 0.613E+00)
 search vector abs. value=  0.216E-02
 bond charge predicted
       N       E                     dE             d eps       ncg     rms          rms(c)
SOL: 120  -0.19239E+01    0.00000E+00   -0.19239E+01    86
  FERMI_SHIFT =   2.651906030882646E-002
Total rVV10 correction in eV:      3.9685707   150.3856071
DAV:   1    -0.182339233398E+03    0.45582E-03   -0.23706E-01   448   0.177E+00    0.951E-02
SOL: 121  -0.19240E+01    0.00000E+00   -0.19240E+01    80
  FERMI_SHIFT =   2.651999279997687E-002
Total rVV10 correction in eV:      3.9685863   150.3862584
RMM:   2    -0.182339943917E+03   -0.71052E-03   -0.74568E-03   416   0.319E-01    0.475E-02
SOL: 122  -0.19241E+01    0.00000E+00   -0.19241E+01    77
  FERMI_SHIFT =   2.651905303734146E-002
Total rVV10 correction in eV:      3.9685799   150.3861360
RMM:   3    -0.182339926355E+03    0.17562E-04   -0.16283E-04   398   0.460E-02    0.323E-02
SOL: 123  -0.19243E+01    0.00000E+00   -0.19243E+01    80
  FERMI_SHIFT =   2.651905681515951E-002
Total rVV10 correction in eV:      3.9685575   150.3856075
RMM:   4    -0.182340054122E+03   -0.12777E-03   -0.15939E-04   394   0.553E-02    0.672E-03
SOL: 124  -0.19244E+01    0.00000E+00   -0.19244E+01    72
  FERMI_SHIFT =   2.651998593930599E-002
Total rVV10 correction in eV:      3.9685564   150.3855943
RMM:   5    -0.182340054543E+03   -0.42140E-06   -0.41871E-05   299   0.291E-02
Total rVV10 correction in eV:      3.9685462   150.3853670
SOL: 125  -0.19246E+01    0.00000E+00   -0.19246E+01    74
  FERMI_SHIFT =   2.651998593929519E-002
Total rVV10 correction in eV:      3.9685551   150.3855810
  12 F= -.18234005E+03 E0= -.18234005E+03  d E =-.364780E-03  mag=     0.0000
 trial-energy change:   -0.000365  1 .order   -0.000335   -0.000624   -0.000046
 step:   0.6618(harm=  0.6618)  dis= 0.00342  next Energy=  -182.340027 (dE=-0.337E-03)
 bond charge predicted
       N       E                     dE             d eps       ncg     rms          rms(c)
SOL: 126  -0.19246E+01    0.00000E+00   -0.19246E+01    74
  FERMI_SHIFT =   2.651998412385273E-002
Total rVV10 correction in eV:      3.9685545   150.3855810
DAV:   1    -0.182340054899E+03   -0.77711E-06   -0.15773E-03   512   0.146E-01    0.821E-03
SOL: 127  -0.19247E+01    0.00000E+00   -0.19247E+01    71
  FERMI_SHIFT =   2.651905864531566E-002
Total rVV10 correction in eV:      3.9685547   150.3856135
RMM:   2    -0.182340058786E+03   -0.38875E-05   -0.95713E-05   365   0.420E-02
Total rVV10 correction in eV:      3.9685437   150.3853669
SOL: 128  -0.19247E+01    0.00000E+00   -0.19247E+01    69
  FERMI_SHIFT =   2.651905864531974E-002
Total rVV10 correction in eV:      3.9685538   150.3856014
  13 F= -.18234006E+03 E0= -.18234006E+03  d E =-.369024E-03  mag=     0.0000
 curvature:  -0.70 expect dE=-0.590E-03 dE for cont linesearch -0.847E-06
 trial: gam= 0.81413 g(F)=  0.841E-03 g(S)=  0.000E+00 ort =-0.510E-04 (trialstep = 0.614E+00)
 search vector abs. value=  0.219E-02
 bond charge predicted
       N       E                     dE             d eps       ncg     rms          rms(c)
SOL: 129  -0.19252E+01    0.00000E+00   -0.19252E+01    86
  FERMI_SHIFT =   2.651903188360233E-002
Total rVV10 correction in eV:      3.9685368   150.3856027
DAV:   1    -0.182339429074E+03    0.62582E-03   -0.22712E-01   448   0.172E+00    0.946E-02
SOL: 130  -0.19254E+01    0.00000E+00   -0.19254E+01    80
  FERMI_SHIFT =   2.651903188428167E-002
Total rVV10 correction in eV:      3.9685579   150.3861610
RMM:   2    -0.182340194912E+03   -0.76584E-03   -0.72795E-03   416   0.309E-01    0.505E-02
SOL: 131  -0.19255E+01    0.00000E+00   -0.19255E+01    77
  FERMI_SHIFT =   2.651904246493805E-002
Total rVV10 correction in eV:      3.9685548   150.3860395
RMM:   3    -0.182340174872E+03    0.20040E-04   -0.17882E-04   395   0.448E-02    0.348E-02
SOL: 132  -0.19258E+01    0.00000E+00   -0.19258E+01    80
  FERMI_SHIFT =   2.651998513592881E-002
Total rVV10 correction in eV:      3.9685428   150.3856072
RMM:   4    -0.182340272624E+03   -0.97752E-04   -0.14932E-04   388   0.497E-02    0.827E-03
SOL: 133  -0.19259E+01    0.00000E+00   -0.19259E+01    74
  FERMI_SHIFT =   2.651998253583035E-002
Total rVV10 correction in eV:      3.9685436   150.3855960
RMM:   5    -0.182340273333E+03   -0.70901E-06   -0.21189E-05   284   0.219E-02
Total rVV10 correction in eV:      3.9685390   150.3853669
SOL: 134  -0.19261E+01    0.00000E+00   -0.19261E+01    74
  FERMI_SHIFT =   2.651998253582617E-002
Total rVV10 correction in eV:      3.9685438   150.3855856
  14 F= -.18234027E+03 E0= -.18234027E+03  d E =-.214547E-03  mag=    -0.0000
 trial-energy change:   -0.000215  1 .order   -0.000201   -0.000491    0.000089
 step:   0.5201(harm=  0.5201)  dis= 0.00255  next Energy=  -182.340267 (dE=-0.208E-03)
 bond charge predicted
       N       E                     dE             d eps       ncg     rms          rms(c)
SOL: 135  -0.19260E+01    0.00000E+00   -0.19260E+01    77
  FERMI_SHIFT =   2.651997789624168E-002
Total rVV10 correction in eV:      3.9685464   150.3855857
DAV:   1    -0.182340263001E+03    0.96230E-05   -0.53089E-03   496   0.264E-01    0.145E-02
SOL: 136  -0.19261E+01    0.00000E+00   -0.19261E+01    72
  FERMI_SHIFT =   2.651907244778011E-002
Total rVV10 correction in eV:      3.9685473   150.3856358
RMM:   2    -0.182340277594E+03   -0.14593E-04   -0.17611E-04   414   0.526E-02    0.737E-03
SOL: 137  -0.19261E+01    0.00000E+00   -0.19261E+01    69
  FERMI_SHIFT =   2.651997789636397E-002
Total rVV10 correction in eV:      3.9685464   150.3856098
RMM:   3    -0.182340278937E+03   -0.13428E-05   -0.10019E-05   273   0.169E-02
Total rVV10 correction in eV:      3.9685390   150.3853669
SOL: 138  -0.19262E+01    0.00000E+00   -0.19262E+01    72
  FERMI_SHIFT =   2.651997789636759E-002
Total rVV10 correction in eV:      3.9685439   150.3855324
  15 F= -.18234028E+03 E0= -.18234028E+03  d E =-.220151E-03  mag=    -0.0000
 curvature:  -0.71 expect dE=-0.484E-03 dE for cont linesearch -0.371E-06
 trial: gam= 0.79309 g(F)=  0.679E-03 g(S)=  0.000E+00 ort = 0.338E-04 (trialstep = 0.595E+00)
 search vector abs. value=  0.211E-02
 bond charge predicted
       N       E                     dE             d eps       ncg     rms          rms(c)
SOL: 139  -0.19267E+01    0.00000E+00   -0.19267E+01    86
  FERMI_SHIFT =   2.651904819255146E-002
Total rVV10 correction in eV:      3.9685328   150.3855357
DAV:   1    -0.182339518747E+03    0.75885E-03   -0.21258E-01   448   0.165E+00    0.914E-02
SOL: 140  -0.19268E+01    0.00000E+00   -0.19268E+01    80
  FERMI_SHIFT =   2.652002397779599E-002
Total rVV10 correction in eV:      3.9685574   150.3860876
RMM:   2    -0.182340240528E+03   -0.72178E-03   -0.70713E-03   416   0.303E-01    0.494E-02
SOL: 141  -0.19267E+01    0.00000E+00   -0.19267E+01    78
  FERMI_SHIFT =   2.651902166420025E-002
Total rVV10 correction in eV:      3.9685563   150.3859583
RMM:   3    -0.182340225130E+03    0.15399E-04   -0.17827E-04   392   0.458E-02    0.334E-02
SOL: 142  -0.19268E+01    0.00000E+00   -0.19268E+01    81
  FERMI_SHIFT =   2.652003882454547E-002
Total rVV10 correction in eV:      3.9685503   150.3855665
RMM:   4    -0.182340294323E+03   -0.69194E-04   -0.16374E-04   386   0.520E-02    0.686E-03
SOL: 143  -0.19269E+01    0.00000E+00   -0.19269E+01    75
  FERMI_SHIFT =   2.651899817703074E-002
Total rVV10 correction in eV:      3.9685518   150.3855575
RMM:   5    -0.182340295180E+03   -0.85689E-06   -0.65107E-05   305   0.341E-02
Total rVV10 correction in eV:      3.9685470   150.3853669
SOL: 144  -0.19270E+01    0.00000E+00   -0.19270E+01    74
  FERMI_SHIFT =   2.651899524170293E-002
Total rVV10 correction in eV:      3.9685527   150.3855609
  16 F= -.18234030E+03 E0= -.18234030E+03  d E =-.162431E-04  mag=    -0.0000
 trial-energy change:   -0.000016  1 .order   -0.000020   -0.000420    0.000381
 step:   0.3122(harm=  0.3122)  dis= 0.00185  next Energy=  -182.340389 (dE=-0.110E-03)
 bond charge predicted
       N       E                     dE             d eps       ncg     rms          rms(c)
SOL: 145  -0.19268E+01    0.00000E+00   -0.19268E+01    82
  FERMI_SHIFT =   2.651900763342800E-002
Total rVV10 correction in eV:      3.9685580   150.3855616
DAV:   1    -0.182340226810E+03    0.67513E-04   -0.47917E-02   472   0.783E-01    0.430E-02
SOL: 146  -0.19268E+01    0.00000E+00   -0.19268E+01    77
  FERMI_SHIFT =   2.652004047902570E-002
Total rVV10 correction in eV:      3.9685613   150.3857877
RMM:   2    -0.182340358541E+03   -0.13173E-03   -0.15966E-03   416   0.147E-01    0.231E-02
SOL: 147  -0.19269E+01    0.00000E+00   -0.19269E+01    74
  FERMI_SHIFT =   2.652004047911434E-002
Total rVV10 correction in eV:      3.9685581   150.3857188
RMM:   3    -0.182340358368E+03    0.17364E-06   -0.52826E-05   312   0.302E-02
Total rVV10 correction in eV:      3.9685415   150.3853669
SOL: 148  -0.19270E+01    0.00000E+00   -0.19270E+01    76
  FERMI_SHIFT =   2.651900019047378E-002
Total rVV10 correction in eV:      3.9685485   150.3854950
  17 F= -.18234036E+03 E0= -.18234036E+03  d E =-.794308E-04  mag=     0.0000
 curvature:  -0.47 expect dE=-0.130E-03 dE for cont linesearch -0.382E-06
 trial: gam= 0.43335 g(F)=  0.278E-03 g(S)=  0.000E+00 ort = 0.415E-04 (trialstep = 0.539E+00)
 search vector abs. value=  0.710E-03
 bond charge predicted
       N       E                     dE             d eps       ncg     rms          rms(c)
SOL: 149  -0.19271E+01    0.00000E+00   -0.19271E+01    82
  FERMI_SHIFT =   2.651896002910853E-002
Total rVV10 correction in eV:      3.9685574   150.3854957
DAV:   1    -0.182340264329E+03    0.94212E-04   -0.58798E-02   464   0.900E-01    0.468E-02
SOL: 150  -0.19271E+01    0.00000E+00   -0.19271E+01    76
  FERMI_SHIFT =   2.651896003073413E-002
Total rVV10 correction in eV:      3.9685649   150.3858147
RMM:   2    -0.182340467192E+03   -0.20286E-03   -0.19849E-03   416   0.172E-01    0.249E-02
SOL: 151  -0.19271E+01    0.00000E+00   -0.19271E+01    73
  FERMI_SHIFT =   2.651896860002396E-002
Total rVV10 correction in eV:      3.9685632   150.3857476
RMM:   3    -0.182340457765E+03    0.94271E-05   -0.69089E-05   332   0.353E-02
Total rVV10 correction in eV:      3.9685524   150.3853669
SOL: 152  -0.19271E+01    0.00000E+00   -0.19271E+01    77
  FERMI_SHIFT =   2.652008045181845E-002
Total rVV10 correction in eV:      3.9685550   150.3854481
  18 F= -.18234046E+03 E0= -.18234046E+03  d E =-.993976E-04  mag=    -0.0000
 trial-energy change:   -0.000099  1 .order   -0.000095   -0.000160   -0.000031
 step:   0.6685(harm=  0.6685)  dis= 0.00180  next Energy=  -182.340457 (dE=-0.990E-04)
 bond charge predicted
       N       E                     dE             d eps       ncg     rms          rms(c)
SOL: 153  -0.19271E+01    0.00000E+00   -0.19271E+01    75
  FERMI_SHIFT =   2.652009006116295E-002
Total rVV10 correction in eV:      3.9685571   150.3854482
DAV:   1    -0.182340496813E+03   -0.29620E-04   -0.32803E-03   448   0.213E-01    0.125E-02
SOL: 154  -0.19272E+01    0.00000E+00   -0.19272E+01    71
  FERMI_SHIFT =   2.652009430517992E-002
Total rVV10 correction in eV:      3.9685584   150.3855228
RMM:   2    -0.182340506720E+03   -0.99074E-05   -0.23687E-04   410   0.644E-02    0.614E-03
SOL: 155  -0.19272E+01    0.00000E+00   -0.19272E+01    69
  FERMI_SHIFT =   2.651894659905672E-002
Total rVV10 correction in eV:      3.9685576   150.3854996
RMM:   3    -0.182340503790E+03    0.29299E-05   -0.76459E-05   308   0.363E-02
Total rVV10 correction in eV:      3.9685532   150.3853668
SOL: 156  -0.19272E+01    0.00000E+00   -0.19272E+01    70
  FERMI_SHIFT =   2.651894659907451E-002
Total rVV10 correction in eV:      3.9685564   150.3854613
  19 F= -.18234050E+03 E0= -.18234050E+03  d E =-.145422E-03  mag=     0.0000
 curvature:  -0.80 expect dE=-0.133E-03 dE for cont linesearch -0.103E-05
 trial: gam= 0.41459 g(F)=  0.165E-03 g(S)=  0.000E+00 ort = 0.302E-04 (trialstep = 0.565E+00)
 search vector abs. value=  0.312E-03
 bond charge predicted
       N       E                     dE             d eps       ncg     rms          rms(c)
SOL: 157  -0.19272E+01    0.00000E+00   -0.19272E+01    80
  FERMI_SHIFT =   2.651891197299458E-002
Total rVV10 correction in eV:      3.9685680   150.3854616
DAV:   1    -0.182340460480E+03    0.46240E-04   -0.28545E-02   448   0.614E-01    0.334E-02
SOL: 158  -0.19272E+01    0.00000E+00   -0.19272E+01    75
  FERMI_SHIFT =   2.652012893251984E-002
Total rVV10 correction in eV:      3.9685702   150.3856774
RMM:   2    -0.182340552909E+03   -0.92429E-04   -0.10029E-03   416   0.121E-01    0.189E-02
SOL: 159  -0.19272E+01    0.00000E+00   -0.19272E+01    73
  FERMI_SHIFT =   2.652012647462605E-002
Total rVV10 correction in eV:      3.9685680   150.3856374
RMM:   3    -0.182340544446E+03    0.84634E-05   -0.53113E-05   308   0.316E-02
Total rVV10 correction in eV:      3.9685539   150.3853668
SOL: 160  -0.19272E+01    0.00000E+00   -0.19272E+01    77
  FERMI_SHIFT =   2.651892458078692E-002
Total rVV10 correction in eV:      3.9685598   150.3854575
  20 F= -.18234054E+03 E0= -.18234054E+03  d E =-.406557E-04  mag=    -0.0000
 trial-energy change:   -0.000041  1 .order   -0.000060   -0.000100   -0.000019
 step:   0.6994(harm=  0.6994)  dis= 0.00098  next Energy=  -182.340566 (dE=-0.622E-04)
 bond charge predicted
       N       E                     dE             d eps       ncg     rms          rms(c)
SOL: 161  -0.19272E+01    0.00000E+00   -0.19272E+01    73
  FERMI_SHIFT =   2.651891633864188E-002
Total rVV10 correction in eV:      3.9685626   150.3854575
DAV:   1    -0.182340571621E+03   -0.18712E-04   -0.16249E-03   448   0.149E-01    0.917E-03
SOL: 162  -0.19271E+01    0.00000E+00   -0.19271E+01    70
  FERMI_SHIFT =   2.651891633906592E-002
Total rVV10 correction in eV:      3.9685616   150.3855034
RMM:   2    -0.182340580403E+03   -0.87822E-05   -0.21110E-04   356   0.583E-02    0.450E-03
SOL: 163  -0.19271E+01    0.00000E+00   -0.19271E+01    69
  FERMI_SHIFT =   2.652012221126371E-002
Total rVV10 correction in eV:      3.9685603   150.3854907
RMM:   3    -0.182340575986E+03    0.44176E-05   -0.85546E-05   309   0.376E-02
Total rVV10 correction in eV:      3.9685546   150.3853668
SOL: 164  -0.19271E+01    0.00000E+00   -0.19271E+01    69
  FERMI_SHIFT =   2.651891967460568E-002
Total rVV10 correction in eV:      3.9685591   150.3854715
  21 F= -.18234058E+03 E0= -.18234058E+03  d E =-.721957E-04  mag=    -0.0000
 curvature:  -0.61 expect dE=-0.142E-03 dE for cont linesearch -0.711E-07
 trial: gam= 1.52418 g(F)=  0.232E-03 g(S)=  0.000E+00 ort = 0.601E-05 (trialstep = 0.189E+00)
 search vector abs. value=  0.976E-03
 bond charge predicted
       N       E                     dE             d eps       ncg     rms          rms(c)
SOL: 165  -0.19271E+01    0.00000E+00   -0.19271E+01    78
  FERMI_SHIFT =   2.651889411031269E-002
Total rVV10 correction in eV:      3.9685625   150.3854717
DAV:   1    -0.182340573902E+03    0.65017E-05   -0.10970E-02   448   0.369E-01    0.194E-02
SOL: 166  -0.19271E+01    0.00000E+00   -0.19271E+01    72
  FERMI_SHIFT =   2.652014773549126E-002
Total rVV10 correction in eV:      3.9685659   150.3855941
RMM:   2    -0.182340606614E+03   -0.32713E-04   -0.38762E-04   416   0.755E-02    0.111E-02
SOL: 167  -0.19270E+01    0.00000E+00   -0.19270E+01    69
  FERMI_SHIFT =   2.652014773528198E-002
Total rVV10 correction in eV:      3.9685653   150.3855707
RMM:   3    -0.182340604079E+03    0.25359E-05   -0.26240E-05   290   0.233E-02
Total rVV10 correction in eV:      3.9685586   150.3853668
SOL: 168  -0.19269E+01    0.00000E+00   -0.19269E+01    73
  FERMI_SHIFT =   2.652014466526990E-002
Total rVV10 correction in eV:      3.9685620   150.3854667
  22 F= -.18234060E+03 E0= -.18234060E+03  d E =-.280928E-04  mag=    -0.0000
 trial-energy change:   -0.000028  1 .order   -0.000038   -0.000046   -0.000031
 step:   0.5759(harm=  0.5759)  dis= 0.00180  next Energy=  -182.340645 (dE=-0.694E-04)
 bond charge predicted
       N       E                     dE             d eps       ncg     rms          rms(c)
SOL: 169  -0.19270E+01    0.00000E+00   -0.19270E+01    81
  FERMI_SHIFT =   2.652019680578492E-002
Total rVV10 correction in eV:      3.9685690   150.3854678
DAV:   1    -0.182340484367E+03    0.12225E-03   -0.45182E-02   448   0.748E-01    0.391E-02
SOL: 170  -0.19269E+01    0.00000E+00   -0.19269E+01    76
  FERMI_SHIFT =   2.652019971066713E-002
Total rVV10 correction in eV:      3.9685772   150.3857544
RMM:   2    -0.182340630621E+03   -0.14625E-03   -0.14822E-03   416   0.143E-01    0.211E-02
SOL: 171  -0.19268E+01    0.00000E+00   -0.19268E+01    73
  FERMI_SHIFT =   2.652019971023641E-002
Total rVV10 correction in eV:      3.9685765   150.3857178
RMM:   3    -0.182340621221E+03    0.93996E-05   -0.69253E-05   313   0.341E-02
Total rVV10 correction in eV:      3.9685658   150.3853667
SOL: 172  -0.19266E+01    0.00000E+00   -0.19266E+01    77
  FERMI_SHIFT =   2.652019472627218E-002
Total rVV10 correction in eV:      3.9685714   150.3855356
  23 F= -.18234062E+03 E0= -.18234062E+03  d E =-.452355E-04  mag=    -0.0000
 curvature:  -1.17 expect dE=-0.389E-03 dE for cont linesearch -0.461E-07
 trial: gam= 1.37064 g(F)=  0.334E-03 g(S)=  0.000E+00 ort =-0.621E-05 (trialstep = 0.121E+00)
 search vector abs. value=  0.215E-02
 bond charge predicted
       N       E                     dE             d eps       ncg     rms          rms(c)
SOL: 173  -0.19266E+01    0.00000E+00   -0.19266E+01    77
  FERMI_SHIFT =   2.652021975591511E-002
Total rVV10 correction in eV:      3.9685727   150.3855357
DAV:   1    -0.182340655892E+03   -0.25271E-04   -0.94602E-03   440   0.341E-01    0.181E-02
SOL: 174  -0.19266E+01    0.00000E+00   -0.19266E+01    74
  FERMI_SHIFT =   2.651882112429345E-002
Total rVV10 correction in eV:      3.9685761   150.3856498
RMM:   2    -0.182340689853E+03   -0.33960E-04   -0.44556E-04   416   0.834E-02    0.930E-03
SOL: 175  -0.19265E+01    0.00000E+00   -0.19265E+01    71
  FERMI_SHIFT =   2.651882112449878E-002
Total rVV10 correction in eV:      3.9685755   150.3856274
RMM:   3    -0.182340685054E+03    0.47988E-05   -0.81926E-05   307   0.370E-02
Total rVV10 correction in eV:      3.9685673   150.3853667
SOL: 176  -0.19264E+01    0.00000E+00   -0.19264E+01    74
  FERMI_SHIFT =   2.651882599548555E-002
Total rVV10 correction in eV:      3.9685734   150.3855555
  24 F= -.18234069E+03 E0= -.18234069E+03  d E =-.638326E-04  mag=    -0.0000
 ZBRENT: can't locate minimum, use default step
 trial-energy change:   -0.000064  1 .order   -0.000037   -0.000039   -0.000034
 step:   0.4842(harm=  0.9272)  dis= 0.00218  next Energy=  -182.340772 (dE=-0.151E-03)
 bond charge predicted
       N       E                     dE             d eps       ncg     rms          rms(c)
SOL: 177  -0.19265E+01    0.00000E+00   -0.19265E+01    83
  FERMI_SHIFT =   2.652029456318286E-002
Total rVV10 correction in eV:      3.9685774   150.3855563
DAV:   1    -0.182340428904E+03    0.26095E-03   -0.86642E-02   416   0.103E+00    0.527E-02
SOL: 178  -0.19264E+01    0.00000E+00   -0.19264E+01    78
  FERMI_SHIFT =   2.652029621903415E-002
Total rVV10 correction in eV:      3.9685904   150.3859400
RMM:   2    -0.182340725617E+03   -0.29671E-03   -0.28428E-03   416   0.196E-01    0.294E-02
SOL: 179  -0.19263E+01    0.00000E+00   -0.19263E+01    75
  FERMI_SHIFT =   2.652029621841101E-002
Total rVV10 correction in eV:      3.9685895   150.3858795
RMM:   3    -0.182340712100E+03    0.13517E-04   -0.12221E-04   331   0.439E-02    0.207E-02
SOL: 180  -0.19261E+01    0.00000E+00   -0.19261E+01    79
  FERMI_SHIFT =   2.651875427363942E-002
Total rVV10 correction in eV:      3.9685815   150.3855731
RMM:   4    -0.182340723450E+03   -0.11350E-04   -0.19899E-04   350   0.590E-02    0.591E-03
SOL: 181  -0.19261E+01    0.00000E+00   -0.19261E+01    69
  FERMI_SHIFT =   2.652028873979978E-002
Total rVV10 correction in eV:      3.9685812   150.3855673
RMM:   5    -0.182340769393E+03   -0.45943E-04   -0.12092E-04   312   0.440E-02    0.351E-03
SOL: 182  -0.19261E+01    0.00000E+00   -0.19261E+01    69
  FERMI_SHIFT =   2.651875724970337E-002
Total rVV10 correction in eV:      3.9685807   150.3855612
RMM:   6    -0.182340770422E+03   -0.10290E-05   -0.21032E-05   285   0.205E-02
Total rVV10 correction in eV:      3.9685730   150.3853667
SOL: 183  -0.19260E+01    0.00000E+00   -0.19260E+01    68
  FERMI_SHIFT =   2.651875724970734E-002
Total rVV10 correction in eV:      3.9685802   150.3855526
  25 F= -.18234077E+03 E0= -.18234077E+03  d E =-.149201E-03  mag=     0.0000
 curvature:  -2.14 expect dE=-0.495E-03 dE for cont linesearch -0.104E-04
 ZBRENT: increasing intervall
 opt :   1.2104  next Energy=  -182.340713 (dE=-0.921E-04)
 bond charge predicted
       N       E                     dE             d eps       ncg     rms          rms(c)
SOL: 184  -0.19261E+01    0.00000E+00   -0.19261E+01    86
  FERMI_SHIFT =   2.651860823747616E-002
Total rVV10 correction in eV:      3.9685883   150.3855584
DAV:   1    -0.182339345689E+03    0.14237E-02   -0.34732E-01   416   0.206E+00    0.104E-01
SOL: 185  -0.19260E+01    0.00000E+00   -0.19260E+01    81
  FERMI_SHIFT =   2.652044196329988E-002
Total rVV10 correction in eV:      3.9686155   150.3863892
RMM:   2    -0.182340590768E+03   -0.12451E-02   -0.10744E-02   416   0.370E-01    0.576E-02
SOL: 186  -0.19259E+01    0.00000E+00   -0.19259E+01    78
  FERMI_SHIFT =   2.651860331372795E-002
Total rVV10 correction in eV:      3.9686140   150.3862821
RMM:   3    -0.182340547167E+03    0.43601E-04   -0.23057E-04   402   0.495E-02    0.408E-02
SOL: 187  -0.19255E+01    0.00000E+00   -0.19255E+01    82
  FERMI_SHIFT =   2.651861021313462E-002
Total rVV10 correction in eV:      3.9685984   150.3856775
RMM:   4    -0.182340702000E+03   -0.15483E-03   -0.18789E-04   386   0.565E-02    0.108E-02
SOL: 188  -0.19255E+01    0.00000E+00   -0.19255E+01    71
  FERMI_SHIFT =   2.652043094066103E-002
Total rVV10 correction in eV:      3.9685976   150.3856763
RMM:   5    -0.182340700730E+03    0.12704E-05   -0.13985E-05   276   0.177E-02
Total rVV10 correction in eV:      3.9685844   150.3853666
SOL: 189  -0.19254E+01    0.00000E+00   -0.19254E+01    73
  FERMI_SHIFT =   2.651861422553696E-002
Total rVV10 correction in eV:      3.9685965   150.3856660
  26 F= -.18234070E+03 E0= -.18234070E+03  d E =-.795086E-04  mag=     0.0000
 curvature:  11.76 expect dE= 0.196E-01 dE for cont linesearch  0.417E-03
 ZBRENT: bracketing found
 ZBRENT: interpolating
 opt :   0.6803  next Energy=  -182.340780 (dE=-0.159E-03)
 bond charge predicted
       N       E                     dE             d eps       ncg     rms          rms(c)
SOL: 190  -0.19253E+01    0.00000E+00   -0.19253E+01    84
  FERMI_SHIFT =   2.651872362527931E-002
Total rVV10 correction in eV:      3.9685907   150.3856683
DAV:   1    -0.182340055290E+03    0.64671E-03   -0.18463E-01   448   0.150E+00    0.753E-02
SOL: 191  -0.19254E+01    0.00000E+00   -0.19254E+01    79
  FERMI_SHIFT =   2.652032536595726E-002
Total rVV10 correction in eV:      3.9686043   150.3861857
RMM:   2    -0.182340664359E+03   -0.60907E-03   -0.56558E-03   416   0.269E-01    0.420E-02
SOL: 192  -0.19254E+01    0.00000E+00   -0.19254E+01    76
  FERMI_SHIFT =   2.652032536683649E-002
Total rVV10 correction in eV:      3.9685995   150.3860751
RMM:   3    -0.182340651121E+03    0.13238E-04   -0.11779E-04   365   0.371E-02    0.298E-02
SOL: 193  -0.19256E+01    0.00000E+00   -0.19256E+01    80
  FERMI_SHIFT =   2.651872873492754E-002
Total rVV10 correction in eV:      3.9685805   150.3855349
RMM:   4    -0.182340788770E+03   -0.13765E-03   -0.10415E-04   376   0.442E-02    0.780E-03
SOL: 194  -0.19256E+01    0.00000E+00   -0.19256E+01    68
  FERMI_SHIFT =   2.651872873489178E-002
Total rVV10 correction in eV:      3.9685802   150.3855188
RMM:   5    -0.182340789220E+03   -0.45038E-06   -0.13069E-05   277   0.183E-02
Total rVV10 correction in eV:      3.9685765   150.3853667
SOL: 195  -0.19256E+01    0.00000E+00   -0.19256E+01    70
  FERMI_SHIFT =   2.652031952813301E-002
Total rVV10 correction in eV:      3.9685794   150.3854884
  27 F= -.18234079E+03 E0= -.18234079E+03  d E =-.167999E-03  mag=     0.0000
 curvature:  -0.28 expect dE=-0.120E-03 dE for cont linesearch -0.988E-07
 trial: gam= 1.35959 g(F)=  0.425E-03 g(S)=  0.000E+00 ort = 0.274E-04 (trialstep = 0.112E+00)
 search vector abs. value=  0.447E-02
 bond charge predicted
       N       E                     dE             d eps       ncg     rms          rms(c)
SOL: 196  -0.19256E+01    0.00000E+00   -0.19256E+01    79
  FERMI_SHIFT =   2.652035734935998E-002
Total rVV10 correction in eV:      3.9685813   150.3854888
DAV:   1    -0.182340774138E+03    0.14632E-04   -0.17410E-02   464   0.455E-01    0.218E-02
SOL: 197  -0.19257E+01    0.00000E+00   -0.19257E+01    74
  FERMI_SHIFT =   2.652036284443005E-002
Total rVV10 correction in eV:      3.9685843   150.3856199
RMM:   2    -0.182340828364E+03   -0.54226E-04   -0.53443E-04   416   0.853E-02    0.123E-02
SOL: 198  -0.19257E+01    0.00000E+00   -0.19257E+01    70
  FERMI_SHIFT =   2.651867927225313E-002
Total rVV10 correction in eV:      3.9685831   150.3855881
RMM:   3    -0.182340825444E+03    0.29198E-05   -0.15575E-05   281   0.188E-02
Total rVV10 correction in eV:      3.9685752   150.3853667
SOL: 199  -0.19257E+01    0.00000E+00   -0.19257E+01    74
  FERMI_SHIFT =   2.651867663531628E-002
Total rVV10 correction in eV:      3.9685778   150.3854401
  28 F= -.18234083E+03 E0= -.18234083E+03  d E =-.362245E-04  mag=     0.0000
 trial-energy change:   -0.000036  1 .order   -0.000044   -0.000052   -0.000036
 step:   0.3756(harm=  0.3756)  dis= 0.00290  next Energy=  -182.340876 (dE=-0.867E-04)
 bond charge predicted
       N       E                     dE             d eps       ncg     rms          rms(c)
SOL: 200  -0.19258E+01    0.00000E+00   -0.19258E+01    83
  FERMI_SHIFT =   2.651859005720271E-002
Total rVV10 correction in eV:      3.9685822   150.3854427
DAV:   1    -0.182340552456E+03    0.27591E-03   -0.96271E-02   416   0.107E+00    0.527E-02
SOL: 201  -0.19259E+01    0.00000E+00   -0.19259E+01    77
  FERMI_SHIFT =   2.652046042044470E-002
Total rVV10 correction in eV:      3.9685918   150.3858482
RMM:   2    -0.182340858692E+03   -0.30624E-03   -0.29317E-03   416   0.195E-01    0.284E-02
SOL: 202  -0.19259E+01    0.00000E+00   -0.19259E+01    75
  FERMI_SHIFT =   2.652046041974541E-002
Total rVV10 correction in eV:      3.9685894   150.3857901
RMM:   3    -0.182340850723E+03    0.79689E-05   -0.70086E-05   321   0.314E-02
Total rVV10 correction in eV:      3.9685734   150.3853666
SOL: 203  -0.19260E+01    0.00000E+00   -0.19260E+01    79
  FERMI_SHIFT =   2.651858080620194E-002
Total rVV10 correction in eV:      3.9685781   150.3854883
  29 F= -.18234085E+03 E0= -.18234085E+03  d E =-.615033E-04  mag=    -0.0000
 curvature:  -1.82 expect dE=-0.397E-03 dE for cont linesearch -0.227E-05
 ZBRENT: extrapolating
 opt :   0.4546  next Energy=  -182.340854 (dE=-0.645E-04)
 bond charge predicted
       N       E                     dE             d eps       ncg     rms          rms(c)
SOL: 204  -0.19260E+01    0.00000E+00   -0.19260E+01    77
  FERMI_SHIFT =   2.651855553095880E-002
Total rVV10 correction in eV:      3.9685794   150.3854885
DAV:   1    -0.182340890033E+03   -0.31341E-04   -0.83037E-03   432   0.313E-01    0.166E-02
SOL: 205  -0.19260E+01    0.00000E+00   -0.19260E+01    73
  FERMI_SHIFT =   2.652048564078241E-002
Total rVV10 correction in eV:      3.9685810   150.3855880
RMM:   2    -0.182340913630E+03   -0.23598E-04   -0.29516E-04   414   0.676E-02    0.745E-03
SOL: 206  -0.19260E+01    0.00000E+00   -0.19260E+01    71
  FERMI_SHIFT =   2.652048564056124E-002
Total rVV10 correction in eV:      3.9685800   150.3855692
RMM:   3    -0.182340911440E+03    0.21904E-05   -0.34540E-05   295   0.263E-02
Total rVV10 correction in eV:      3.9685736   150.3853666
SOL: 207  -0.19260E+01    0.00000E+00   -0.19260E+01    74
  FERMI_SHIFT =   2.652048564052109E-002
Total rVV10 correction in eV:      3.9685775   150.3855091
  30 F= -.18234091E+03 E0= -.18234091E+03  d E =-.122220E-03  mag=     0.0000
 curvature:  -2.36 expect dE=-0.600E-03 dE for cont linesearch -0.331E-05
 ZBRENT: increasing intervall
 opt :   0.6127  next Energy=  -182.340925 (dE=-0.135E-03)
 bond charge predicted
       N       E                     dE             d eps       ncg     rms          rms(c)
SOL: 208  -0.19261E+01    0.00000E+00   -0.19261E+01    81
  FERMI_SHIFT =   2.652053553619836E-002
Total rVV10 correction in eV:      3.9685801   150.3855096
DAV:   1    -0.182340801341E+03    0.11229E-03   -0.34817E-02   416   0.643E-01    0.319E-02
SOL: 209  -0.19261E+01    0.00000E+00   -0.19261E+01    75
  FERMI_SHIFT =   2.651850385507759E-002
Total rVV10 correction in eV:      3.9685857   150.3857447
RMM:   2    -0.182340909885E+03   -0.10854E-03   -0.11609E-03   416   0.127E-01    0.176E-02
SOL: 210  -0.19261E+01    0.00000E+00   -0.19261E+01    73
  FERMI_SHIFT =   2.651850385548828E-002
Total rVV10 correction in eV:      3.9685842   150.3857109
RMM:   3    -0.182340902461E+03    0.74246E-05   -0.58093E-05   308   0.324E-02
Total rVV10 correction in eV:      3.9685726   150.3853666
SOL: 211  -0.19262E+01    0.00000E+00   -0.19262E+01    77
  FERMI_SHIFT =   2.652053553346585E-002
Total rVV10 correction in eV:      3.9685775   150.3855335
  31 F= -.18234090E+03 E0= -.18234090E+03  d E =-.113241E-03  mag=    -0.0000
 curvature:  -9.43 expect dE=-0.365E-02 dE for cont linesearch -0.656E-05
 trial: gam= 0.83522 g(F)=  0.387E-03 g(S)=  0.000E+00 ort =-0.558E-04 (trialstep = 0.212E+00)
 search vector abs. value=  0.342E-02
 bond charge predicted
       N       E                     dE             d eps       ncg     rms          rms(c)
SOL: 212  -0.19263E+01    0.00000E+00   -0.19263E+01    81
  FERMI_SHIFT =   2.652058461777253E-002
Total rVV10 correction in eV:      3.9685756   150.3855342
DAV:   1    -0.182340827091E+03    0.82794E-04   -0.47382E-02   416   0.740E-01    0.364E-02
SOL: 213  -0.19263E+01    0.00000E+00   -0.19263E+01    75
  FERMI_SHIFT =   2.652058653219590E-002
Total rVV10 correction in eV:      3.9685832   150.3857825
RMM:   2    -0.182340986007E+03   -0.15892E-03   -0.15848E-03   416   0.148E-01    0.191E-02
SOL: 214  -0.19263E+01    0.00000E+00   -0.19263E+01    73
  FERMI_SHIFT =   2.651845489479908E-002
Total rVV10 correction in eV:      3.9685820   150.3857397
RMM:   3    -0.182340975077E+03    0.10930E-04   -0.10218E-04   314   0.409E-02    0.136E-02
SOL: 215  -0.19263E+01    0.00000E+00   -0.19263E+01    77
  FERMI_SHIFT =   2.652058461468235E-002
Total rVV10 correction in eV:      3.9685760   150.3855419
RMM:   4    -0.182340955678E+03    0.19399E-04   -0.17307E-04   331   0.542E-02    0.409E-03
SOL: 216  -0.19264E+01    0.00000E+00   -0.19264E+01    68
  FERMI_SHIFT =   2.652058461465748E-002
Total rVV10 correction in eV:      3.9685757   150.3855301
RMM:   5    -0.182340999804E+03   -0.44127E-04   -0.10605E-04   310   0.415E-02    0.231E-03
SOL: 217  -0.19264E+01    0.00000E+00   -0.19264E+01    68
  FERMI_SHIFT =   2.652058461465902E-002
Total rVV10 correction in eV:      3.9685755   150.3855243
RMM:   6    -0.182341000837E+03   -0.10325E-05   -0.86739E-06   274   0.147E-02
Total rVV10 correction in eV:      3.9685712   150.3853667
SOL: 218  -0.19264E+01    0.00000E+00   -0.19264E+01    68
  FERMI_SHIFT =   2.651845633524726E-002
Total rVV10 correction in eV:      3.9685752   150.3855141
  32 F= -.18234100E+03 E0= -.18234100E+03  d E =-.983763E-04  mag=     0.0000
 ZBRENT: can't locate minimum, use default step
 trial-energy change:   -0.000098  1 .order   -0.000067   -0.000072   -0.000062
 step:   0.8484(harm=  1.4714)  dis= 0.00484  next Energy=  -182.341153 (dE=-0.251E-03)
 bond charge predicted
       N       E                     dE             d eps       ncg     rms          rms(c)
SOL: 219  -0.19267E+01    0.00000E+00   -0.19267E+01    87
  FERMI_SHIFT =   2.652072570580581E-002
Total rVV10 correction in eV:      3.9685695   150.3855215
DAV:   1    -0.182339510859E+03    0.14889E-02   -0.43139E-01   448   0.223E+00    0.108E-01
SOL: 220  -0.19268E+01    0.00000E+00   -0.19268E+01    80
  FERMI_SHIFT =   2.651831445513217E-002
Total rVV10 correction in eV:      3.9685956   150.3863655
RMM:   2    -0.182340979119E+03   -0.14683E-02   -0.13025E-02   416   0.403E-01    0.593E-02
SOL: 221  -0.19268E+01    0.00000E+00   -0.19268E+01    77
  FERMI_SHIFT =   2.652072687031674E-002
Total rVV10 correction in eV:      3.9685929   150.3862511
RMM:   3    -0.182340929979E+03    0.49140E-04   -0.27612E-04   400   0.515E-02    0.428E-02
SOL: 222  -0.19269E+01    0.00000E+00   -0.19269E+01    82
  FERMI_SHIFT =   2.651831488575424E-002
Total rVV10 correction in eV:      3.9685737   150.3856045
RMM:   4    -0.182341094919E+03   -0.16494E-03   -0.21086E-04   386   0.563E-02    0.116E-02
SOL: 223  -0.19269E+01    0.00000E+00   -0.19269E+01    72
  FERMI_SHIFT =   2.651831488581211E-002
Total rVV10 correction in eV:      3.9685731   150.3855964
RMM:   5    -0.182341094282E+03    0.63686E-06   -0.14810E-05   274   0.180E-02
Total rVV10 correction in eV:      3.9685657   150.3853668
SOL: 224  -0.19270E+01    0.00000E+00   -0.19270E+01    74
  FERMI_SHIFT =   2.652072525904824E-002
Total rVV10 correction in eV:      3.9685724   150.3855845
  33 F= -.18234109E+03 E0= -.18234109E+03  d E =-.191821E-03  mag=     0.0000
 curvature:  -5.57 expect dE=-0.259E-02 dE for cont linesearch -0.520E-07
 trial: gam= 1.14880 g(F)=  0.464E-03 g(S)=  0.000E+00 ort =-0.565E-05 (trialstep = 0.234E+00)
 search vector abs. value=  0.496E-02
 bond charge predicted
       N       E                     dE             d eps       ncg     rms          rms(c)
SOL: 225  -0.19271E+01    0.00000E+00   -0.19271E+01    82
  FERMI_SHIFT =   2.652078478782117E-002
Total rVV10 correction in eV:      3.9685637   150.3855857
DAV:   1    -0.182340872810E+03    0.22211E-03   -0.87125E-02   448   0.994E-01    0.482E-02
SOL: 226  -0.19272E+01    0.00000E+00   -0.19272E+01    77
  FERMI_SHIFT =   2.651825507341700E-002
Total rVV10 correction in eV:      3.9685758   150.3859168
RMM:   2    -0.182341155307E+03   -0.28250E-03   -0.26921E-03   416   0.183E-01    0.261E-02
SOL: 227  -0.19272E+01    0.00000E+00   -0.19272E+01    75
  FERMI_SHIFT =   2.651825507401616E-002
Total rVV10 correction in eV:      3.9685752   150.3858692
RMM:   3    -0.182341149413E+03    0.58937E-05   -0.65183E-05   316   0.281E-02
Total rVV10 correction in eV:      3.9685640   150.3853668
SOL: 228  -0.19273E+01    0.00000E+00   -0.19273E+01    80
  FERMI_SHIFT =   2.652078478389233E-002
Total rVV10 correction in eV:      3.9685697   150.3856121
  34 F= -.18234115E+03 E0= -.18234115E+03  d E =-.551312E-04  mag=     0.0000
 trial-energy change:   -0.000055  1 .order   -0.000081   -0.000107   -0.000056
 step:   0.4880(harm=  0.4880)  dis= 0.00338  next Energy=  -182.341206 (dE=-0.112E-03)
 bond charge predicted
       N       E                     dE             d eps       ncg     rms          rms(c)
SOL: 229  -0.19274E+01    0.00000E+00   -0.19274E+01    83
  FERMI_SHIFT =   2.652084673023009E-002
Total rVV10 correction in eV:      3.9685603   150.3856134
DAV:   1    -0.182340895176E+03    0.26013E-03   -0.10096E-01   416   0.107E+00    0.518E-02
SOL: 230  -0.19275E+01    0.00000E+00   -0.19275E+01    77
  FERMI_SHIFT =   2.651819359378470E-002
Total rVV10 correction in eV:      3.9685734   150.3859624
RMM:   2    -0.182341217455E+03   -0.32228E-03   -0.29926E-03   416   0.195E-01    0.268E-02
SOL: 231  -0.19276E+01    0.00000E+00   -0.19276E+01    75
  FERMI_SHIFT =   2.651819359441271E-002
Total rVV10 correction in eV:      3.9685729   150.3859093
RMM:   3    -0.182341205470E+03    0.11985E-04   -0.77544E-05   326   0.303E-02    0.190E-02
SOL: 232  -0.19277E+01    0.00000E+00   -0.19277E+01    80
  FERMI_SHIFT =   2.652084672609020E-002
Total rVV10 correction in eV:      3.9685673   150.3856473
RMM:   4    -0.182341249861E+03   -0.44391E-04   -0.62548E-05   324   0.353E-02    0.428E-03
SOL: 233  -0.19277E+01    0.00000E+00   -0.19277E+01    69
  FERMI_SHIFT =   2.652084672607377E-002
Total rVV10 correction in eV:      3.9685672   150.3856388
RMM:   5    -0.182341251135E+03   -0.12738E-05   -0.18643E-05   282   0.207E-02
Total rVV10 correction in eV:      3.9685600   150.3853669
SOL: 234  -0.19278E+01    0.00000E+00   -0.19278E+01    71
  FERMI_SHIFT =   2.651819469986942E-002
Total rVV10 correction in eV:      3.9685671   150.3856268
  35 F= -.18234125E+03 E0= -.18234125E+03  d E =-.156853E-03  mag=     0.0000
 curvature:  -2.64 expect dE=-0.119E-02 dE for cont linesearch -0.122E-04
 ZBRENT: increasing intervall
 opt :   0.9965  next Energy=  -182.341284 (dE=-0.189E-03)
 bond charge predicted
       N       E                     dE             d eps       ncg     rms          rms(c)
SOL: 235  -0.19281E+01    0.00000E+00   -0.19281E+01    86
  FERMI_SHIFT =   2.651808038924605E-002
Total rVV10 correction in eV:      3.9685484   150.3856313
DAV:   1    -0.182339773101E+03    0.14768E-02   -0.41129E-01   448   0.216E+00    0.103E-01
SOL: 236  -0.19282E+01    0.00000E+00   -0.19282E+01    81
  FERMI_SHIFT =   2.652096006182683E-002
Total rVV10 correction in eV:      3.9685760   150.3864112
RMM:   2    -0.182341117808E+03   -0.13447E-02   -0.12428E-02   416   0.392E-01    0.568E-02
SOL: 237  -0.19283E+01    0.00000E+00   -0.19283E+01    78
  FERMI_SHIFT =   2.651808204555121E-002
Total rVV10 correction in eV:      3.9685750   150.3863130
RMM:   3    -0.182341077267E+03    0.40540E-04   -0.28060E-04   396   0.514E-02    0.409E-02
SOL: 238  -0.19284E+01    0.00000E+00   -0.19284E+01    82
  FERMI_SHIFT =   2.652096071460860E-002
Total rVV10 correction in eV:      3.9685629   150.3857540
RMM:   4    -0.182341231613E+03   -0.15435E-03   -0.20407E-04   388   0.561E-02    0.101E-02
SOL: 239  -0.19285E+01    0.00000E+00   -0.19285E+01    72
  FERMI_SHIFT =   2.651808007715822E-002
Total rVV10 correction in eV:      3.9685627   150.3857409
RMM:   5    -0.182341232264E+03   -0.65062E-06   -0.31095E-05   290   0.251E-02
Total rVV10 correction in eV:      3.9685535   150.3853670
SOL: 240  -0.19286E+01    0.00000E+00   -0.19286E+01    75
  FERMI_SHIFT =   2.652096071454843E-002
Total rVV10 correction in eV:      3.9685628   150.3857288
  36 F= -.18234123E+03 E0= -.18234123E+03  d E =-.137982E-03  mag=     0.0000
 curvature:  -7.05 expect dE=-0.123E-01 dE for cont linesearch -0.565E-04
 ZBRENT: bracketing found
 ZBRENT: interpolating
 opt :   0.7074  next Energy=  -182.341268 (dE=-0.173E-03)
 bond charge predicted
       N       E                     dE             d eps       ncg     rms          rms(c)
SOL: 241  -0.19285E+01    0.00000E+00   -0.19285E+01    83
  FERMI_SHIFT =   2.652089761341524E-002
Total rVV10 correction in eV:      3.9685734   150.3857301
DAV:   1    -0.182340807016E+03    0.42460E-03   -0.13232E-01   448   0.122E+00    0.576E-02
SOL: 242  -0.19284E+01    0.00000E+00   -0.19284E+01    78
  FERMI_SHIFT =   2.651814297919096E-002
Total rVV10 correction in eV:      3.9685823   150.3860894
RMM:   2    -0.182341218301E+03   -0.41128E-03   -0.39693E-03   416   0.225E-01    0.323E-02
SOL: 243  -0.19285E+01    0.00000E+00   -0.19285E+01    75
  FERMI_SHIFT =   2.652089761743782E-002
Total rVV10 correction in eV:      3.9685789   150.3860054
RMM:   3    -0.182341210231E+03    0.80700E-05   -0.92580E-05   332   0.348E-02
Total rVV10 correction in eV:      3.9685560   150.3853669
SOL: 244  -0.19285E+01    0.00000E+00   -0.19285E+01    78
  FERMI_SHIFT =   2.652089931008240E-002
Total rVV10 correction in eV:      3.9685642   150.3855952
  37 F= -.18234121E+03 E0= -.18234121E+03  d E =-.115950E-03  mag=     0.0000
 curvature:  -2.07 expect dE=-0.179E-02 dE for cont linesearch -0.678E-05
 ZBRENT: bisectioning
 opt :   0.8519  next Energy=  -182.341228 (dE=-0.133E-03)
 bond charge predicted
       N       E                     dE             d eps       ncg     rms          rms(c)
SOL: 245  -0.19286E+01    0.00000E+00   -0.19286E+01    80
  FERMI_SHIFT =   2.652093181226156E-002
Total rVV10 correction in eV:      3.9685589   150.3855955
DAV:   1    -0.182341155286E+03    0.63016E-04   -0.34530E-02   416   0.630E-01    0.291E-02
SOL: 246  -0.19286E+01    0.00000E+00   -0.19286E+01    75
  FERMI_SHIFT =   2.651811145635816E-002
Total rVV10 correction in eV:      3.9685648   150.3857572
RMM:   2    -0.182341271190E+03   -0.11590E-03   -0.11909E-03   416   0.126E-01    0.181E-02
SOL: 247  -0.19286E+01    0.00000E+00   -0.19286E+01    71
  FERMI_SHIFT =   2.651811145667088E-002
Total rVV10 correction in eV:      3.9685642   150.3857244
RMM:   3    -0.182341264351E+03    0.68382E-05   -0.44628E-05   300   0.289E-02
Total rVV10 correction in eV:      3.9685554   150.3853669
SOL: 248  -0.19286E+01    0.00000E+00   -0.19286E+01    75
  FERMI_SHIFT =   2.652093113592313E-002
Total rVV10 correction in eV:      3.9685596   150.3855310
  38 F= -.18234126E+03 E0= -.18234126E+03  d E =-.170070E-03  mag=     0.0000
 curvature:  -5.28 expect dE=-0.645E-02 dE for cont linesearch -0.165E-04
 ZBRENT: interpolating
 opt :   0.7805  next Energy=  -182.341269 (dE=-0.175E-03)
 bond charge predicted
       N       E                     dE             d eps       ncg     rms          rms(c)
SOL: 249  -0.19286E+01    0.00000E+00   -0.19286E+01    77
  FERMI_SHIFT =   2.652091530367116E-002
Total rVV10 correction in eV:      3.9685622   150.3855311
DAV:   1    -0.182341258090E+03    0.13100E-04   -0.85869E-03   416   0.315E-01    0.145E-02
SOL: 250  -0.19286E+01    0.00000E+00   -0.19286E+01    72
  FERMI_SHIFT =   2.651812878725321E-002
Total rVV10 correction in eV:      3.9685638   150.3855917
RMM:   2    -0.182341291152E+03   -0.33062E-04   -0.43908E-04   414   0.815E-02    0.885E-03
SOL: 251  -0.19286E+01    0.00000E+00   -0.19286E+01    68
  FERMI_SHIFT =   2.651812878710401E-002
Total rVV10 correction in eV:      3.9685630   150.3855715
RMM:   3    -0.182341281687E+03    0.94651E-05   -0.59883E-05   302   0.328E-02
Total rVV10 correction in eV:      3.9685556   150.3853669
SOL: 252  -0.19286E+01    0.00000E+00   -0.19286E+01    71
  FERMI_SHIFT =   2.652091588564379E-002
Total rVV10 correction in eV:      3.9685601   150.3854895
  39 F= -.18234128E+03 E0= -.18234128E+03  d E =-.187405E-03  mag=     0.0000
 curvature:  -1.42 expect dE=-0.146E-02 dE for cont linesearch -0.342E-08
 trial: gam= 2.27310 g(F)=  0.103E-02 g(S)=  0.000E+00 ort = 0.345E-05 (trialstep = 0.638E-01)
 search vector abs. value=  0.267E-01
 bond charge predicted
       N       E                     dE             d eps       ncg     rms          rms(c)
SOL: 253  -0.19287E+01    0.00000E+00   -0.19287E+01    80
  FERMI_SHIFT =   2.652094781420403E-002
Total rVV10 correction in eV:      3.9685558   150.3854897
DAV:   1    -0.182341226895E+03    0.64257E-04   -0.34801E-02   432   0.624E-01    0.297E-02
SOL: 254  -0.19287E+01    0.00000E+00   -0.19287E+01    74
  FERMI_SHIFT =   2.652094705598705E-002
Total rVV10 correction in eV:      3.9685603   150.3856427
RMM:   2    -0.182341343386E+03   -0.11649E-03   -0.12358E-03   416   0.130E-01    0.160E-02
SOL: 255  -0.19287E+01    0.00000E+00   -0.19287E+01    70
  FERMI_SHIFT =   2.652094705564387E-002
Total rVV10 correction in eV:      3.9685592   150.3856101
RMM:   3    -0.182341334448E+03    0.89375E-05   -0.84494E-05   310   0.377E-02
Total rVV10 correction in eV:      3.9685514   150.3853670
SOL: 256  -0.19287E+01    0.00000E+00   -0.19287E+01    74
  FERMI_SHIFT =   2.652094698287924E-002
Total rVV10 correction in eV:      3.9685544   150.3854507
  40 F= -.18234133E+03 E0= -.18234133E+03  d E =-.527616E-04  mag=     0.0000
 trial-energy change:   -0.000053  1 .order   -0.000055   -0.000066   -0.000044
 step:   0.1878(harm=  0.1878)  dis= 0.00329  next Energy=  -182.341379 (dE=-0.971E-04)
 bond charge predicted
       N       E                     dE             d eps       ncg     rms          rms(c)
SOL: 257  -0.19289E+01    0.00000E+00   -0.19289E+01    83
  FERMI_SHIFT =   2.652100640012645E-002
Total rVV10 correction in eV:      3.9685461   150.3854519
[...]
  FERMI_SHIFT =   2.651777902253863E-002
Total rVV10 correction in eV:      3.9684665   150.3854682
  51 F= -.18234205E+03 E0= -.18234205E+03  d E =-.147105E-03  mag=     0.0000
 curvature:  -1.28 expect dE=-0.318E-03 dE for cont linesearch -0.109E-05
 trial: gam= 0.40704 g(F)=  0.249E-03 g(S)=  0.000E+00 ort = 0.453E-04 (trialstep = 0.183E+00)
 search vector abs. value=  0.683E-03
 bond charge predicted
       N       E                     dE             d eps       ncg     rms          rms(c)
SOL: 311  -0.19296E+01    0.00000E+00   -0.19296E+01    77
  FERMI_SHIFT =   2.651777400805264E-002
Total rVV10 correction in eV:      3.9684670   150.3854683
DAV:   1    -0.182342077748E+03   -0.30122E-04   -0.71957E-03   416   0.298E-01    0.153E-02
SOL: 312  -0.19296E+01    0.00000E+00   -0.19296E+01    73
  FERMI_SHIFT =   2.652126671616495E-002
Total rVV10 correction in eV:      3.9684693   150.3855602
RMM:   2    -0.182342100149E+03   -0.22400E-04   -0.38343E-04   416   0.774E-02    0.824E-03
SOL: 313  -0.19296E+01    0.00000E+00   -0.19296E+01    70
  FERMI_SHIFT =   2.651777930596315E-002
Total rVV10 correction in eV:      3.9684687   150.3855377
RMM:   3    -0.182342095326E+03    0.48229E-05   -0.75306E-05   305   0.358E-02
Total rVV10 correction in eV:      3.9684643   150.3853676
SOL: 314  -0.19296E+01    0.00000E+00   -0.19296E+01    73
  FERMI_SHIFT =   2.651778041861141E-002
Total rVV10 correction in eV:      3.9684665   150.3854717
  52 F= -.18234210E+03 E0= -.18234210E+03  d E =-.494255E-04  mag=    -0.0000
 trial-energy change:   -0.000049  1 .order   -0.000042   -0.000049   -0.000035
 step:   0.6317(harm=  0.6317)  dis= 0.00100  next Energy=  -182.342130 (dE=-0.844E-04)
 bond charge predicted
       N       E                     dE             d eps       ncg     rms          rms(c)
SOL: 315  -0.19297E+01    0.00000E+00   -0.19297E+01    81
  FERMI_SHIFT =   2.651776871800934E-002
Total rVV10 correction in eV:      3.9684676   150.3854721
DAV:   1    -0.182342000453E+03    0.99696E-04   -0.42744E-02   416   0.723E-01    0.369E-02
SOL: 316  -0.19297E+01    0.00000E+00   -0.19297E+01    76
  FERMI_SHIFT =   2.652126362627261E-002
Total rVV10 correction in eV:      3.9684745   150.3857382
RMM:   2    -0.182342130310E+03   -0.12986E-03   -0.14815E-03   416   0.143E-01    0.204E-02
SOL: 317  -0.19297E+01    0.00000E+00   -0.19297E+01    74
  FERMI_SHIFT =   2.651777728952277E-002
Total rVV10 correction in eV:      3.9684734   150.3856961
RMM:   3    -0.182342125557E+03    0.47530E-05   -0.94451E-05   313   0.393E-02
Total rVV10 correction in eV:      3.9684657   150.3853677
SOL: 318  -0.19296E+01    0.00000E+00   -0.19296E+01    78
  FERMI_SHIFT =   2.651777728955172E-002
Total rVV10 correction in eV:      3.9684674   150.3855155
  53 F= -.18234213E+03 E0= -.18234213E+03  d E =-.796571E-04  mag=     0.0000
 curvature:  -0.81 expect dE=-0.340E-03 dE for cont linesearch -0.404E-06
 trial: gam= 1.85875 g(F)=  0.421E-03 g(S)=  0.000E+00 ort =-0.185E-04 (trialstep = 0.688E-01)
 search vector abs. value=  0.271E-02
 bond charge predicted
       N       E                     dE             d eps       ncg     rms          rms(c)
SOL: 319  -0.19297E+01    0.00000E+00   -0.19297E+01    76
  FERMI_SHIFT =   2.651777527946508E-002
Total rVV10 correction in eV:      3.9684674   150.3855156
DAV:   1    -0.182342126055E+03    0.42557E-05   -0.38880E-03   456   0.222E-01    0.118E-02
SOL: 320  -0.19297E+01    0.00000E+00   -0.19297E+01    71
  FERMI_SHIFT =   2.652126563853914E-002
Total rVV10 correction in eV:      3.9684695   150.3855840
RMM:   2    -0.182342173715E+03   -0.47661E-04   -0.32794E-04   406   0.726E-02    0.608E-03
SOL: 321  -0.19297E+01    0.00000E+00   -0.19297E+01    70
  FERMI_SHIFT =   2.652126563849913E-002
Total rVV10 correction in eV:      3.9684691   150.3855671
RMM:   3    -0.182342167815E+03    0.58998E-05   -0.11133E-04   312   0.415E-02    0.420E-03
SOL: 322  -0.19297E+01    0.00000E+00   -0.19297E+01    71
  FERMI_SHIFT =   2.651777527974521E-002
Total rVV10 correction in eV:      3.9684683   150.3855307
RMM:   4    -0.182342175435E+03   -0.76192E-05   -0.10438E-04   309   0.395E-02    0.240E-03
SOL: 323  -0.19297E+01    0.00000E+00   -0.19297E+01    71
  FERMI_SHIFT =   2.651777155553749E-002
Total rVV10 correction in eV:      3.9684680   150.3855037
RMM:   5    -0.182342168774E+03    0.66611E-05   -0.59820E-05   302   0.306E-02
Total rVV10 correction in eV:      3.9684665   150.3853678
SOL: 324  -0.19296E+01    0.00000E+00   -0.19296E+01    67
  FERMI_SHIFT =   2.652127007098437E-002
Total rVV10 correction in eV:      3.9684681   150.3854968
  54 F= -.18234217E+03 E0= -.18234217E+03  d E =-.432164E-04  mag=     0.0000
 ZBRENT: can't locate minimum, use default step
 trial-energy change:   -0.000043  1 .order   -0.000026   -0.000027   -0.000026
 step:   0.2750(harm=  4.4421)  dis= 0.00085  next Energy=  -182.342984 (dE=-0.859E-03)
 bond charge predicted
       N       E                     dE             d eps       ncg     rms          rms(c)
SOL: 325  -0.19297E+01    0.00000E+00   -0.19297E+01    81
  FERMI_SHIFT =   2.652127559646167E-002
Total rVV10 correction in eV:      3.9684683   150.3854981
DAV:   1    -0.182342097569E+03    0.77866E-04   -0.35406E-02   448   0.665E-01    0.330E-02
SOL: 326  -0.19297E+01    0.00000E+00   -0.19297E+01    75
  FERMI_SHIFT =   2.651777270066276E-002
Total rVV10 correction in eV:      3.9684757   150.3857249
RMM:   2    -0.182342208818E+03   -0.11125E-03   -0.11202E-03   416   0.121E-01    0.180E-02
SOL: 327  -0.19297E+01    0.00000E+00   -0.19297E+01    72
  FERMI_SHIFT =   2.651778043056338E-002
Total rVV10 correction in eV:      3.9684751   150.3856839
RMM:   3    -0.182342209126E+03   -0.30756E-06   -0.25285E-05   288   0.210E-02
Total rVV10 correction in eV:      3.9684698   150.3853679
SOL: 328  -0.19297E+01    0.00000E+00   -0.19297E+01    77
  FERMI_SHIFT =   2.651777270081143E-002
Total rVV10 correction in eV:      3.9684702   150.3854803
  55 F= -.18234221E+03 E0= -.18234221E+03  d E =-.835683E-04  mag=     0.0000
 curvature:  -1.43 expect dE=-0.317E-03 dE for cont linesearch -0.108E-04
 ZBRENT: increasing intervall
 opt :   0.6875  next Energy=  -182.342170 (dE=-0.442E-04)
 bond charge predicted
       N       E                     dE             d eps       ncg     rms          rms(c)
SOL: 329  -0.19298E+01    0.00000E+00   -0.19298E+01    84
  FERMI_SHIFT =   2.651776358088324E-002
Total rVV10 correction in eV:      3.9684706   150.3854833
DAV:   1    -0.182341718045E+03    0.49077E-03   -0.14033E-01   416   0.132E+00    0.662E-02
SOL: 330  -0.19299E+01    0.00000E+00   -0.19299E+01    78
  FERMI_SHIFT =   2.652126700853785E-002
Total rVV10 correction in eV:      3.9684867   150.3859980
RMM:   2    -0.182342168306E+03   -0.45026E-03   -0.43230E-03   416   0.236E-01    0.351E-02
SOL: 331  -0.19299E+01    0.00000E+00   -0.19299E+01    76
  FERMI_SHIFT =   2.652126700831774E-002
Total rVV10 correction in eV:      3.9684854   150.3859228
RMM:   3    -0.182342164750E+03    0.35560E-05   -0.96567E-05   363   0.344E-02
Total rVV10 correction in eV:      3.9684758   150.3853681
SOL: 332  -0.19300E+01    0.00000E+00   -0.19300E+01    80
  FERMI_SHIFT =   2.651777505804083E-002
Total rVV10 correction in eV:      3.9684757   150.3855436
  56 F= -.18234216E+03 E0= -.18234216E+03  d E =-.391927E-04  mag=     0.0000
 curvature:   5.24 expect dE= 0.406E-02 dE for cont linesearch  0.156E-03
 ZBRENT: bracketing found
 ZBRENT: interpolating
 opt :   0.4129  next Energy=  -182.342219 (dE=-0.934E-04)
 bond charge predicted
       N       E                     dE             d eps       ncg     rms          rms(c)
SOL: 333  -0.19300E+01    0.00000E+00   -0.19300E+01    82
  FERMI_SHIFT =   2.651778094093907E-002
Total rVV10 correction in eV:      3.9684754   150.3855444
DAV:   1    -0.182341995582E+03    0.17272E-03   -0.64478E-02   464   0.901E-01    0.432E-02
SOL: 334  -0.19300E+01    0.00000E+00   -0.19300E+01    76
  FERMI_SHIFT =   2.652125512329656E-002
Total rVV10 correction in eV:      3.9684850   150.3858451
RMM:   2    -0.182342215480E+03   -0.21990E-03   -0.21217E-03   416   0.166E-01    0.261E-02
SOL: 335  -0.19299E+01    0.00000E+00   -0.19299E+01    73
  FERMI_SHIFT =   2.651778493612726E-002
Total rVV10 correction in eV:      3.9684832   150.3857924
RMM:   3    -0.182342209268E+03    0.62114E-05   -0.41265E-05   301   0.264E-02
Total rVV10 correction in eV:      3.9684704   150.3853679
SOL: 336  -0.19299E+01    0.00000E+00   -0.19299E+01    77
  FERMI_SHIFT =   2.652125512346042E-002
Total rVV10 correction in eV:      3.9684739   150.3854924
  57 F= -.18234221E+03 E0= -.18234221E+03  d E =-.837110E-04  mag=     0.0000
 curvature:  -0.33 expect dE=-0.107E-03 dE for cont linesearch -0.146E-05
 ZBRENT: bisectioning
 opt :   0.5502  next Energy=  -182.342222 (dE=-0.965E-04)
 bond charge predicted
       N       E                     dE             d eps       ncg     rms          rms(c)
SOL: 337  -0.19299E+01    0.00000E+00   -0.19299E+01    79
  FERMI_SHIFT =   2.652125824331797E-002
Total rVV10 correction in eV:      3.9684741   150.3854926
DAV:   1    -0.182342182790E+03    0.32690E-04   -0.16375E-02   448   0.455E-01    0.216E-02
SOL: 338  -0.19299E+01    0.00000E+00   -0.19299E+01    73
  FERMI_SHIFT =   2.651777784225190E-002
Total rVV10 correction in eV:      3.9684781   150.3856155
RMM:   2    -0.182342239336E+03   -0.56546E-04   -0.56694E-04   416   0.870E-02    0.132E-02
SOL: 339  -0.19299E+01    0.00000E+00   -0.19299E+01    70
  FERMI_SHIFT =   2.652126157416645E-002
Total rVV10 correction in eV:      3.9684779   150.3855942
RMM:   3    -0.182342238590E+03    0.74545E-06   -0.14241E-05   278   0.186E-02
Total rVV10 correction in eV:      3.9684736   150.3853680
SOL: 340  -0.19299E+01    0.00000E+00   -0.19299E+01    74
  FERMI_SHIFT =   2.652126157414809E-002
Total rVV10 correction in eV:      3.9684747   150.3854618
  58 F= -.18234224E+03 E0= -.18234224E+03  d E =-.113033E-03  mag=     0.0000
 curvature:  -2.89 expect dE=-0.137E-02 dE for cont linesearch -0.889E-05
 ZBRENT: interpolating
 opt :   0.4878  next Energy=  -182.342241 (dE=-0.116E-03)
 bond charge predicted
       N       E                     dE             d eps       ncg     rms          rms(c)
SOL: 341  -0.19299E+01    0.00000E+00   -0.19299E+01    75
  FERMI_SHIFT =   2.652126020236799E-002
Total rVV10 correction in eV:      3.9684747   150.3854619
DAV:   1    -0.182342236094E+03    0.32414E-05   -0.34108E-03   448   0.208E-01    0.984E-03
SOL: 342  -0.19299E+01    0.00000E+00   -0.19299E+01    69
  FERMI_SHIFT =   2.652125686391985E-002
Total rVV10 correction in eV:      3.9684760   150.3855036
RMM:   2    -0.182342248123E+03   -0.12028E-04   -0.12935E-04   408   0.446E-02    0.593E-03
SOL: 343  -0.19299E+01    0.00000E+00   -0.19299E+01    66
  FERMI_SHIFT =   2.652125686395046E-002
Total rVV10 correction in eV:      3.9684756   150.3854913
RMM:   3    -0.182342247724E+03    0.39905E-06   -0.75884E-06   271   0.157E-02
Total rVV10 correction in eV:      3.9684720   150.3853680
SOL: 344  -0.19299E+01    0.00000E+00   -0.19299E+01    69
  FERMI_SHIFT =   2.651778590800966E-002
Total rVV10 correction in eV:      3.9684736   150.3854283
  59 F= -.18234225E+03 E0= -.18234225E+03  d E =-.122167E-03  mag=     0.0000
 curvature:  -0.93 expect dE=-0.365E-03 dE for cont linesearch -0.102E-07
 trial: gam= 0.83147 g(F)=  0.395E-03 g(S)=  0.000E+00 ort = 0.547E-05 (trialstep = 0.153E+00)
 search vector abs. value=  0.228E-02
 bond charge predicted
       N       E                     dE             d eps       ncg     rms          rms(c)
SOL: 345  -0.19298E+01    0.00000E+00   -0.19298E+01    79
  FERMI_SHIFT =   2.651778246746632E-002
Total rVV10 correction in eV:      3.9684717   150.3854287
DAV:   1    -0.182342244612E+03    0.35111E-05   -0.16744E-02   448   0.452E-01    0.220E-02
SOL: 346  -0.19299E+01    0.00000E+00   -0.19299E+01    73
  FERMI_SHIFT =   2.652125157301488E-002
Total rVV10 correction in eV:      3.9684770   150.3855751
RMM:   2    -0.182342290128E+03   -0.45516E-04   -0.54196E-04   416   0.864E-02    0.120E-02
SOL: 347  -0.19300E+01    0.00000E+00   -0.19300E+01    70
  FERMI_SHIFT =   2.652124777455085E-002
Total rVV10 correction in eV:      3.9684762   150.3855482
RMM:   3    -0.182342290546E+03   -0.41763E-06   -0.18001E-05   283   0.205E-02
Total rVV10 correction in eV:      3.9684721   150.3853680
SOL: 348  -0.19301E+01    0.00000E+00   -0.19301E+01    74
  FERMI_SHIFT =   2.652123296802983E-002
Total rVV10 correction in eV:      3.9684725   150.3854153
  60 F= -.18234229E+03 E0= -.18234229E+03  d E =-.428218E-04  mag=    -0.0000
 trial-energy change:   -0.000043  1 .order   -0.000049   -0.000061   -0.000038
 step:   0.3973(harm=  0.3973)  dis= 0.00132  next Energy=  -182.342327 (dE=-0.793E-04)
 bond charge predicted
       N       E                     dE             d eps       ncg     rms          rms(c)
SOL: 349  -0.19300E+01    0.00000E+00   -0.19300E+01    81
  FERMI_SHIFT =   2.652123776217094E-002
Total rVV10 correction in eV:      3.9684695   150.3854167
DAV:   1    -0.182342205707E+03    0.84421E-04   -0.42230E-02   448   0.716E-01    0.356E-02
SOL: 350  -0.19301E+01    0.00000E+00   -0.19301E+01    76
  FERMI_SHIFT =   2.652124248283774E-002
Total rVV10 correction in eV:      3.9684792   150.3856890
RMM:   2    -0.182342316702E+03   -0.11100E-03   -0.13109E-03   416   0.133E-01    0.185E-02
SOL: 351  -0.19302E+01    0.00000E+00   -0.19302E+01    73
  FERMI_SHIFT =   2.651780311184350E-002
Total rVV10 correction in eV:      3.9684781   150.3856499
RMM:   3    -0.182342317011E+03   -0.30898E-06   -0.41222E-05   301   0.271E-02
Total rVV10 correction in eV:      3.9684721   150.3853681
SOL: 352  -0.19305E+01    0.00000E+00   -0.19305E+01    77
  FERMI_SHIFT =   2.652122035708979E-002
Total rVV10 correction in eV:      3.9684729   150.3854606
  61 F= -.18234232E+03 E0= -.18234232E+03  d E =-.692875E-04  mag=     0.0000
 curvature:  -1.13 expect dE=-0.232E-03 dE for cont linesearch -0.101E-05
 ZBRENT: extrapolating
 opt :   0.4521  next Energy=  -182.342318 (dE=-0.705E-04)
 bond charge predicted
       N       E                     dE             d eps       ncg     rms          rms(c)
SOL: 353  -0.19304E+01    0.00000E+00   -0.19304E+01    74
  FERMI_SHIFT =   2.652122129166457E-002
Total rVV10 correction in eV:      3.9684722   150.3854606
DAV:   1    -0.182342342730E+03   -0.26027E-04   -0.20486E-03   448   0.159E-01    0.872E-03
SOL: 354  -0.19305E+01    0.00000E+00   -0.19305E+01    70
  FERMI_SHIFT =   2.652122129153117E-002
Total rVV10 correction in eV:      3.9684744   150.3855088
RMM:   2    -0.182342344462E+03   -0.17325E-05   -0.13817E-04   358   0.488E-02    0.384E-03
SOL: 355  -0.19305E+01    0.00000E+00   -0.19305E+01    69
  FERMI_SHIFT =   2.652122129150930E-002
Total rVV10 correction in eV:      3.9684744   150.3854984
RMM:   3    -0.182342343061E+03    0.14008E-05   -0.43359E-05   298   0.293E-02
Total rVV10 correction in eV:      3.9684725   150.3853682
SOL: 356  -0.19306E+01    0.00000E+00   -0.19306E+01    70
  FERMI_SHIFT =   2.652122129150269E-002
Total rVV10 correction in eV:      3.9684742   150.3854807
  62 F= -.18234234E+03 E0= -.18234234E+03  d E =-.953375E-04  mag=    -0.0000
 curvature:  -1.39 expect dE=-0.334E-03 dE for cont linesearch -0.469E-06
 trial: gam= 0.39440 g(F)=  0.241E-03 g(S)=  0.000E+00 ort = 0.277E-04 (trialstep = 0.212E+00)
 search vector abs. value=  0.617E-03
 bond charge predicted
       N       E                     dE             d eps       ncg     rms          rms(c)
SOL: 357  -0.19306E+01    0.00000E+00   -0.19306E+01    77
  FERMI_SHIFT =   2.652122183172255E-002
Total rVV10 correction in eV:      3.9684742   150.3854808
DAV:   1    -0.182342364838E+03   -0.20376E-04   -0.78874E-03   448   0.313E-01    0.163E-02
SOL: 358  -0.19305E+01    0.00000E+00   -0.19305E+01    72
  FERMI_SHIFT =   2.651781413597672E-002
Total rVV10 correction in eV:      3.9684786   150.3855888
RMM:   2    -0.182342384473E+03   -0.19635E-04   -0.28261E-04   416   0.654E-02    0.946E-03
SOL: 359  -0.19305E+01    0.00000E+00   -0.19305E+01    70
  FERMI_SHIFT =   2.651781413603381E-002
Total rVV10 correction in eV:      3.9684779   150.3855703
RMM:   3    -0.182342384657E+03   -0.18399E-06   -0.20976E-05   285   0.217E-02
Total rVV10 correction in eV:      3.9684718   150.3853682
SOL: 360  -0.19305E+01    0.00000E+00   -0.19305E+01    74
  FERMI_SHIFT =   2.651781887989561E-002
Total rVV10 correction in eV:      3.9684747   150.3854797
  63 F= -.18234238E+03 E0= -.18234238E+03  d E =-.415954E-04  mag=     0.0000
 trial-energy change:   -0.000042  1 .order   -0.000044   -0.000053   -0.000035
 step:   0.6042(harm=  0.6042)  dis= 0.00092  next Energy=  -182.342419 (dE=-0.760E-04)
 bond charge predicted
       N       E                     dE             d eps       ncg     rms          rms(c)
SOL: 361  -0.19305E+01    0.00000E+00   -0.19305E+01    80
  FERMI_SHIFT =   2.651781852792423E-002
Total rVV10 correction in eV:      3.9684747   150.3854802
DAV:   1    -0.182342343385E+03    0.41087E-04   -0.26494E-02   416   0.572E-01    0.296E-02
SOL: 362  -0.19304E+01    0.00000E+00   -0.19304E+01    75
  FERMI_SHIFT =   2.651781852845375E-002
Total rVV10 correction in eV:      3.9684837   150.3857059
RMM:   2    -0.182342413612E+03   -0.70227E-04   -0.88532E-04   416   0.112E-01    0.165E-02
SOL: 363  -0.19304E+01    0.00000E+00   -0.19304E+01    72
  FERMI_SHIFT =   2.652122220166361E-002
Total rVV10 correction in eV:      3.9684825   150.3856773
RMM:   3    -0.182342412113E+03    0.14990E-05   -0.48396E-05   303   0.295E-02
Total rVV10 correction in eV:      3.9684711   150.3853683
SOL: 364  -0.19303E+01    0.00000E+00   -0.19303E+01    76
  FERMI_SHIFT =   2.652121793187678E-002
Total rVV10 correction in eV:      3.9684763   150.3855192
  64 F= -.18234241E+03 E0= -.18234241E+03  d E =-.690522E-04  mag=     0.0000
 curvature:  -0.74 expect dE=-0.133E-03 dE for cont linesearch -0.180E-07
 trial: gam= 0.83554 g(F)=  0.180E-03 g(S)=  0.000E+00 ort =-0.387E-05 (trialstep = 0.291E+00)
 search vector abs. value=  0.604E-03
 bond charge predicted
       N       E                     dE             d eps       ncg     rms          rms(c)
SOL: 365  -0.19302E+01    0.00000E+00   -0.19302E+01    79
  FERMI_SHIFT =   2.652121797893917E-002
Total rVV10 correction in eV:      3.9684787   150.3855194
DAV:   1    -0.182342414016E+03   -0.40397E-06   -0.13758E-02   432   0.406E-01    0.235E-02
SOL: 366  -0.19301E+01    0.00000E+00   -0.19301E+01    75
  FERMI_SHIFT =   2.651780922448768E-002
Total rVV10 correction in eV:      3.9684840   150.3856658
RMM:   2    -0.182342457332E+03   -0.43316E-04   -0.55946E-04   416   0.896E-02    0.135E-02
SOL: 367  -0.19301E+01    0.00000E+00   -0.19301E+01    72
  FERMI_SHIFT =   2.651780490312197E-002
Total rVV10 correction in eV:      3.9684828   150.3856364
RMM:   3    -0.182342455417E+03    0.19150E-05   -0.61308E-05   305   0.328E-02
Total rVV10 correction in eV:      3.9684724   150.3853683
SOL: 368  -0.19301E+01    0.00000E+00   -0.19301E+01    75
  FERMI_SHIFT =   2.652123977162434E-002
Total rVV10 correction in eV:      3.9684780   150.3855140
  65 F= -.18234246E+03 E0= -.18234246E+03  d E =-.433035E-04  mag=     0.0000
 trial-energy change:   -0.000043  1 .order   -0.000029   -0.000051   -0.000006
 step:   0.3293(harm=  0.3293)  dis= 0.00045  next Energy=  -182.342441 (dE=-0.291E-04)
 reached required accuracy - stopping structural energy minimisation
 writing wavefunctions
SOL: 369  -0.19301E+01    0.00000E+00   -0.19301E+01     0
  FERMI_SHIFT =   2.652123977162331E-002
TACC:  Shutdown complete. Exiting. 
Job finished on c491-081.stampede2.tacc.utexas.edu at Sat May 22 16:01:15 CDT 2021
/tmp/slurmd/job7740875/slurm_script: line 17: /home1/07906/yc116: Is a directory
