 vasp.5.4.4.18Apr17-6-g9f103f2a35 (build May 01 2020 14:57:12) complex          
  
 executed on             LinuxIFC date 2021.05.21  20:03:22
 running on   48 total cores
 distrk:  each k-point on   48 cores,    1 groups
 distr:  one band on NCORES_PER_BAND=  12 cores,    4 groups


--------------------------------------------------------------------------------------------------------


 INCAR:
 POTCAR:    PAW_PBE C 08Apr2002                   
 POTCAR:    PAW_PBE F 08Apr2002                   
 POTCAR:    PAW_PBE O 08Apr2002                   

 ----------------------------------------------------------------------------- 
|                                                                             |
|  ADVICE TO THIS USER RUNNING 'VASP/VAMP'   (HEAR YOUR MASTER'S VOICE ...):  |
|                                                                             |
|      You have switched on vdW-DFT.                                          |
|      This routine was written and supplied by Jiri Klimes.                  |
|      We recommed that you carefully read and cite the following             |
|      publication                                                            |
|      J. Klimes, D.R. Bowler, A. Michelides                                  |
|        J. Phys.: Cond Matt. 22 022201 (2010)                                |
|      J. Klimes, D.R. Bowler, A. Michelides                                  |
|        Phys. Rev. B. 83, 195131 (2011)                                      |
|      and references therein.                                                |
|                                                                             |
 ----------------------------------------------------------------------------- 

 POTCAR:    PAW_PBE C 08Apr2002                   
   VRHFIN =C: s2p2                                                              
   LEXCH  = PE                                                                  
   EATOM  =   147.1560 eV,   10.8157 Ry                                         
                                                                                
   TITEL  = PAW_PBE C 08Apr2002                                                 
   LULTRA =        F    use ultrasoft PP ?                                      
   IUNSCR =        1    unscreen: 0-lin 1-nonlin 2-no                           
   RPACOR =    1.200    partial core radius                                     
   POMASS =   12.011; ZVAL   =    4.000    mass and valenz                      
   RCORE  =    1.500    outmost cutoff radius                                   
   RWIGS  =    1.630; RWIGS  =    0.863    wigner-seitz radius (au A)           
   ENMAX  =  400.000; ENMIN  =  300.000 eV                                      
   ICORE  =        2    local potential                                         
   LCOR   =        T    correct aug charges                                     
   LPAW   =        T    paw PP                                                  
   EAUG   =  644.873                                                            
   DEXC   =    0.000                                                            
   RMAX   =    1.529    core radius for proj-oper                               
   RAUG   =    1.300    factor for augmentation sphere                          
   RDEP   =    1.501    radius for radial grids                                 
   RDEPT  =    1.300    core radius for aug-charge                              
                                                                                
   Atomic configuration                                                         
    4 entries                                                                   
     n  l   j            E        occ.                                          
     1  0  0.50      -273.3789   2.0000                                         
     2  0  0.50       -13.7508   2.0000                                         
     2  1  0.50        -5.2854   2.0000                                         
     3  2  1.50        -5.4423   0.0000                                         
   Description                                                                  
     l       E           TYP  RCUT    TYP  RCUT                                 
     0    -13.7508458     23  1.200                                             
     0     -8.2022199     23  1.200                                             
     1     -5.2854383     23  1.500                                             
     1     34.0145650     23  1.500                                             
     2     -5.4423304      7  1.500                                             
  local pseudopotential read in
  partial core-charges read in
  partial kinetic energy density read in
  atomic valenz-charges read in
  non local Contribution for L=           0  read in
    real space projection operators read in
  non local Contribution for L=           0  read in
    real space projection operators read in
  non local Contribution for L=           1  read in
    real space projection operators read in
  non local Contribution for L=           1  read in
    real space projection operators read in
    PAW grid and wavefunctions read in
 
   number of l-projection  operators is LMAX  =           4
   number of lm-projection operators is LMMAX =           8
 
 POTCAR:    PAW_PBE F 08Apr2002                   
   VRHFIN =F: s2p5                                                              
   LEXCH  = PE                                                                  
   EATOM  =   659.6475 eV,   48.4827 Ry                                         
                                                                                
   TITEL  = PAW_PBE F 08Apr2002                                                 
   LULTRA =        F    use ultrasoft PP ?                                      
   IUNSCR =        1    unscreen: 0-lin 1-nonlin 2-no                           
   RPACOR =    1.200    partial core radius                                     
   POMASS =   18.998; ZVAL   =    7.000    mass and valenz                      
   RCORE  =    1.520    outmost cutoff radius                                   
   RWIGS  =    1.500; RWIGS  =    0.794    wigner-seitz radius (au A)           
   ENMAX  =  400.000; ENMIN  =  300.000 eV                                      
   ICORE  =        2    local potential                                         
   LCOR   =        T    correct aug charges                                     
   LPAW   =        T    paw PP                                                  
   EAUG   =  613.614                                                            
   RMAX   =    1.555    core radius for proj-oper                               
   RAUG   =    1.300    factor for augmentation sphere                          
   RDEP   =    1.539    radius for radial grids                                 
   RDEPT  =    1.299    core radius for aug-charge                              
                                                                                
   Atomic configuration                                                         
    4 entries                                                                   
     n  l   j            E        occ.                                          
     1  0  0.50      -663.3661   2.0000                                         
     2  0  0.50       -29.8995   2.0000                                         
     2  1  0.50       -11.1114   5.0000                                         
     3  2  1.50       -10.8847   0.0000                                         
   Description                                                                  
     l       E           TYP  RCUT    TYP  RCUT                                 
     0    -29.8995018     23  1.200                                             
     0     -9.5240782     23  1.200                                             
     1    -11.1113914     23  1.520                                             
     1      1.3605826     23  1.520                                             
     2    -10.8846608      7  1.500                                             
  local pseudopotential read in
  partial core-charges read in
  partial kinetic energy density read in
  atomic valenz-charges read in
  non local Contribution for L=           0  read in
    real space projection operators read in
  non local Contribution for L=           0  read in
    real space projection operators read in
  non local Contribution for L=           1  read in
    real space projection operators read in
  non local Contribution for L=           1  read in
    real space projection operators read in
    PAW grid and wavefunctions read in
 
   number of l-projection  operators is LMAX  =           4
   number of lm-projection operators is LMMAX =           8
 
 POTCAR:    PAW_PBE O 08Apr2002                   
   VRHFIN =O: s2p4                                                              
   LEXCH  = PE                                                                  
   EATOM  =   432.3788 eV,   31.7789 Ry                                         
                                                                                
   TITEL  = PAW_PBE O 08Apr2002                                                 
   LULTRA =        F    use ultrasoft PP ?                                      
   IUNSCR =        1    unscreen: 0-lin 1-nonlin 2-no                           
   RPACOR =    1.200    partial core radius                                     
   POMASS =   16.000; ZVAL   =    6.000    mass and valenz                      
   RCORE  =    1.520    outmost cutoff radius                                   
   RWIGS  =    1.550; RWIGS  =    0.820    wigner-seitz radius (au A)           
   ENMAX  =  400.000; ENMIN  =  300.000 eV                                      
   ICORE  =        2    local potential                                         
   LCOR   =        T    correct aug charges                                     
   LPAW   =        T    paw PP                                                  
   EAUG   =  605.392                                                            
   DEXC   =    0.000                                                            
   RMAX   =    1.553    core radius for proj-oper                               
   RAUG   =    1.300    factor for augmentation sphere                          
   RDEP   =    1.550    radius for radial grids                                 
   RDEPT  =    1.329    core radius for aug-charge                              
                                                                                
   Atomic configuration                                                         
    4 entries                                                                   
     n  l   j            E        occ.                                          
     1  0  0.50      -514.6923   2.0000                                         
     2  0  0.50       -23.9615   2.0000                                         
     2  1  0.50        -9.0305   4.0000                                         
     3  2  1.50        -9.5241   0.0000                                         
   Description                                                                  
     l       E           TYP  RCUT    TYP  RCUT                                 
     0    -23.9615318     23  1.200                                             
     0     -9.5240782     23  1.200                                             
     1     -9.0304911     23  1.520                                             
     1      8.1634956     23  1.520                                             
     2     -9.5240782      7  1.500                                             
  local pseudopotential read in
  partial core-charges read in
  partial kinetic energy density read in
  kinetic energy density of atom read in
  atomic valenz-charges read in
  non local Contribution for L=           0  read in
    real space projection operators read in
  non local Contribution for L=           0  read in
    real space projection operators read in
  non local Contribution for L=           1  read in
    real space projection operators read in
  non local Contribution for L=           1  read in
    real space projection operators read in
    PAW grid and wavefunctions read in
 
   number of l-projection  operators is LMAX  =           4
   number of lm-projection operators is LMMAX =           8
 
 Optimization of the real space projectors (new method)

 maximal supplied QI-value         = 25.13
 optimisation between [QCUT,QGAM] = [ 11.81, 23.88] = [ 39.08,159.64] Ry 
 Optimized for a Real-space Cutoff    1.18 Angstroem

   l    n(q)    QCUT    max X(q) W(low)/X(q) W(high)/X(q)  e(spline) 
   0      8    11.813   115.676    0.10E-03    0.16E-03    0.35E-06
   0      8    11.813    87.132    0.10E-03    0.16E-03    0.35E-06
   1      8    11.813     4.429    0.16E-03    0.13E-04    0.22E-06
   1      8    11.813     2.733    0.13E-03    0.10E-04    0.18E-06
 Optimization of the real space projectors (new method)

 maximal supplied QI-value         = 24.76
 optimisation between [QCUT,QGAM] = [ 11.88, 24.01] = [ 39.54,161.47] Ry 
 Optimized for a Real-space Cutoff    1.18 Angstroem

   l    n(q)    QCUT    max X(q) W(low)/X(q) W(high)/X(q)  e(spline) 
   0      8    11.883    14.049    0.56E-04    0.86E-04    0.22E-06
   0      8    11.883     8.945    0.81E-04    0.11E-03    0.30E-06
   1      8    11.883     7.086    0.16E-03    0.15E-04    0.31E-06
   1      8    11.883     6.747    0.15E-03    0.14E-04    0.28E-06
 Optimization of the real space projectors (new method)

 maximal supplied QI-value         = 24.76
 optimisation between [QCUT,QGAM] = [ 11.88, 24.01] = [ 39.54,161.47] Ry 
 Optimized for a Real-space Cutoff    1.18 Angstroem

   l    n(q)    QCUT    max X(q) W(low)/X(q) W(high)/X(q)  e(spline) 
   0      8    11.883    20.381    0.86E-04    0.11E-03    0.31E-06
   0      8    11.883    15.268    0.94E-04    0.12E-03    0.33E-06
   1      8    11.883     5.964    0.19E-03    0.18E-04    0.33E-06
   1      8    11.883     5.382    0.17E-03    0.20E-04    0.29E-06
  PAW_PBE C 08Apr2002                   :
 energy of atom  1       EATOM= -147.1560
 kinetic energy error for atom=    0.0066 (will be added to EATOM!!)
  PAW_PBE F 08Apr2002                   :
 energy of atom  2       EATOM= -659.6475
 kinetic energy error for atom=    0.0296 (will be added to EATOM!!)
  PAW_PBE O 08Apr2002                   :
 energy of atom  3       EATOM= -432.3788
 kinetic energy error for atom=    0.0194 (will be added to EATOM!!)
 
 
 POSCAR: C F O                                   
  positions in direct lattice
  velocities in cartesian coordinates

 METAGGA = SCAN     LMAXTAU =  6    LMIXTAU =  F

 exchange correlation table for  LEXCH =        8
   RHO(1)=    0.500       N(1)  =     2000
   RHO(2)=  100.500       N(2)  =     4000
 


--------------------------------------------------------------------------------------------------------


 ion  position               nearest neighbor table
   1  0.486  0.554  0.504-   9 1.35  10 1.36   3 1.55   2 1.55
   2  0.521  0.511  0.502-  12 1.35  11 1.36   1 1.55   4 1.55
   3  0.522  0.595  0.493-  18 1.35  17 1.35   7 1.55   1 1.55
   4  0.484  0.470  0.494-  14 1.36  13 1.36   5 1.55   2 1.55
   5  0.514  0.426  0.511-  15 1.36  16 1.36   6 1.54   4 1.55
   6  0.486  0.384  0.489-  20 1.38  19 1.38   5 1.54   8 1.58
   7  0.494  0.639  0.511-  22 1.34  21 1.34  23 1.34   3 1.55
   8  0.507  0.342  0.521-  25 1.24  24 1.24   6 1.58
   9  0.444  0.553  0.463-   1 1.35
  10  0.461  0.558  0.556-   1 1.36
  11  0.559  0.514  0.458-   2 1.36
  12  0.551  0.508  0.552-   2 1.35
  13  0.436  0.475  0.527-   4 1.36
  14  0.467  0.468  0.439-   4 1.36
  15  0.569  0.430  0.491-   5 1.36
  16  0.516  0.425  0.569-   5 1.36
  17  0.573  0.593  0.522-   3 1.35
  18  0.534  0.599  0.436-   3 1.35
  19  0.428  0.391  0.493-   6 1.38
  20  0.497  0.382  0.431-   6 1.38
  21  0.441  0.642  0.489-   7 1.34
  22  0.491  0.642  0.569-   7 1.34
  23  0.525  0.672  0.491-   7 1.34
  24  0.559  0.337  0.515-   8 1.24
  25  0.469  0.322  0.546-   8 1.24
 
  LATTYP: Found a simple orthorhombic cell.
 ALAT       =    23.2588903900
 B/A-ratio  =     1.0040363959
 C/A-ratio  =     1.3185368728
  
  Lattice vectors:
  
 A1 = (   0.0000000000,   0.0000000000,  23.2588903900)
 A2 = ( -23.3527724800,   0.0000000000,   0.0000000000)
 A3 = (   0.0000000000, -30.6677046000,   0.0000000000)


Analysis of symmetry for initial positions (statically):
=====================================================================
 Subroutine PRICEL returns:
 Original cell was already a primitive cell.
 

 Routine SETGRP: Setting up the symmetry group for a 
 simple orthorhombic supercell.


 Subroutine GETGRP returns: Found  1 space group operations
 (whereof  1 operations were pure point group operations)
 out of a pool of  8 trial point group operations.


The static configuration has the point symmetry C_1 .


Analysis of symmetry for dynamics (positions and initial velocities):
=====================================================================
 Subroutine PRICEL returns:
 Original cell was already a primitive cell.
 

 Routine SETGRP: Setting up the symmetry group for a 
 simple orthorhombic supercell.


 Subroutine GETGRP returns: Found  1 space group operations
 (whereof  1 operations were pure point group operations)
 out of a pool of  8 trial point group operations.


The dynamic configuration has the point symmetry C_1 .


Analysis of constrained symmetry for selective dynamics:
=====================================================================
 Subroutine PRICEL returns:
 Original cell was already a primitive cell.
 

 Routine SETGRP: Setting up the symmetry group for a 
 simple orthorhombic supercell.


 Subroutine GETGRP returns: Found  1 space group operations
 (whereof  1 operations were pure point group operations)
 out of a pool of  8 trial point group operations.


The constrained configuration has the point symmetry C_1 .


Analysis of structural, dynamic, and magnetic symmetry:
=====================================================================
 Subroutine PRICEL returns:
 Original cell was already a primitive cell.
 

 Routine SETGRP: Setting up the symmetry group for a 
 simple orthorhombic supercell.


 Subroutine GETGRP returns: Found  1 space group operations
 (whereof  1 operations were pure point group operations)
 out of a pool of  8 trial point group operations.


The magnetic configuration has the point symmetry C_1 .


 Subroutine INISYM returns: Found  1 space group operations
 (whereof  1 operations are pure point group operations),
 and found     1 'primitive' translations

 
 
 KPOINTS: K-Point Grid                            

Automatic generation of k-mesh.
Space group operators:
 irot       det(A)        alpha          n_x          n_y          n_z        tau_x        tau_y        tau_z
    1     1.000000     0.000000     1.000000     0.000000     0.000000     0.000000     0.000000     0.000000
 
 Subroutine IBZKPT returns following result:
 ===========================================
 
 Found      1 irreducible k-points:
 
 Following reciprocal coordinates:
            Coordinates               Weight
  0.000000  0.000000  0.000000      1.000000
 
 Following cartesian coordinates:
            Coordinates               Weight
  0.000000  0.000000  0.000000      1.000000
 


--------------------------------------------------------------------------------------------------------




 Dimension of arrays:
   k-points           NKPTS =      1   k-points in BZ     NKDIM =      1   number of bands    NBANDS=    104
   number of dos      NEDOS =   1200   number of ions     NIONS =     25
   non local maximal  LDIM  =      4   non local SUM 2l+1 LMDIM =      8
   total plane-waves  NPLWV = ******
   max r-space proj   IRMAX =   3240   max aug-charges    IRDMAX=   6255
   dimension x,y,z NGX =   180 NGY =  240 NGZ =  180
   dimension x,y,z NGXF=   360 NGYF=  480 NGZF=  360
   support grid    NGXF=   360 NGYF=  480 NGZF=  360
   ions per type =               8  15   2
   NGX,Y,Z   is equivalent  to a cutoff of  12.81, 13.01, 12.87 a.u.
   NGXF,Y,Z  is equivalent  to a cutoff of  25.63, 26.02, 25.73 a.u.

 SYSTEM =  SiC                                     
 POSCAR =  C F O                                   

 Startparameter for this run:
   NWRITE =      2    write-flag & timer
   PREC   = accura    normal or accurate (medium, high low for compatibility)
   ISTART =      1    job   : 0-new  1-cont  2-samecut
   ICHARG =      0    charge: 1-file 2-atom 10-const
   ISPIN  =      2    spin polarized calculation?
   LNONCOLLINEAR =      F non collinear calculations
   LSORBIT =      F    spin-orbit coupling
   INIWAV =      1    electr: 0-lowe 1-rand  2-diag
   LASPH  =      T    aspherical Exc in radial PAW
   METAGGA=      F    non-selfconsistent MetaGGA calc.

 Electronic Relaxation 1
   ENCUT  =  550.0 eV  40.42 Ry    6.36 a.u.  44.66 58.64 44.48*2*pi/ulx,y,z
   ENINI  =  550.0     initial cutoff
   ENAUG  =  644.9 eV  augmentation charge cutoff
   NELM   =    100;   NELMIN=  2; NELMDL=  0     # of ELM steps 
   EDIFF  = 0.1E-04   stopping-criterion for ELM
   LREAL  =      T    real-space projection
   NLSPLINE    = F    spline interpolate recip. space projectors
   LCOMPAT=      F    compatible to vasp.4.4
   GGA_COMPAT  = T    GGA compatible to vasp.4.4-vasp.4.6
   LMAXPAW     = -100 max onsite density
   LMAXMIX     =    2 max onsite mixed and CHGCAR
   VOSKOWN=      0    Vosko Wilk Nusair interpolation
   ROPT   =   -0.00025  -0.00025  -0.00025
 Ionic relaxation
   EDIFFG = -.2E-01   stopping-criterion for IOM
   NSW    =    500    number of steps for IOM
   NBLOCK =      1;   KBLOCK =    500    inner block; outer block 
   IBRION =      2    ionic relax: 0-MD 1-quasi-New 2-CG
   NFREE  =      1    steps in history (QN), initial steepest desc. (CG)
   ISIF   =      2    stress and relaxation
   IWAVPR =     11    prediction:  0-non 1-charg 2-wave 3-comb
   ISYM   =      2    0-nonsym 1-usesym 2-fastsym
   LCORR  =      T    Harris-Foulkes like correction to forces

   POTIM  = 0.5000    time-step for ionic-motion
   TEIN   =    0.0    initial temperature
   TEBEG  =    0.0;   TEEND  =   0.0 temperature during run
   SMASS  =  -3.00    Nose mass-parameter (am)
   estimated Nose-frequenzy (Omega)   =  0.10E-29 period in steps =****** mass=  -0.125E-25a.u.
   SCALEE = 1.0000    scale energy and forces
   NPACO  =    256;   APACO  = 16.0  distance and # of slots for P.C.
   PSTRESS=    0.0 pullay stress

  Mass of Ions in am
   POMASS =  12.01 19.00 16.00
  Ionic Valenz
   ZVAL   =   4.00  7.00  6.00
  Atomic Wigner-Seitz radii
   RWIGS  =  -1.00 -1.00 -1.00
  virtual crystal weights 
   VCA    =   1.00  1.00  1.00
   NELECT =     150.0000    total number of electrons
   NUPDOWN=      -1.0000    fix difference up-down

 DOS related values:
   EMIN   =  10.00;   EMAX   =-10.00  energy-range for DOS
   EFERMI =   0.00
   ISMEAR =     0;   SIGMA  =   0.05  broadening in eV -4-tet -1-fermi 0-gaus

 Electronic relaxation 2 (details)
   IALGO  =     68    algorithm
   LDIAG  =      T    sub-space diagonalisation (order eigenvalues)
   LSUBROT=      F    optimize rotation matrix (better conditioning)
   TURBO    =      0    0=normal 1=particle mesh
   IRESTART =      0    0=no restart 2=restart with 2 vectors
   NREBOOT  =      0    no. of reboots
   NMIN     =      0    reboot dimension
   EREF     =   0.00    reference energy to select bands
   IMIX   =      4    mixing-type and parameters
     AMIX     =   0.40;   BMIX     =  1.00
     AMIX_MAG =   1.60;   BMIX_MAG =  1.00
     AMIN     =   0.10
     WC   =   100.;   INIMIX=   1;  MIXPRE=   1;  MAXMIX= -45

 Intra band minimization:
   WEIMIN = 0.0010     energy-eigenvalue tresh-hold
   EBREAK =  0.24E-07  absolut break condition
   DEPER  =   0.30     relativ break condition  

   TIME   =   0.40     timestep for ELM

  volume/ion in A,a.u.               =     666.30      4496.40
  Fermi-wavevector in a.u.,A,eV,Ry     =   0.340593  0.643627  1.578324  0.116004
  Thomas-Fermi vector in A             =   1.244434
 
 Write flags
   LWAVE        =      T    write WAVECAR
   LDOWNSAMPLE  =      F    k-point downsampling of WAVECAR
   LCHARG       =      F    write CHGCAR
   LVTOT        =      F    write LOCPOT, total local potential
   LVHAR        =      T    write LOCPOT, Hartree potential only
   LELF         =      F    write electronic localiz. function (ELF)
   LORBIT       =     11    0 simple, 1 ext, 2 COOP (PROOUT), +10 PAW based schemes


 Dipole corrections
   LMONO  =      F    monopole corrections only (constant potential shift)
   LDIPOL =      F    correct potential (dipole corrections)
   IDIPOL =      0    1-x, 2-y, 3-z, 4-all directions 
   EPSILON=  1.0000000 bulk dielectric constant

 Exchange correlation treatment:
   GGA     =    --    GGA type
   LEXCH   =     8    internal setting for exchange type
   VOSKOWN=      0    Vosko Wilk Nusair interpolation
   LHFCALC =     F    Hartree Fock is set to
   LHFONE  =     F    Hartree Fock one center treatment
   AEXX    =    0.0000 exact exchange contribution

 vdW DFT:
   LUSE_VDW   =     T    switch on vdW DFT
   Zab_VDW    =-.8491    correlation parameter
   PARAM1     =0.1234
   PARAM2     =1.0000
   PARAM3     =0.0000
   -- rVV10 --
   BPARAM     =15.7000
   CPARAM     = 0.0093

 Linear response parameters
   LEPSILON=     F    determine dielectric tensor
   LRPA    =     F    only Hartree local field effects (RPA)
   LNABLA  =     F    use nabla operator in PAW spheres
   LVEL    =     F    velocity operator in full k-point grid
   LINTERFAST=   F  fast interpolation
   KINTER  =     0    interpolate to denser k-point grid
   CSHIFT  =0.1000    complex shift for real part using Kramers Kronig
   OMEGAMAX=  -1.0    maximum frequency
   DEG_THRESHOLD= 0.2000000E-02 threshold for treating states as degnerate
   RTIME   =   -0.100 relaxation time in fs
  (WPLASMAI=    0.000 imaginary part of plasma frequency in eV, 0.658/RTIME)
   DFIELD  = 0.0000000 0.0000000 0.0000000 field for delta impulse in time
 
 Orbital magnetization related:
   ORBITALMAG=     F  switch on orbital magnetization
   LCHIMAG   =     F  perturbation theory with respect to B field
   DQ        =  0.001000  dq finite difference perturbation B field
   LLRAUG    =     F  two centre corrections for induced B field

 Solvation model:
   LSOL    =     T         switch on solvation model
   EB_K    = 78.400000     relative permittivity of the bulk solvent
   SIGMA_K =  0.600000     width of the dielectric cavity
   NC_K    =  0.002500     cutoff charge density
   TAU     =  0.000000     cavity surface tension
   LAMBDA_D_K    =  3.040000     Debye length in Angstroms
   LRHOB     =     F     write boundcharge  density
   LRHOION     =     F     write ioniccharge density



--------------------------------------------------------------------------------------------------------


 conjugate gradient relaxation of ions
   using selective dynamics as specified on POSCAR
 charge density and potential will be updated during run
 spin polarized calculation
 RMM-DIIS sequential band-by-band and
  variant of blocked Davidson during initial phase
 perform sub-space diagonalisation
    before iterative eigenvector-optimisation
 modified Broyden-mixing scheme, WC =      100.0
 initial mixing is a Kerker type mixing with AMIX =  0.4000 and BMIX =      1.0000
 Hartree-type preconditioning will be used
 using additional bands           29
 real space projection scheme for non local part
 use partial core corrections
 calculate Harris-corrections to forces 
   (improved forces if not selfconsistent)
 use gradient corrections 
 use of overlap-Matrix (Vanderbilt PP)
 Gauss-broadening in eV      SIGMA  =   0.05


--------------------------------------------------------------------------------------------------------


  energy-cutoff  :      550.00
  volume of cell :    16657.46
      direct lattice vectors                 reciprocal lattice vectors
    23.352772480  0.000000000  0.000000000     0.042821468  0.000000000  0.000000000
     0.000000000 30.667704600  0.000000000     0.000000000  0.032607592  0.000000000
     0.000000000  0.000000000 23.258890390     0.000000000  0.000000000  0.042994312

  length of vectors
    23.352772480 30.667704600 23.258890390     0.042821468  0.032607592  0.042994312


 
 old parameters found on file WAVECAR:
  energy-cutoff  :      550.00
  volume of cell :    16657.46
      direct lattice vectors                 reciprocal lattice vectors
    23.352772480  0.000000000  0.000000000     0.042821468  0.000000000  0.000000000
     0.000000000 30.667704600  0.000000000     0.000000000  0.032607592  0.000000000
     0.000000000  0.000000000 23.258890390     0.000000000  0.000000000  0.042994312

  length of vectors

 
 k-points in units of 2pi/SCALE and weight: K-Point Grid                            
   0.00000000  0.00000000  0.00000000       1.000
 
 k-points in reciprocal lattice and weights: K-Point Grid                            
   0.00000000  0.00000000  0.00000000       1.000
 
 position of ions in fractional coordinates (direct lattice) 
   0.48588602  0.55404210  0.50391187
   0.52104814  0.51100640  0.50230847
   0.52243223  0.59545442  0.49272276
   0.48361423  0.46950375  0.49445539
   0.51443917  0.42639455  0.51093173
   0.48584982  0.38441883  0.48852460
   0.49354123  0.63861128  0.51127558
   0.50683310  0.34211600  0.52075472
   0.44423366  0.55285639  0.46345786
   0.46096952  0.55849500  0.55622697
   0.55874646  0.51437925  0.45815566
   0.55067273  0.50846105  0.55219822
   0.43619518  0.47510721  0.52748660
   0.46739376  0.46821497  0.43852855
   0.56895163  0.43004410  0.49114010
   0.51598196  0.42499750  0.56941404
   0.57261039  0.59272617  0.52169454
   0.53360981  0.59876670  0.43586318
   0.42778635  0.39140080  0.49294345
   0.49729694  0.38164623  0.43064084
   0.44056449  0.64164368  0.48943575
   0.49063578  0.64210471  0.56851824
   0.52467815  0.67222528  0.49135417
   0.55929735  0.33677106  0.51490527
   0.46882613  0.32150704  0.54598004
 
 position of ions in cartesian coordinates  (Angst):
  11.34678577 16.99119955 11.72043100
  12.16791870 15.67139330 11.68313757
  12.20024090 18.26122026 11.46018462
  11.29373308 14.39860245 11.50048378
  12.01358098 13.07654209 11.88370513
  11.34594035 11.78924320 11.36254023
  11.52555603 19.58474219 11.89170269
  11.83595817 10.49191252 12.11217699
  10.37408747 16.95483659 10.77951548
  10.76491632 17.12775958 12.93722220
  13.04827905 15.77483102 10.65619234
  12.85973494 15.59333335 12.84351789
  10.18636676 14.57044745 12.26875302
  10.91494012 14.35907851 10.19968743
  13.28659795 13.18846550 11.42337368
  12.04960937 13.03369778 13.24393874
  13.37204022 18.17755104 12.13403613
  12.46126842 18.36280013 10.13769384
   9.98999735 12.00336420 11.46531767
  11.61326229 11.70421372 10.01622800
  10.28840231 19.67773897 11.38373255
  11.45770567 19.69187755 13.22310347
  12.25268938 20.61560634 11.42835272
  13.06114382 10.32799553 11.97612528
  10.94838995  9.85988282 12.69888980
 


--------------------------------------------------------------------------------------------------------


 k-point  1 :   0.0000 0.0000 0.0000  plane waves:  487853

 maximum and minimum number of plane-waves per node :     40661    40642

 maximum number of plane-waves:    487853
 maximum index in each direction: 
   IXMAX=   44   IYMAX=   58   IZMAX=   44
   IXMIN=  -44   IYMIN=  -58   IZMIN=  -44


 real space projection operators:
  total allocation   :       4835.50 KBytes
  max/ min on nodes  :        410.81        394.88


 parallel 3D FFT for wavefunctions:
    minimum data exchange during FFTs selected (reduces bandwidth)
 parallel 3D FFT for charge:
    minimum data exchange during FFTs selected (reduces bandwidth)


 total amount of memory used by VASP MPI-rank0   368610. kBytes
=======================================================================

   base      :      30000. kBytes
   nonlr-proj:       1871. kBytes
   fftplans  :      65004. kBytes
   grid      :     237872. kBytes
   one-center:         18. kBytes
   wavefun   :      33845. kBytes
 
     INWAV:  cpu time    5.1359: real time    5.2396
 Broyden mixing: mesh for mixing (old mesh)
   NGX = 89   NGY =117   NGZ = 89
  (NGX  =360   NGY  =480   NGZ  =360)
  gives a total of 926757 points

 charge density for first step will be calculated from the start-wavefunctions


--------------------------------------------------------------------------------------------------------


 Maximum index for non-local projection operator          286
 Maximum index for augmentation-charges          392 (set IRDMAX)


--------------------------------------------------------------------------------------------------------


 initial charge from wavefunction
 First call to EWALD:  gamma=   0.069
 Maximum number of real-space cells 3x 2x 3
 Maximum number of reciprocal cells 3x 3x 3

    FEWALD:  cpu time    0.0021: real time    0.0331


--------------------------------------- Iteration      1(   1)  ---------------------------------------


    POTLOK:  cpu time  106.9658: real time  107.3558
    SETDIJ:  cpu time    0.5236: real time    0.5831
     EDDAV:  cpu time   63.1223: real time   63.6118
       DOS:  cpu time    0.0014: real time    0.0856
    CHARGE:  cpu time   11.4213: real time   11.4392
    MIXING:  cpu time    0.0615: real time    0.1102
    --------------------------------------------
      LOOP:  cpu time  182.0961: real time  183.1858

 eigenvalue-minimisations  :   576
 total energy-change (2. order) :-0.1823033E+03  (-0.8807815E-01)
 number of electron     150.0000035 magnetization       0.0000000
 augmentation part       21.0698350 magnetization       0.0000003

 Broyden mixing:
  rms(total) = 0.66642E-01    rms(broyden)= 0.66596E-01
  rms(prec ) = 0.70224E-01
  weight for this iteration     100.00

 Free energy of the ion-electron system (eV)
  ---------------------------------------------------
  alpha Z        PSCENC =         5.25036477
  Ewald energy   TEWEN  =     26451.22927815
  -Hartree energ DENC   =    -36915.01624802
  -exchange      EXHF   =         0.00000000
  -V(xc)+E(xc)   XCENC  =       876.85540484
  PAW double counting   =     13668.48291241   -13773.72518271
  entropy T*S    EENTRO =        -0.00000000
  eigenvalues    EBANDS =     -2653.60885757
  atomic energy  EATOM  =     11936.18202690
  Solvation  Ediel_sol  =       222.04699723
  ---------------------------------------------------
  free energy    TOTEN  =      -182.30330402 eV

  energy without entropy =     -182.30330402  energy(sigma->0) =     -182.30330402


--------------------------------------------------------------------------------------------------------




--------------------------------------- Iteration      1(   2)  ---------------------------------------


    POTLOK:  cpu time   94.8841: real time   95.0922
    SETDIJ:  cpu time    0.4058: real time    0.4067
    EDDIAG:  cpu time   12.3258: real time   12.3927
  RMM-DIIS:  cpu time   69.1747: real time   69.3394
    ORTHCH:  cpu time    0.1214: real time    0.1217
       DOS:  cpu time    0.0005: real time    0.0005
    CHARGE:  cpu time   11.4848: real time   11.5036
    MIXING:  cpu time    0.0560: real time    0.0763
    --------------------------------------------
      LOOP:  cpu time  188.4532: real time  188.9331

 eigenvalue-minimisations  :   416
 total energy-change (2. order) :-0.6265697E-02  (-0.2236697E-01)
 number of electron     150.0000035 magnetization       0.0000000
 augmentation part       21.0575914 magnetization       0.0000003

 Broyden mixing:
  rms(total) = 0.37976E-01    rms(broyden)= 0.37967E-01
  rms(prec ) = 0.41234E-01
  weight for this iteration     100.00

 eigenvalues of (default mixing * dielectric matrix)
  average eigenvalue GAMMA=   1.1627
  1.1627

 Free energy of the ion-electron system (eV)
  ---------------------------------------------------
  alpha Z        PSCENC =         5.25036477
  Ewald energy   TEWEN  =     26451.22927815
  -Hartree energ DENC   =    -36914.90457445
  -exchange      EXHF   =         0.00000000
  -V(xc)+E(xc)   XCENC  =       876.98570524
  PAW double counting   =     13673.57130615   -13778.84569646
  entropy T*S    EENTRO =        -0.00000000
  eigenvalues    EBANDS =     -2653.37797976
  atomic energy  EATOM  =     11936.18202690
  Solvation  Ediel_sol  =       221.59999976
  ---------------------------------------------------
  free energy    TOTEN  =      -182.30956972 eV

  energy without entropy =     -182.30956972  energy(sigma->0) =     -182.30956972


--------------------------------------------------------------------------------------------------------




--------------------------------------- Iteration      1(   3)  ---------------------------------------


    POTLOK:  cpu time   94.0993: real time   94.2836
    SETDIJ:  cpu time    0.4078: real time    0.4086
    EDDIAG:  cpu time   12.3080: real time   12.3304
  RMM-DIIS:  cpu time   70.7365: real time   70.8568
    ORTHCH:  cpu time    0.1195: real time    0.1197
       DOS:  cpu time    0.0004: real time    0.0004
    CHARGE:  cpu time   11.4271: real time   11.4459
    MIXING:  cpu time    0.0571: real time    0.0572
    --------------------------------------------
      LOOP:  cpu time  189.1557: real time  189.5028

 eigenvalue-minimisations  :   428
 total energy-change (2. order) : 0.2229227E-02  (-0.2182702E-02)
 number of electron     150.0000035 magnetization       0.0000000
 augmentation part       21.0527314 magnetization       0.0000000

 Broyden mixing:
  rms(total) = 0.24083E-01    rms(broyden)= 0.24077E-01
  rms(prec ) = 0.26846E-01
  weight for this iteration     100.00

 eigenvalues of (default mixing * dielectric matrix)
  average eigenvalue GAMMA=   1.3210
  1.3210  1.3210

 Free energy of the ion-electron system (eV)
  ---------------------------------------------------
  alpha Z        PSCENC =         5.25036477
  Ewald energy   TEWEN  =     26451.22927815
  -Hartree energ DENC   =    -36914.13054375
  -exchange      EXHF   =         0.00000000
  -V(xc)+E(xc)   XCENC  =       876.99113788
  PAW double counting   =     13673.90493545   -13779.17094563
  entropy T*S    EENTRO =        -0.00000000
  eigenvalues    EBANDS =     -2653.53165645
  atomic energy  EATOM  =     11936.18202690
  Solvation  Ediel_sol  =       220.96806220
  ---------------------------------------------------
  free energy    TOTEN  =      -182.30734049 eV

  energy without entropy =     -182.30734049  energy(sigma->0) =     -182.30734049


--------------------------------------------------------------------------------------------------------




--------------------------------------- Iteration      1(   4)  ---------------------------------------


    POTLOK:  cpu time   93.1334: real time   93.3103
    SETDIJ:  cpu time    0.4063: real time    0.4073
    EDDIAG:  cpu time   12.2781: real time   12.3010
  RMM-DIIS:  cpu time   70.1302: real time   70.2551
    ORTHCH:  cpu time    0.1248: real time    0.1251
       DOS:  cpu time    0.0004: real time    0.0004
    CHARGE:  cpu time   11.5066: real time   11.5257
    MIXING:  cpu time    0.0592: real time    0.0598
    --------------------------------------------
      LOOP:  cpu time  187.6391: real time  187.9846

 eigenvalue-minimisations  :   420
 total energy-change (2. order) : 0.1799261E-02  (-0.4298556E-03)
 number of electron     150.0000035 magnetization       0.0000000
 augmentation part       21.0552743 magnetization      -0.0000000

 Broyden mixing:
  rms(total) = 0.12760E-01    rms(broyden)= 0.12759E-01
  rms(prec ) = 0.15760E-01
  weight for this iteration     100.00

 eigenvalues of (default mixing * dielectric matrix)
  average eigenvalue GAMMA=   1.5685
  2.6418  1.0318  1.0318

 Free energy of the ion-electron system (eV)
  ---------------------------------------------------
  alpha Z        PSCENC =         5.25036477
  Ewald energy   TEWEN  =     26451.22927815
  -Hartree energ DENC   =    -36913.08657142
  -exchange      EXHF   =         0.00000000
  -V(xc)+E(xc)   XCENC  =       876.96190621
  PAW double counting   =     13673.23836372   -13778.49599391
  entropy T*S    EENTRO =        -0.00000000
  eigenvalues    EBANDS =     -2653.85326399
  atomic energy  EATOM  =     11936.18202690
  Solvation  Ediel_sol  =       220.26834834
  ---------------------------------------------------
  free energy    TOTEN  =      -182.30554123 eV

  energy without entropy =     -182.30554123  energy(sigma->0) =     -182.30554123


--------------------------------------------------------------------------------------------------------




--------------------------------------- Iteration      1(   5)  ---------------------------------------


    POTLOK:  cpu time   94.1735: real time   94.3528
    SETDIJ:  cpu time    0.4090: real time    0.4099
    EDDIAG:  cpu time   12.3558: real time   12.3757
  RMM-DIIS:  cpu time   69.2364: real time   69.3549
    ORTHCH:  cpu time    0.1198: real time    0.1200
       DOS:  cpu time    0.0004: real time    0.0004
    CHARGE:  cpu time   11.4979: real time   11.5179
    MIXING:  cpu time    0.0620: real time    0.0622
    --------------------------------------------
      LOOP:  cpu time  187.8549: real time  188.1938

 eigenvalue-minimisations  :   416
 total energy-change (2. order) : 0.2420471E-02  (-0.4016357E-03)
 number of electron     150.0000035 magnetization       0.0000000
 augmentation part       21.0561131 magnetization      -0.0000001

 Broyden mixing:
  rms(total) = 0.65683E-02    rms(broyden)= 0.65667E-02
  rms(prec ) = 0.90025E-02
  weight for this iteration     100.00

 eigenvalues of (default mixing * dielectric matrix)
  average eigenvalue GAMMA=   1.5670
  2.5258  0.9115  1.4154  1.4154

 Free energy of the ion-electron system (eV)
  ---------------------------------------------------
  alpha Z        PSCENC =         5.25036477
  Ewald energy   TEWEN  =     26451.22927815
  -Hartree energ DENC   =    -36911.96702911
  -exchange      EXHF   =         0.00000000
  -V(xc)+E(xc)   XCENC  =       876.99320416
  PAW double counting   =     13673.39624861   -13778.65149315
  entropy T*S    EENTRO =        -0.00000000
  eigenvalues    EBANDS =     -2653.88287333
  atomic energy  EATOM  =     11936.18202690
  Solvation  Ediel_sol  =       219.14715226
  ---------------------------------------------------
  free energy    TOTEN  =      -182.30312076 eV

  energy without entropy =     -182.30312076  energy(sigma->0) =     -182.30312076


--------------------------------------------------------------------------------------------------------




--------------------------------------- Iteration      1(   6)  ---------------------------------------


    POTLOK:  cpu time   92.9669: real time   93.1500
    SETDIJ:  cpu time    0.4087: real time    0.4096
    EDDIAG:  cpu time   12.2610: real time   12.2829
  RMM-DIIS:  cpu time   68.4323: real time   68.5543
    ORTHCH:  cpu time    0.1202: real time    0.1204
       DOS:  cpu time    0.0004: real time    0.0004
    CHARGE:  cpu time   11.4687: real time   11.4887
    MIXING:  cpu time    0.0669: real time    0.0670
    --------------------------------------------
      LOOP:  cpu time  185.7251: real time  186.0735

 eigenvalue-minimisations  :   408
 total energy-change (2. order) :-0.4862640E-03  (-0.2469118E-03)
 number of electron     150.0000035 magnetization       0.0000000
 augmentation part       21.0535248 magnetization      -0.0000021

 Broyden mixing:
  rms(total) = 0.77661E-02    rms(broyden)= 0.77647E-02
  rms(prec ) = 0.92440E-02
  weight for this iteration     100.00

 eigenvalues of (default mixing * dielectric matrix)
  average eigenvalue GAMMA=   1.7523
  2.8354  2.8354  0.9651  1.0628  1.0628

 Free energy of the ion-electron system (eV)
  ---------------------------------------------------
  alpha Z        PSCENC =         5.25036477
  Ewald energy   TEWEN  =     26451.22927815
  -Hartree energ DENC   =    -36911.61152531
  -exchange      EXHF   =         0.00000000
  -V(xc)+E(xc)   XCENC  =       877.01671252
  PAW double counting   =     13673.94421567   -13779.20950122
  entropy T*S    EENTRO =        -0.00000000
  eigenvalues    EBANDS =     -2653.56762726
  atomic energy  EATOM  =     11936.18202690
  Solvation  Ediel_sol  =       218.46244877
  ---------------------------------------------------
  free energy    TOTEN  =      -182.30360702 eV

  energy without entropy =     -182.30360702  energy(sigma->0) =     -182.30360702


--------------------------------------------------------------------------------------------------------




--------------------------------------- Iteration      1(   7)  ---------------------------------------


    POTLOK:  cpu time   93.4973: real time   93.6799
    SETDIJ:  cpu time    0.4074: real time    0.4083
    EDDIAG:  cpu time   12.2876: real time   12.3093
  RMM-DIIS:  cpu time   69.1877: real time   69.3034
    ORTHCH:  cpu time    0.1207: real time    0.1209
       DOS:  cpu time    0.0005: real time    0.0005
    CHARGE:  cpu time   11.4505: real time   11.4684
    MIXING:  cpu time    0.0665: real time    0.0666
    --------------------------------------------
      LOOP:  cpu time  187.0182: real time  187.3573

 eigenvalue-minimisations  :   416
 total energy-change (2. order) :-0.3178365E-03  (-0.1362339E-03)
 number of electron     150.0000035 magnetization       0.0000000
 augmentation part       21.0551657 magnetization      -0.0000035

 Broyden mixing:
  rms(total) = 0.32399E-02    rms(broyden)= 0.32387E-02
  rms(prec ) = 0.42579E-02
  weight for this iteration     100.00

 eigenvalues of (default mixing * dielectric matrix)
  average eigenvalue GAMMA=   1.6485
  2.8297  2.8297  1.1171  1.1171  0.9988  0.9988

 Free energy of the ion-electron system (eV)
  ---------------------------------------------------
  alpha Z        PSCENC =         5.25036477
  Ewald energy   TEWEN  =     26451.22927815
  -Hartree energ DENC   =    -36910.39910975
  -exchange      EXHF   =         0.00000000
  -V(xc)+E(xc)   XCENC  =       876.99560725
  PAW double counting   =     13673.63071480   -13778.89655040
  entropy T*S    EENTRO =        -0.00000000
  eigenvalues    EBANDS =     -2653.58007085
  atomic energy  EATOM  =     11936.18202690
  Solvation  Ediel_sol  =       217.28381429
  ---------------------------------------------------
  free energy    TOTEN  =      -182.30392486 eV

  energy without entropy =     -182.30392486  energy(sigma->0) =     -182.30392486


--------------------------------------------------------------------------------------------------------




--------------------------------------- Iteration      1(   8)  ---------------------------------------


    POTLOK:  cpu time   89.1037: real time   89.2753
    SETDIJ:  cpu time    0.4092: real time    0.4102
    EDDIAG:  cpu time   12.3022: real time   12.3246
  RMM-DIIS:  cpu time   65.6784: real time   65.7869
    ORTHCH:  cpu time    0.1202: real time    0.1204
       DOS:  cpu time    0.0004: real time    0.0004
    CHARGE:  cpu time   11.4202: real time   11.4382
    MIXING:  cpu time    0.0690: real time    0.0692
    --------------------------------------------
      LOOP:  cpu time  179.1035: real time  179.4252

 eigenvalue-minimisations  :   383
 total energy-change (2. order) :-0.4592741E-03  (-0.3491632E-04)
 number of electron     150.0000035 magnetization       0.0000000
 augmentation part       21.0557248 magnetization       0.0000010

 Broyden mixing:
  rms(total) = 0.31114E-02    rms(broyden)= 0.31111E-02
  rms(prec ) = 0.38766E-02
  weight for this iteration     100.00

 eigenvalues of (default mixing * dielectric matrix)
  average eigenvalue GAMMA=   1.7973
  4.2046  2.7209  1.6102  1.0544  1.0544  0.9683  0.9683

 Free energy of the ion-electron system (eV)
  ---------------------------------------------------
  alpha Z        PSCENC =         5.25036477
  Ewald energy   TEWEN  =     26451.22927815
  -Hartree energ DENC   =    -36910.11121991
  -exchange      EXHF   =         0.00000000
  -V(xc)+E(xc)   XCENC  =       876.99804977
  PAW double counting   =     13673.53987873   -13778.80407922
  entropy T*S    EENTRO =        -0.00000000
  eigenvalues    EBANDS =     -2653.60429111
  atomic energy  EATOM  =     11936.18202690
  Solvation  Ediel_sol  =       217.01560779
  ---------------------------------------------------
  free energy    TOTEN  =      -182.30438413 eV

  energy without entropy =     -182.30438413  energy(sigma->0) =     -182.30438413


--------------------------------------------------------------------------------------------------------




--------------------------------------- Iteration      1(   9)  ---------------------------------------


    POTLOK:  cpu time   91.6656: real time   91.8392
    SETDIJ:  cpu time    0.4070: real time    0.4078
    EDDIAG:  cpu time   12.2913: real time   12.3130
  RMM-DIIS:  cpu time   66.7406: real time   66.8539
    ORTHCH:  cpu time    0.1204: real time    0.1206
       DOS:  cpu time    0.0004: real time    0.0004
    CHARGE:  cpu time   11.4103: real time   11.4296
    MIXING:  cpu time    0.0735: real time    0.0737
    --------------------------------------------
      LOOP:  cpu time  182.7092: real time  183.0382

 eigenvalue-minimisations  :   394
 total energy-change (2. order) :-0.1382571E-02  (-0.9536323E-04)
 number of electron     150.0000035 magnetization       0.0000000
 augmentation part       21.0550623 magnetization      -0.0000011

 Broyden mixing:
  rms(total) = 0.11350E-02    rms(broyden)= 0.11343E-02
  rms(prec ) = 0.15662E-02
  weight for this iteration     100.00

 eigenvalues of (default mixing * dielectric matrix)
  average eigenvalue GAMMA=   1.8877
  4.9127  2.4813  2.4813  1.0455  1.0455  0.8875  1.1240  1.1240

 Free energy of the ion-electron system (eV)
  ---------------------------------------------------
  alpha Z        PSCENC =         5.25036477
  Ewald energy   TEWEN  =     26451.22927815
  -Hartree energ DENC   =    -36909.49112803
  -exchange      EXHF   =         0.00000000
  -V(xc)+E(xc)   XCENC  =       877.00397073
  PAW double counting   =     13673.60685216   -13778.87300028
  entropy T*S    EENTRO =        -0.00000000
  eigenvalues    EBANDS =     -2653.51101324
  atomic energy  EATOM  =     11936.18202690
  Solvation  Ediel_sol  =       216.29688214
  ---------------------------------------------------
  free energy    TOTEN  =      -182.30576670 eV

  energy without entropy =     -182.30576670  energy(sigma->0) =     -182.30576670


--------------------------------------------------------------------------------------------------------




--------------------------------------- Iteration      1(  10)  ---------------------------------------


    POTLOK:  cpu time   87.4633: real time   87.6315
    SETDIJ:  cpu time    0.4097: real time    0.4105
    EDDIAG:  cpu time   12.3194: real time   12.3418
  RMM-DIIS:  cpu time   65.5664: real time   65.6784
    ORTHCH:  cpu time    0.1193: real time    0.1196
       DOS:  cpu time    0.0004: real time    0.0004
    CHARGE:  cpu time   11.5158: real time   11.5344
    MIXING:  cpu time    0.0759: real time    0.0760
    --------------------------------------------
      LOOP:  cpu time  177.4702: real time  177.7928

 eigenvalue-minimisations  :   383
 total energy-change (2. order) :-0.1228354E-02  (-0.6541644E-04)
 number of electron     150.0000035 magnetization       0.0000000
 augmentation part       21.0549440 magnetization      -0.0000059

 Broyden mixing:
  rms(total) = 0.12041E-02    rms(broyden)= 0.12038E-02
  rms(prec ) = 0.13905E-02
  weight for this iteration     100.00

 eigenvalues of (default mixing * dielectric matrix)
  average eigenvalue GAMMA=   1.9710
  6.3207  2.8156  2.4656  1.0353  1.0353  1.1983  1.1983  0.9221  0.7474

 Free energy of the ion-electron system (eV)
  ---------------------------------------------------
  alpha Z        PSCENC =         5.25036477
  Ewald energy   TEWEN  =     26451.22927815
  -Hartree energ DENC   =    -36909.21671867
  -exchange      EXHF   =         0.00000000
  -V(xc)+E(xc)   XCENC  =       876.99687288
  PAW double counting   =     13673.56831532   -13778.83358773
  entropy T*S    EENTRO =        -0.00000000
  eigenvalues    EBANDS =     -2653.53602227
  atomic energy  EATOM  =     11936.18202690
  Solvation  Ediel_sol  =       216.05247560
  ---------------------------------------------------
  free energy    TOTEN  =      -182.30699506 eV

  energy without entropy =     -182.30699506  energy(sigma->0) =     -182.30699506


--------------------------------------------------------------------------------------------------------




--------------------------------------- Iteration      1(  11)  ---------------------------------------


    POTLOK:  cpu time   85.3308: real time   85.4969
    SETDIJ:  cpu time    0.4074: real time    0.4082
    EDDIAG:  cpu time   12.2794: real time   12.3004
  RMM-DIIS:  cpu time   61.4222: real time   61.5257
    ORTHCH:  cpu time    0.1215: real time    0.1218
       DOS:  cpu time    0.0004: real time    0.0004
    CHARGE:  cpu time   11.4030: real time   11.4221
    MIXING:  cpu time    0.0815: real time    0.0817
    --------------------------------------------
      LOOP:  cpu time  171.0462: real time  171.3571

 eigenvalue-minimisations  :   347
 total energy-change (2. order) :-0.4296370E-03  (-0.2471631E-04)
 number of electron     150.0000035 magnetization       0.0000000
 augmentation part       21.0550691 magnetization      -0.0000032

 Broyden mixing:
  rms(total) = 0.52227E-03    rms(broyden)= 0.52219E-03
  rms(prec ) = 0.68998E-03
  weight for this iteration     100.00

 eigenvalues of (default mixing * dielectric matrix)
  average eigenvalue GAMMA=   1.9556
  7.0124  2.9157  2.3428  1.3131  1.3131  1.0516  1.0516  0.9537  0.8008  0.8008

 Free energy of the ion-electron system (eV)
  ---------------------------------------------------
  alpha Z        PSCENC =         5.25036477
  Ewald energy   TEWEN  =     26451.22927815
  -Hartree energ DENC   =    -36909.06864069
  -exchange      EXHF   =         0.00000000
  -V(xc)+E(xc)   XCENC  =       876.99270648
  PAW double counting   =     13673.52895634   -13778.79393310
  entropy T*S    EENTRO =        -0.00000000
  eigenvalues    EBANDS =     -2653.56190796
  atomic energy  EATOM  =     11936.18202690
  Solvation  Ediel_sol  =       215.93372442
  ---------------------------------------------------
  free energy    TOTEN  =      -182.30742470 eV

  energy without entropy =     -182.30742470  energy(sigma->0) =     -182.30742470


--------------------------------------------------------------------------------------------------------




--------------------------------------- Iteration      1(  12)  ---------------------------------------


    POTLOK:  cpu time   85.7051: real time   85.8683
    SETDIJ:  cpu time    0.4088: real time    0.4097
    EDDIAG:  cpu time   12.3414: real time   12.3630
  RMM-DIIS:  cpu time   60.0670: real time   60.1685
    ORTHCH:  cpu time    0.1276: real time    0.1279
       DOS:  cpu time    0.0004: real time    0.0004
    CHARGE:  cpu time   11.4969: real time   11.5161
    MIXING:  cpu time    0.0852: real time    0.0854
    --------------------------------------------
      LOOP:  cpu time  170.2323: real time  170.5393

 eigenvalue-minimisations  :   333
 total energy-change (2. order) :-0.3974534E-03  (-0.1736383E-04)
 number of electron     150.0000035 magnetization       0.0000000
 augmentation part       21.0551449 magnetization      -0.0000032

 Broyden mixing:
  rms(total) = 0.38210E-03    rms(broyden)= 0.38200E-03
  rms(prec ) = 0.47859E-03
  weight for this iteration     100.00

 eigenvalues of (default mixing * dielectric matrix)
  average eigenvalue GAMMA=   2.1445
  8.1449  3.7837  2.6751  2.0187  1.0524  1.0524  1.3924  0.9659  0.9397  0.9397
  0.6245

 Free energy of the ion-electron system (eV)
  ---------------------------------------------------
  alpha Z        PSCENC =         5.25036477
  Ewald energy   TEWEN  =     26451.22927815
  -Hartree energ DENC   =    -36908.98305515
  -exchange      EXHF   =         0.00000000
  -V(xc)+E(xc)   XCENC  =       876.99104026
  PAW double counting   =     13673.52468666   -13778.78977975
  entropy T*S    EENTRO =        -0.00000000
  eigenvalues    EBANDS =     -2653.58746899
  atomic energy  EATOM  =     11936.18202690
  Solvation  Ediel_sol  =       215.87508501
  ---------------------------------------------------
  free energy    TOTEN  =      -182.30782215 eV

  energy without entropy =     -182.30782215  energy(sigma->0) =     -182.30782215


--------------------------------------------------------------------------------------------------------




--------------------------------------- Iteration      1(  13)  ---------------------------------------


    POTLOK:  cpu time   85.4312: real time   85.5953
    SETDIJ:  cpu time    0.4064: real time    0.4072
    EDDIAG:  cpu time   12.2861: real time   12.3082
  RMM-DIIS:  cpu time   59.3793: real time   59.4804
    ORTHCH:  cpu time    0.1198: real time    0.1201
       DOS:  cpu time    0.0004: real time    0.0004
    CHARGE:  cpu time   11.4045: real time   11.4228
    MIXING:  cpu time    0.0888: real time    0.0890
    --------------------------------------------
      LOOP:  cpu time  169.1165: real time  169.4234

 eigenvalue-minimisations  :   322
 total energy-change (2. order) :-0.3206177E-03  (-0.1223616E-04)
 number of electron     150.0000035 magnetization       0.0000000
 augmentation part       21.0551460 magnetization      -0.0000030

 Broyden mixing:
  rms(total) = 0.33162E-03    rms(broyden)= 0.33158E-03
  rms(prec ) = 0.37009E-03
  weight for this iteration     100.00

 eigenvalues of (default mixing * dielectric matrix)
  average eigenvalue GAMMA=   2.0830
  8.2662  4.0004  2.7766  1.8067  1.4996  1.0655  1.0655  1.0342  1.0342  0.9585
  0.8767  0.6121

 Free energy of the ion-electron system (eV)
  ---------------------------------------------------
  alpha Z        PSCENC =         5.25036477
  Ewald energy   TEWEN  =     26451.22927815
  -Hartree energ DENC   =    -36908.91034716
  -exchange      EXHF   =         0.00000000
  -V(xc)+E(xc)   XCENC  =       876.99033210
  PAW double counting   =     13673.53548422   -13778.80064503
  entropy T*S    EENTRO =        -0.00000000
  eigenvalues    EBANDS =     -2653.60937010
  atomic energy  EATOM  =     11936.18202690
  Solvation  Ediel_sol  =       215.82473340
  ---------------------------------------------------
  free energy    TOTEN  =      -182.30814277 eV

  energy without entropy =     -182.30814277  energy(sigma->0) =     -182.30814277


--------------------------------------------------------------------------------------------------------




--------------------------------------- Iteration      1(  14)  ---------------------------------------


    POTLOK:  cpu time   82.5158: real time   82.6765
    SETDIJ:  cpu time    0.4085: real time    0.4094
    EDDIAG:  cpu time   12.2909: real time   12.3126
  RMM-DIIS:  cpu time   54.0441: real time   54.1336
    ORTHCH:  cpu time    0.1204: real time    0.1206
       DOS:  cpu time    0.0004: real time    0.0004
    CHARGE:  cpu time   11.4583: real time   11.4760
    MIXING:  cpu time    0.0945: real time    0.0947
    --------------------------------------------
      LOOP:  cpu time  160.9330: real time  161.2239

 eigenvalue-minimisations  :   282
 total energy-change (2. order) :-0.8418525E-04  (-0.2867537E-05)
 number of electron     150.0000035 magnetization       0.0000000
 augmentation part       21.0550781 magnetization      -0.0000001

 Broyden mixing:
  rms(total) = 0.12948E-03    rms(broyden)= 0.12937E-03
  rms(prec ) = 0.17285E-03
  weight for this iteration     100.00

 eigenvalues of (default mixing * dielectric matrix)
  average eigenvalue GAMMA=   2.0972
  8.5145  4.3519  2.8770  1.9216  1.9216  1.3988  1.0554  1.0554  1.0124  0.8932
  0.8932  0.7725  0.5962

 Free energy of the ion-electron system (eV)
  ---------------------------------------------------
  alpha Z        PSCENC =         5.25036477
  Ewald energy   TEWEN  =     26451.22927815
  -Hartree energ DENC   =    -36908.89582308
  -exchange      EXHF   =         0.00000000
  -V(xc)+E(xc)   XCENC  =       876.99089417
  PAW double counting   =     13673.54624754   -13778.81134854
  entropy T*S    EENTRO =        -0.00000000
  eigenvalues    EBANDS =     -2653.61106661
  atomic energy  EATOM  =     11936.18202690
  Solvation  Ediel_sol  =       215.81119976
  ---------------------------------------------------
  free energy    TOTEN  =      -182.30822695 eV

  energy without entropy =     -182.30822695  energy(sigma->0) =     -182.30822695


--------------------------------------------------------------------------------------------------------




--------------------------------------- Iteration      1(  15)  ---------------------------------------


    POTLOK:  cpu time   82.2906: real time   82.4485
    SETDIJ:  cpu time    0.4076: real time    0.4085
    EDDIAG:  cpu time   12.3377: real time   12.3590
  RMM-DIIS:  cpu time   53.7694: real time   53.8618
    ORTHCH:  cpu time    0.1204: real time    0.1206
       DOS:  cpu time    0.0004: real time    0.0004
    CHARGE:  cpu time   11.4591: real time   11.4818
    MIXING:  cpu time    0.1051: real time    0.1053
    --------------------------------------------
      LOOP:  cpu time  160.4902: real time  160.7859

 eigenvalue-minimisations  :   278
 total energy-change (2. order) :-0.1078364E-03  (-0.1816371E-05)
 number of electron     150.0000035 magnetization       0.0000000
 augmentation part       21.0550524 magnetization      -0.0000005

 Broyden mixing:
  rms(total) = 0.19734E-03    rms(broyden)= 0.19732E-03
  rms(prec ) = 0.21334E-03
  weight for this iteration     100.00

 eigenvalues of (default mixing * dielectric matrix)
  average eigenvalue GAMMA=   2.1336
  8.9928  4.9936  2.9188  2.4070  1.6624  1.6624  1.0609  1.0609  0.9889  0.9889
  0.9781  0.8871  0.6839  0.5849

 Free energy of the ion-electron system (eV)
  ---------------------------------------------------
  alpha Z        PSCENC =         5.25036477
  Ewald energy   TEWEN  =     26451.22927815
  -Hartree energ DENC   =    -36908.86338708
  -exchange      EXHF   =         0.00000000
  -V(xc)+E(xc)   XCENC  =       876.99030812
  PAW double counting   =     13673.54132847   -13778.80630195
  entropy T*S    EENTRO =        -0.00000000
  eigenvalues    EBANDS =     -2653.62256767
  atomic energy  EATOM  =     11936.18202690
  Solvation  Ediel_sol  =       215.79061552
  ---------------------------------------------------
  free energy    TOTEN  =      -182.30833479 eV

  energy without entropy =     -182.30833479  energy(sigma->0) =     -182.30833479


--------------------------------------------------------------------------------------------------------




--------------------------------------- Iteration      1(  16)  ---------------------------------------


    POTLOK:  cpu time   79.3091: real time   79.4651
    SETDIJ:  cpu time    0.4061: real time    0.4070
    EDDIAG:  cpu time   12.2712: real time   12.2941
  RMM-DIIS:  cpu time   52.8775: real time   52.9688
    ORTHCH:  cpu time    0.1211: real time    0.1213
       DOS:  cpu time    0.0005: real time    0.0005
    CHARGE:  cpu time   11.4412: real time   11.4608
    MIXING:  cpu time    0.1064: real time    0.1066
    --------------------------------------------
      LOOP:  cpu time  156.5330: real time  156.8241

 eigenvalue-minimisations  :   272
 total energy-change (2. order) :-0.4586683E-04  (-0.1047967E-05)
 number of electron     150.0000035 magnetization       0.0000000
 augmentation part       21.0550717 magnetization      -0.0000003

 Broyden mixing:
  rms(total) = 0.67409E-04    rms(broyden)= 0.67392E-04
  rms(prec ) = 0.81731E-04
  weight for this iteration     100.00

 eigenvalues of (default mixing * dielectric matrix)
  average eigenvalue GAMMA=   2.0880
  9.1532  5.2029  2.9089  2.5593  1.6538  1.6538  1.0691  1.0691  1.0856  1.0856
  0.8970  0.8970  0.8439  0.6519  0.5891

 Free energy of the ion-electron system (eV)
  ---------------------------------------------------
  alpha Z        PSCENC =         5.25036477
  Ewald energy   TEWEN  =     26451.22927815
  -Hartree energ DENC   =    -36908.84298435
  -exchange      EXHF   =         0.00000000
  -V(xc)+E(xc)   XCENC  =       876.98973270
  PAW double counting   =     13673.53035787   -13778.79526272
  entropy T*S    EENTRO =        -0.00000000
  eigenvalues    EBANDS =     -2653.63091008
  atomic energy  EATOM  =     11936.18202690
  Solvation  Ediel_sol  =       215.77901612
  ---------------------------------------------------
  free energy    TOTEN  =      -182.30838065 eV

  energy without entropy =     -182.30838065  energy(sigma->0) =     -182.30838065


--------------------------------------------------------------------------------------------------------




--------------------------------------- Iteration      1(  17)  ---------------------------------------


    POTLOK:  cpu time   77.3645: real time   77.5145
    SETDIJ:  cpu time    0.4070: real time    0.4079
    EDDIAG:  cpu time   12.2740: real time   12.2952
  RMM-DIIS:  cpu time   52.3391: real time   52.4320
    ORTHCH:  cpu time    0.1196: real time    0.1198
       DOS:  cpu time    0.0004: real time    0.0004
    CHARGE:  cpu time   11.3796: real time   11.3990
    MIXING:  cpu time    0.1119: real time    0.1122
    --------------------------------------------
      LOOP:  cpu time  153.9961: real time  154.2810

 eigenvalue-minimisations  :   266
 total energy-change (2. order) :-0.1987500E-04  (-0.6029049E-06)
 number of electron     150.0000035 magnetization       0.0000000
 augmentation part       21.0550876 magnetization      -0.0000002

 Broyden mixing:
  rms(total) = 0.58301E-04    rms(broyden)= 0.58283E-04
  rms(prec ) = 0.69185E-04
  weight for this iteration     100.00

 eigenvalues of (default mixing * dielectric matrix)
  average eigenvalue GAMMA=   2.1135
  9.3012  5.4456  3.1204  2.4962  2.1654  1.5807  1.5807  1.0674  1.0674  1.0442
  1.0442  1.0008  0.9185  0.7659  0.6324  0.5855

 Free energy of the ion-electron system (eV)
  ---------------------------------------------------
  alpha Z        PSCENC =         5.25036477
  Ewald energy   TEWEN  =     26451.22927815
  -Hartree energ DENC   =    -36908.83485542
  -exchange      EXHF   =         0.00000000
  -V(xc)+E(xc)   XCENC  =       876.98965967
  PAW double counting   =     13673.52572718   -13778.79062418
  entropy T*S    EENTRO =        -0.00000000
  eigenvalues    EBANDS =     -2653.63288369
  atomic energy  EATOM  =     11936.18202690
  Solvation  Ediel_sol  =       215.77290611
  ---------------------------------------------------
  free energy    TOTEN  =      -182.30840053 eV

  energy without entropy =     -182.30840053  energy(sigma->0) =     -182.30840053


--------------------------------------------------------------------------------------------------------




--------------------------------------- Iteration      1(  18)  ---------------------------------------


    POTLOK:  cpu time   78.5507: real time   78.7059
    SETDIJ:  cpu time    0.4060: real time    0.4068
    EDDIAG:  cpu time   12.3422: real time   12.3639
  RMM-DIIS:  cpu time   51.9663: real time   52.0544
    ORTHCH:  cpu time    0.1216: real time    0.1218
       DOS:  cpu time    0.0004: real time    0.0004
    CHARGE:  cpu time   11.4472: real time   11.4653
    MIXING:  cpu time    0.1181: real time    0.1184
    --------------------------------------------
      LOOP:  cpu time  154.9525: real time  155.2370

 eigenvalue-minimisations  :   266
 total energy-change (2. order) :-0.3268661E-04  (-0.5566091E-06)
 number of electron     150.0000035 magnetization       0.0000000
 augmentation part       21.0550928 magnetization       0.0000002

 Broyden mixing:
  rms(total) = 0.53909E-04    rms(broyden)= 0.53904E-04
  rms(prec ) = 0.58024E-04
  weight for this iteration     100.00

 eigenvalues of (default mixing * dielectric matrix)
  average eigenvalue GAMMA=   2.1428
  9.5456  5.9746  3.7800  2.6724  2.3592  1.6152  1.6152  1.0718  1.0718  1.0661
  1.0661  0.9386  0.9386  0.7991  0.7161  0.6224  0.5754

 Free energy of the ion-electron system (eV)
  ---------------------------------------------------
  alpha Z        PSCENC =         5.25036477
  Ewald energy   TEWEN  =     26451.22927815
  -Hartree energ DENC   =    -36908.82155467
  -exchange      EXHF   =         0.00000000
  -V(xc)+E(xc)   XCENC  =       876.98973006
  PAW double counting   =     13673.52565045   -13778.79058223
  entropy T*S    EENTRO =        -0.00000000
  eigenvalues    EBANDS =     -2653.63278182
  atomic energy  EATOM  =     11936.18202690
  Solvation  Ediel_sol  =       215.75943518
  ---------------------------------------------------
  free energy    TOTEN  =      -182.30843322 eV

  energy without entropy =     -182.30843322  energy(sigma->0) =     -182.30843322


--------------------------------------------------------------------------------------------------------




--------------------------------------- Iteration      1(  19)  ---------------------------------------


    POTLOK:  cpu time   74.0320: real time   74.1726
    SETDIJ:  cpu time    0.4082: real time    0.4090
    EDDIAG:  cpu time   12.2735: real time   12.2953
  RMM-DIIS:  cpu time   52.1538: real time   52.2425
    ORTHCH:  cpu time    0.1196: real time    0.1198
       DOS:  cpu time    0.0004: real time    0.0004
    --------------------------------------------
      LOOP:  cpu time  138.9874: real time  139.2394

 eigenvalue-minimisations  :   266
 total energy-change (2. order) :-0.5939362E-05  (-0.3813276E-06)
 number of electron     150.0000035 magnetization       0.0000000
 augmentation part       21.0550928 magnetization       0.0000002

 Free energy of the ion-electron system (eV)
  ---------------------------------------------------
  alpha Z        PSCENC =         5.25036477
  Ewald energy   TEWEN  =     26451.22927815
  -Hartree energ DENC   =    -36908.81902586
  -exchange      EXHF   =         0.00000000
  -V(xc)+E(xc)   XCENC  =       876.98980082
  PAW double counting   =     13673.52785361   -13778.79280639
  entropy T*S    EENTRO =        -0.00000000
  eigenvalues    EBANDS =     -2653.63223475
  atomic energy  EATOM  =     11936.18202690
  Solvation  Ediel_sol  =       215.75630359
  ---------------------------------------------------
  free energy    TOTEN  =      -182.30843916 eV

  energy without entropy =     -182.30843916  energy(sigma->0) =     -182.30843916


--------------------------------------------------------------------------------------------------------




 average (electrostatic) potential at core
  the test charge radii are     0.6991  0.7167  0.7215
  (the norm of the test charge is              1.0000)
       1 -66.5959       2 -66.5290       3 -66.5752       4 -66.3658       5 -66.0219
       6 -65.0674       7 -67.7042       8 -63.2881       9 -92.0488      10 -92.0310
      11 -91.9842      12 -92.0021      13 -91.8668      14 -91.8697      15 -91.6458
      16 -91.6382      17 -92.0340      18 -91.9940      19 -91.0011      20 -91.0207
      21 -92.0674      22 -92.0423      23 -91.9768      24 -83.2425      25 -83.3061
 
 
 
 E-fermi :  -5.9290     XC(G=0):  -0.1812     alpha+bet : -0.1155


 spin component 1

 k-point     1 :       0.0000    0.0000    0.0000
  band No.  band energies     occupation 
      1     -35.8759      1.00000
      2     -35.3142      1.00000
      3     -34.9129      1.00000
      4     -34.6820      1.00000
      5     -34.6130      1.00000
      6     -34.3660      1.00000
      7     -33.6446      1.00000
      8     -33.6278      1.00000
      9     -33.4613      1.00000
     10     -33.3820      1.00000
     11     -33.2771      1.00000
     12     -33.1850      1.00000
     13     -33.1168      1.00000
     14     -32.8779      1.00000
     15     -32.1371      1.00000
     16     -27.7216      1.00000
     17     -25.6315      1.00000
     18     -22.3071      1.00000
     19     -21.7245      1.00000
     20     -20.9216      1.00000
     21     -19.8595      1.00000
     22     -18.6304      1.00000
     23     -17.7514      1.00000
     24     -17.3340      1.00000
     25     -16.6795      1.00000
     26     -16.5666      1.00000
     27     -16.3391      1.00000
     28     -16.1284      1.00000
     29     -16.0116      1.00000
     30     -16.0051      1.00000
     31     -15.6503      1.00000
     32     -15.5426      1.00000
     33     -15.4288      1.00000
     34     -15.2452      1.00000
     35     -14.9531      1.00000
     36     -14.8948      1.00000
     37     -14.7645      1.00000
     38     -14.6060      1.00000
     39     -14.1408      1.00000
     40     -12.9071      1.00000
     41     -12.8179      1.00000
     42     -12.6844      1.00000
     43     -12.5781      1.00000
     44     -12.4459      1.00000
     45     -12.3920      1.00000
     46     -12.3133      1.00000
     47     -12.1623      1.00000
     48     -12.0632      1.00000
     49     -12.0202      1.00000
     50     -11.9376      1.00000
     51     -11.8393      1.00000
     52     -11.7054      1.00000
     53     -11.6873      1.00000
     54     -11.4557      1.00000
     55     -11.4454      1.00000
     56     -11.2235      1.00000
     57     -11.1852      1.00000
     58     -11.1559      1.00000
     59     -11.0816      1.00000
     60     -11.0275      1.00000
     61     -10.9845      1.00000
     62     -10.9160      1.00000
     63     -10.8544      1.00000
     64     -10.8295      1.00000
     65     -10.7949      1.00000
     66     -10.6474      1.00000
     67     -10.4659      1.00000
     68     -10.3270      1.00000
     69     -10.1484      1.00000
     70     -10.1070      1.00000
     71      -9.4217      1.00000
     72      -8.6365      1.00000
     73      -6.7876      1.00000
     74      -6.2767      1.00000
     75      -6.1780      1.00000
     76      -1.3951      0.00000
     77      -1.1035      0.00000
     78      -0.5695      0.00000
     79      -0.0679      0.00000
     80       0.0915      0.00000
     81       0.1047      0.00000
     82       0.1974      0.00000
     83       0.2372      0.00000
     84       0.2466      0.00000
     85       0.2681      0.00000
     86       0.3254      0.00000
     87       0.3338      0.00000
     88       0.3848      0.00000
     89       0.3952      0.00000
     90       0.4067      0.00000
     91       0.4141      0.00000
     92       0.4253      0.00000
     93       0.4311      0.00000
     94       0.4943      0.00000
     95       0.5171      0.00000
     96       0.5223      0.00000
     97       0.5278      0.00000
     98       0.5554      0.00000
     99       0.5910      0.00000
    100       0.5965      0.00000
    101       0.6638      0.00000
    102       0.6748      0.00000
    103       0.6929      0.00000
    104       0.6973      0.00000

 spin component 2

 k-point     1 :       0.0000    0.0000    0.0000
  band No.  band energies     occupation 
      1     -35.8759      1.00000
      2     -35.3142      1.00000
      3     -34.9129      1.00000
      4     -34.6820      1.00000
      5     -34.6130      1.00000
      6     -34.3660      1.00000
      7     -33.6446      1.00000
      8     -33.6278      1.00000
      9     -33.4613      1.00000
     10     -33.3820      1.00000
     11     -33.2771      1.00000
     12     -33.1850      1.00000
     13     -33.1168      1.00000
     14     -32.8779      1.00000
     15     -32.1371      1.00000
     16     -27.7216      1.00000
     17     -25.6315      1.00000
     18     -22.3071      1.00000
     19     -21.7245      1.00000
     20     -20.9216      1.00000
     21     -19.8595      1.00000
     22     -18.6304      1.00000
     23     -17.7514      1.00000
     24     -17.3340      1.00000
     25     -16.6795      1.00000
     26     -16.5666      1.00000
     27     -16.3391      1.00000
     28     -16.1284      1.00000
     29     -16.0116      1.00000
     30     -16.0051      1.00000
     31     -15.6503      1.00000
     32     -15.5426      1.00000
     33     -15.4288      1.00000
     34     -15.2452      1.00000
     35     -14.9531      1.00000
     36     -14.8948      1.00000
     37     -14.7645      1.00000
     38     -14.6060      1.00000
     39     -14.1408      1.00000
     40     -12.9071      1.00000
     41     -12.8179      1.00000
     42     -12.6844      1.00000
     43     -12.5781      1.00000
     44     -12.4459      1.00000
     45     -12.3920      1.00000
     46     -12.3133      1.00000
     47     -12.1623      1.00000
     48     -12.0632      1.00000
     49     -12.0202      1.00000
     50     -11.9376      1.00000
     51     -11.8393      1.00000
     52     -11.7054      1.00000
     53     -11.6873      1.00000
     54     -11.4557      1.00000
     55     -11.4454      1.00000
     56     -11.2235      1.00000
     57     -11.1852      1.00000
     58     -11.1559      1.00000
     59     -11.0816      1.00000
     60     -11.0275      1.00000
     61     -10.9845      1.00000
     62     -10.9160      1.00000
     63     -10.8544      1.00000
     64     -10.8295      1.00000
     65     -10.7949      1.00000
     66     -10.6474      1.00000
     67     -10.4659      1.00000
     68     -10.3270      1.00000
     69     -10.1484      1.00000
     70     -10.1070      1.00000
     71      -9.4217      1.00000
     72      -8.6365      1.00000
     73      -6.7876      1.00000
     74      -6.2767      1.00000
     75      -6.1780      1.00000
     76      -1.3951      0.00000
     77      -1.1035      0.00000
     78      -0.5696      0.00000
     79      -0.0678      0.00000
     80       0.0915      0.00000
     81       0.1049      0.00000
     82       0.1983      0.00000
     83       0.2372      0.00000
     84       0.2465      0.00000
     85       0.2681      0.00000
     86       0.3258      0.00000
     87       0.3330      0.00000
     88       0.3848      0.00000
     89       0.3951      0.00000
     90       0.4065      0.00000
     91       0.4142      0.00000
     92       0.4253      0.00000
     93       0.4311      0.00000
     94       0.4946      0.00000
     95       0.5169      0.00000
     96       0.5222      0.00000
     97       0.5276      0.00000
     98       0.5570      0.00000
     99       0.5910      0.00000
    100       0.5973      0.00000
    101       0.6638      0.00000
    102       0.6752      0.00000
    103       0.6928      0.00000
    104       0.6970      0.00000


--------------------------------------------------------------------------------------------------------


 soft charge-density along one line, spin component           1
         0         1         2         3         4         5         6         7         8         9
 total charge-density along one line
 
 soft charge-density along one line, spin component           2
         0         1         2         3         4         5         6         7         8         9
 total charge-density along one line
 
 pseudopotential strength for first ion, spin component:           1
[...]
     77      -1.0948      0.00000
     78      -0.5985      0.00000
     79      -0.0677      0.00000
     80       0.0819      0.00000
     81       0.1046      0.00000
     82       0.1488      0.00000
     83       0.2012      0.00000
     84       0.2306      0.00000
     85       0.2517      0.00000
     86       0.2641      0.00000
     87       0.2733      0.00000
     88       0.3391      0.00000
     89       0.3996      0.00000
     90       0.4076      0.00000
     91       0.4167      0.00000
     92       0.4270      0.00000
     93       0.4319      0.00000
     94       0.4344      0.00000
     95       0.4417      0.00000
     96       0.5215      0.00000
     97       0.5238      0.00000
     98       0.5311      0.00000
     99       0.5360      0.00000
    100       0.5958      0.00000
    101       0.6039      0.00000
    102       0.6721      0.00000
    103       0.6813      0.00000
    104       0.6880      0.00000


--------------------------------------------------------------------------------------------------------


 soft charge-density along one line, spin component           1
         0         1         2         3         4         5         6         7         8         9
 total charge-density along one line
 
 soft charge-density along one line, spin component           2
         0         1         2         3         4         5         6         7         8         9
 total charge-density along one line
 
 pseudopotential strength for first ion, spin component:           1
 10.728  14.275   0.001   0.003  -0.016  -0.003  -0.007   0.040
 14.275  18.993   0.001   0.003  -0.020  -0.003  -0.009   0.051
  0.001   0.001  -4.698   0.000   0.000   9.129   0.001  -0.000
  0.003   0.003   0.000  -4.698   0.000   0.001   9.140   0.000
 -0.016  -0.020   0.000   0.000  -4.700  -0.000   0.000   9.140
 -0.003  -0.003   9.129   0.001  -0.000 -20.038  -0.002   0.000
 -0.007  -0.009   0.001   9.140   0.000  -0.002 -20.062  -0.000
  0.040   0.051  -0.000   0.000   9.140   0.000  -0.000 -20.063
 pseudopotential strength for first ion, spin component:           2
 10.728  14.275   0.001   0.003  -0.016  -0.003  -0.007   0.040
 14.275  18.993   0.001   0.003  -0.020  -0.003  -0.009   0.051
  0.001   0.001  -4.698   0.000   0.000   9.129   0.001  -0.000
  0.003   0.003   0.000  -4.698   0.000   0.001   9.140   0.000
 -0.016  -0.020   0.000   0.000  -4.700  -0.000   0.000   9.140
 -0.003  -0.003   9.129   0.001  -0.000 -20.038  -0.002   0.000
 -0.007  -0.009   0.001   9.140   0.000  -0.002 -20.062  -0.000
  0.040   0.051  -0.000   0.000   9.140   0.000  -0.000 -20.063
 total augmentation occupancy for first ion, spin component:           1
  8.063  -3.825   0.019   0.049  -0.266   0.005   0.016  -0.085
 -3.825   2.002  -0.019  -0.058   0.318  -0.003  -0.011   0.062
  0.019  -0.019   1.620  -0.026  -0.001   0.123   0.003  -0.000
  0.049  -0.058  -0.026   1.343  -0.024   0.003   0.156   0.003
 -0.266   0.318  -0.001  -0.024   1.463  -0.000   0.003   0.141
  0.005  -0.003   0.123   0.003  -0.000   0.012   0.001  -0.000
  0.016  -0.011   0.003   0.156   0.003   0.001   0.022   0.001
 -0.085   0.062  -0.000   0.003   0.141  -0.000   0.001   0.017
 total augmentation occupancy for first ion, spin component:           2
 -0.000   0.000   0.000   0.000  -0.000   0.000   0.000  -0.000
  0.000  -0.000  -0.000  -0.000  -0.000  -0.000  -0.000  -0.000
  0.000  -0.000  -0.000   0.000  -0.000   0.000  -0.000   0.000
  0.000  -0.000   0.000  -0.000   0.000  -0.000  -0.000  -0.000
 -0.000  -0.000  -0.000   0.000  -0.000   0.000  -0.000   0.000
  0.000  -0.000   0.000  -0.000   0.000   0.000  -0.000   0.000
  0.000  -0.000  -0.000  -0.000  -0.000  -0.000  -0.000  -0.000
 -0.000  -0.000   0.000  -0.000   0.000   0.000  -0.000   0.000


------------------------ aborting loop because EDIFF is reached ----------------------------------------


 


 total charge     
 
# of ion       s       p       d       tot
------------------------------------------
    1        0.832   1.599   0.000   2.431
    2        0.833   1.597   0.000   2.429
    3        0.833   1.605   0.000   2.438
    4        0.833   1.595   0.000   2.428
    5        0.835   1.594   0.000   2.429
    6        0.839   1.575   0.000   2.414
    7        0.816   1.566   0.000   2.382
    8        0.875   1.720   0.000   2.595
    9        1.758   4.402   0.000   6.160
   10        1.758   4.403   0.000   6.161
   11        1.758   4.403   0.000   6.161
   12        1.758   4.403   0.000   6.161
   13        1.758   4.403   0.000   6.161
   14        1.758   4.403   0.000   6.161
   15        1.757   4.404   0.000   6.161
   16        1.757   4.402   0.000   6.159
   17        1.758   4.402   0.000   6.159
   18        1.758   4.403   0.000   6.161
   19        1.755   4.405   0.000   6.160
   20        1.755   4.403   0.000   6.158
   21        1.759   4.412   0.000   6.170
   22        1.759   4.413   0.000   6.172
   23        1.759   4.412   0.000   6.170
   24        1.585   3.595   0.000   5.181
   25        1.586   3.596   0.000   5.182
--------------------------------------------------
tot         36.230  86.114   0.000 122.344
 


 magnetization (x)
 
# of ion       s       p       d       tot
------------------------------------------
    1        0.000  -0.000   0.000  -0.000
    2        0.000  -0.000   0.000  -0.000
    3        0.000  -0.000   0.000  -0.000
    4        0.000   0.000   0.000   0.000
    5        0.000   0.000   0.000   0.000
    6       -0.000  -0.000   0.000  -0.000
    7       -0.000  -0.000   0.000  -0.000
    8       -0.000   0.000   0.000  -0.000
    9        0.000   0.000   0.000   0.000
   10        0.000   0.000   0.000   0.000
   11       -0.000  -0.000   0.000  -0.000
   12        0.000   0.000   0.000   0.000
   13       -0.000   0.000   0.000   0.000
   14        0.000   0.000   0.000   0.000
   15        0.000  -0.000   0.000   0.000
   16        0.000  -0.000   0.000  -0.000
   17       -0.000  -0.000   0.000  -0.000
   18       -0.000   0.000   0.000   0.000
   19       -0.000   0.000   0.000   0.000
   20       -0.000  -0.000   0.000  -0.000
   21       -0.000  -0.000   0.000  -0.000
   22        0.000   0.000   0.000   0.000
   23       -0.000  -0.000   0.000  -0.000
   24       -0.000  -0.000   0.000  -0.000
   25        0.000   0.000   0.000   0.000
--------------------------------------------------
tot         -0.000  -0.000   0.000  -0.000
 
    CHARGE:  cpu time    1.4254: real time    1.4281
    FORLOC:  cpu time    0.2037: real time    0.2042
    FORNL :  cpu time    4.4333: real time    4.4406
    STRESS:  cpu time  205.7643: real time  206.1070
    FORCOR:  cpu time   31.5501: real time   31.6183
    FORHAR:  cpu time    0.4603: real time    0.4613
    MIXING:  cpu time    0.0594: real time    0.0595
    OFIELD:  cpu time    0.0001: real time    0.0001

  FORCE on cell =-STRESS in cart. coord.  units (eV):
  Direction    XX          YY          ZZ          XY          YZ          ZX
  --------------------------------------------------------------------------------------
  Alpha Z     5.25036     5.25036     5.25036
  Ewald    6008.15071 15150.76203  5305.24738   159.36562  -170.93199  -135.98683
  Hartree  9524.48991 18593.38833  8801.54409   110.73510  -105.58307   -31.84331
  E(xc)    -826.10578  -822.80019  -827.44757    -0.26826    -0.46708     0.12861
  Local  -17511.44665-35908.29987-16044.16439  -258.45147   270.80358   146.60247
  n-local  -648.81380  -655.56778  -645.28783     0.28645     2.71925     1.08974
  augment   285.32344   308.55659   278.22915    -1.03068     0.19497     1.60007
  Kinetic  3162.56686  3327.64880  3126.89757   -10.35939     3.95673    18.69371
  Fock        0.00000     0.00000     0.00000     0.00000     0.00000     0.00000
  -------------------------------------------------------------------------------------
  Total      -0.58494    -1.06173     0.26876     0.27737     0.69240     0.28446
  in kB      -0.05626    -0.10212     0.02585     0.02668     0.06660     0.02736
  external pressure =       -0.04 kB  Pullay stress =        0.00 kB


 VOLUME and BASIS-vectors are now :
 -----------------------------------------------------------------------------
  energy-cutoff  :      550.00
  volume of cell :    16657.46
      direct lattice vectors                 reciprocal lattice vectors
    23.352772480  0.000000000  0.000000000     0.042821468  0.000000000  0.000000000
     0.000000000 30.667704600  0.000000000     0.000000000  0.032607592  0.000000000
     0.000000000  0.000000000 23.258890390     0.000000000  0.000000000  0.042994312

  length of vectors
    23.352772480 30.667704600 23.258890390     0.042821468  0.032607592  0.042994312


 FORCES acting on ions
    electron-ion (+dipol)            ewald-force                    non-local-force                 convergence-correction
 -----------------------------------------------------------------------------------------------
   0.323E+02 -.809E+02 -.491E+01   -.222E+02 0.792E+02 0.313E+01   -.987E+01 0.522E+00 0.176E+01   0.987E-04 0.249E-02 -.190E-03
   -.417E+02 -.120E+02 -.223E+01   0.314E+02 0.104E+02 0.141E+01   0.101E+02 0.174E+00 0.868E+00   0.668E-03 0.143E-02 0.164E-03
   -.461E+02 -.159E+03 0.217E+02   0.370E+02 0.158E+03 -.176E+02   0.898E+01 -.276E+00 -.407E+01   0.143E-04 0.215E-02 -.366E-03
   0.360E+02 0.521E+02 0.127E+02   -.261E+02 -.551E+02 -.898E+01   -.964E+01 0.125E+01 -.351E+01   0.615E-03 -.935E-04 0.118E-02
   -.267E+02 0.137E+03 -.233E+02   0.180E+02 -.141E+03 0.172E+02   0.883E+01 0.168E+01 0.625E+01   0.217E-03 -.388E-02 0.121E-02
   0.209E+02 0.242E+03 0.953E+01   -.132E+02 -.249E+03 0.948E+00   -.714E+01 0.508E+01 -.962E+01   0.491E-03 -.439E-02 0.325E-02
   0.167E+02 -.223E+03 -.186E+02   -.127E+02 0.214E+03 0.162E+02   -.384E+01 0.766E+01 0.236E+01   -.942E-03 0.154E-02 0.242E-04
   -.916E+01 0.257E+03 -.408E+02   0.933E+01 -.258E+03 0.412E+02   0.451E+00 -.712E+00 0.665E+00   0.353E-02 0.159E-02 0.670E-03
   0.620E+03 -.139E+03 0.469E+03   -.662E+03 0.135E+03 -.508E+03   0.421E+02 0.204E+01 0.394E+02   -.747E-03 0.657E-02 -.311E-02
   0.415E+03 -.150E+03 -.651E+03   -.441E+03 0.152E+03 0.702E+03   0.254E+02 -.429E+01 -.517E+02   0.391E-02 0.324E-02 -.610E-02
   -.588E+03 -.192E+02 0.534E+03   0.627E+03 0.191E+02 -.577E+03   -.379E+02 -.242E+01 0.432E+02   -.828E-03 -.496E-03 0.151E-02
   -.493E+03 0.757E+00 -.620E+03   0.524E+03 -.774E+01 0.669E+03   -.301E+02 0.430E+01 -.489E+02   0.360E-02 -.237E-03 -.745E-03
   0.695E+03 0.479E+02 -.365E+03   -.742E+03 -.461E+02 0.397E+03   0.470E+02 -.496E+01 -.319E+02   -.525E-02 -.412E-02 0.111E-01
   0.313E+03 0.785E+02 0.722E+03   -.330E+03 -.843E+02 -.776E+03   0.169E+02 0.294E+01 0.545E+02   -.150E-02 -.575E-02 -.566E-02
   -.734E+03 0.211E+03 0.160E+03   0.788E+03 -.213E+03 -.178E+03   -.532E+02 -.150E+01 0.181E+02   0.746E-02 -.815E-02 -.406E-02
   -.104E+03 0.238E+03 -.750E+03   0.107E+03 -.246E+03 0.805E+03   -.206E+01 0.362E+01 -.553E+02   0.241E-02 -.115E-01 0.128E-01
   -.712E+03 -.247E+03 -.273E+03   0.763E+03 0.241E+03 0.301E+03   -.503E+02 0.401E+01 -.278E+02   -.556E-02 0.769E-02 -.657E-03
   -.253E+03 -.297E+03 0.720E+03   0.265E+03 0.299E+03 -.777E+03   -.120E+02 -.360E+01 0.566E+02   -.241E-02 0.832E-02 0.417E-02
   0.701E+03 0.312E+03 0.335E+02   -.753E+03 -.311E+03 -.284E+02   0.523E+02 -.453E+01 -.357E+01   0.426E-02 -.913E-02 0.166E-01
   -.569E+02 0.400E+03 0.684E+03   0.696E+02 -.408E+03 -.734E+03   -.113E+02 0.534E+01 0.511E+02   -.800E-02 -.681E-02 0.273E-02
   0.629E+03 -.450E+03 0.196E+03   -.684E+03 0.453E+03 -.218E+03   0.547E+02 -.463E+01 0.218E+02   -.359E-02 0.440E-02 -.137E-02
   0.672E+02 -.439E+03 -.669E+03   -.700E+02 0.443E+03 0.729E+03   0.284E+01 -.506E+01 -.592E+02   -.693E-02 0.586E-02 -.518E-02
   -.278E+03 -.766E+03 0.170E+03   0.310E+03 0.811E+03 -.190E+03   -.312E+02 -.458E+02 0.204E+02   -.188E-02 0.570E-02 0.495E-03
   -.455E+03 0.445E+03 -.257E+02   0.506E+03 -.456E+03 0.207E+02   -.490E+02 0.909E+01 0.576E+01   -.104E-01 0.235E-01 0.188E-01
   0.261E+03 0.513E+03 -.282E+03   -.297E+03 -.540E+03 0.309E+03   0.358E+02 0.250E+02 -.256E+02   -.281E-02 -.120E-01 -.830E-02
 -----------------------------------------------------------------------------------------------
   0.242E+01 0.505E+01 -.192E+01   0.341E-12 0.000E+00 -.341E-12   -.240E+01 -.507E+01 0.186E+01   -.236E-01 0.797E-02 0.390E-01
 
 
 POSITION                                       TOTAL-FORCE (eV/Angst)
 -----------------------------------------------------------------------------------
     11.34812     17.00380     11.72495        -0.006106     -0.005405      0.000923
     12.16811     15.68350     11.68300         0.004519      0.004896      0.000679
     12.20500     18.27088     11.46044         0.002852     -0.014439     -0.002444
     11.28859     14.41388     11.50284        -0.003958      0.010537     -0.004594
     12.00906     13.09256     11.88302         0.001982     -0.002581      0.001407
     11.34616     11.80540     11.34788        -0.001302     -0.008675     -0.001918
     11.53341     19.59743     11.89292        -0.003793      0.005715      0.004905
     11.81990     10.52274     12.10495         0.011583      0.006197     -0.011286
     10.37419     16.94696     10.78645         0.003780      0.000039      0.005131
     10.77034     17.11919     12.94309         0.002934      0.004456     -0.003817
     13.04549     15.75968     10.65498         0.001274     -0.000443     -0.000525
     12.86012     15.57681     12.84135        -0.004649     -0.000437      0.000254
     10.18368     14.55689     12.27509        -0.003117     -0.003957     -0.001782
     10.90645     14.34633     10.20494         0.003026     -0.001492     -0.003675
     13.28605     13.17470     11.43046         0.001452      0.001568      0.002149
     12.04041     13.01332     13.24187        -0.000064      0.000091      0.001288
     13.37582     18.16443     12.13208        -0.001492      0.002490     -0.004167
     12.46277     18.35479     10.13728         0.001732      0.003586      0.004252
      9.99093     11.98866     11.43366        -0.003922      0.006364     -0.002946
     11.64038     11.69794     10.01286         0.001891      0.009287     -0.002580
     10.29288     19.67430     11.39218         0.000187     -0.001411     -0.002021
     11.47518     19.69288     13.22496         0.003668     -0.000857      0.005797
     12.25503     20.62199     11.42289         0.004597      0.002864     -0.002531
     13.03841     10.30064     11.96201        -0.008182     -0.011317      0.002108
     10.94268      9.90863     12.73387        -0.008892     -0.007077      0.015391
 -----------------------------------------------------------------------------------
    total drift:                               -0.010035     -0.011886     -0.024649


--------------------------------------------------------------------------------------------------------



  FREE ENERGIE OF THE ION-ELECTRON SYSTEM (eV)
  ---------------------------------------------------
  free  energy   TOTEN  =      -182.34245542 eV

  energy  without entropy=     -182.34245542  energy(sigma->0) =     -182.34245542
 
 d Force = 0.2867671E-04[ 0.600E-05, 0.514E-04]  d Energy = 0.4330348E-04-0.146E-04
 d Force =-0.5825942E-01[-0.582E-01,-0.583E-01]  d Ewald  =-0.5825939E-01-0.275E-07


--------------------------------------------------------------------------------------------------------


    POTLOK:  cpu time   83.9740: real time   84.1317


--------------------------------------------------------------------------------------------------------


 Conjugate gradient step on ions:
 trial-energy change:   -0.000043  1 .order   -0.000029   -0.000051   -0.000006
  (g-gl).g = 0.201E-03      g.g   = 0.180E-03  gl.gl    = 0.241E-03
 g(Force)  = 0.180E-03   g(Stress)= 0.000E+00 ortho     =-0.387E-05
 gamma     =   0.83554
 trial     =   0.29081
 opt step  =   0.32929  (harmonic =   0.32929) maximal distance =0.00044509
 next E    =  -182.342441   (d E  =  -0.00003)


--------------------------------------------------------------------------------------------------------


  
 reached required accuracy - stopping structural energy minimisation
 writing wavefunctions
     LOOP+:  cpu time  812.0725: real time  815.8855
    4ORBIT:  cpu time    0.0000: real time    0.0000
 


 total charge     
 
# of ion       s       p       d       tot
------------------------------------------
    1        0.832   1.599   0.000   2.431
    2        0.833   1.597   0.000   2.429
    3        0.833   1.605   0.000   2.438
    4        0.833   1.595   0.000   2.428
    5        0.835   1.594   0.000   2.429
    6        0.839   1.575   0.000   2.414
    7        0.816   1.566   0.000   2.382
    8        0.875   1.720   0.000   2.595
    9        1.758   4.402   0.000   6.160
   10        1.758   4.403   0.000   6.161
   11        1.758   4.403   0.000   6.161
   12        1.758   4.403   0.000   6.161
   13        1.758   4.403   0.000   6.161
   14        1.758   4.403   0.000   6.161
   15        1.757   4.404   0.000   6.161
   16        1.757   4.402   0.000   6.159
   17        1.758   4.402   0.000   6.159
   18        1.758   4.403   0.000   6.161
   19        1.755   4.405   0.000   6.160
   20        1.755   4.403   0.000   6.158
   21        1.759   4.412   0.000   6.170
   22        1.759   4.413   0.000   6.172
   23        1.759   4.412   0.000   6.170
   24        1.585   3.595   0.000   5.181
   25        1.586   3.596   0.000   5.182
--------------------------------------------------
tot         36.230  86.114   0.000 122.344
 


 magnetization (x)
 
# of ion       s       p       d       tot
------------------------------------------
    1        0.000  -0.000   0.000  -0.000
    2        0.000  -0.000   0.000  -0.000
    3        0.000  -0.000   0.000  -0.000
    4        0.000   0.000   0.000   0.000
    5        0.000   0.000   0.000   0.000
    6       -0.000  -0.000   0.000  -0.000
    7       -0.000  -0.000   0.000  -0.000
    8       -0.000   0.000   0.000  -0.000
    9        0.000   0.000   0.000   0.000
   10        0.000   0.000   0.000   0.000
   11       -0.000  -0.000   0.000  -0.000
   12        0.000   0.000   0.000   0.000
   13       -0.000   0.000   0.000   0.000
   14        0.000   0.000   0.000   0.000
   15        0.000  -0.000   0.000   0.000
   16        0.000  -0.000   0.000  -0.000
   17       -0.000  -0.000   0.000  -0.000
   18       -0.000   0.000   0.000   0.000
   19       -0.000   0.000   0.000   0.000
   20       -0.000  -0.000   0.000  -0.000
   21       -0.000  -0.000   0.000  -0.000
   22        0.000   0.000   0.000   0.000
   23       -0.000  -0.000   0.000  -0.000
   24       -0.000  -0.000   0.000  -0.000
   25        0.000   0.000   0.000   0.000
--------------------------------------------------
tot         -0.000  -0.000   0.000  -0.000
 

 total amount of memory used by VASP MPI-rank0   368610. kBytes
=======================================================================

   base      :      30000. kBytes
   nonlr-proj:       1871. kBytes
   fftplans  :      65004. kBytes
   grid      :     237872. kBytes
   one-center:         18. kBytes
   wavefun   :      33845. kBytes
 
  
  
 General timing and accounting informations for this job:
 ========================================================
  
                  Total CPU time used (sec):    71712.328
                            User time (sec):    68763.411
                          System time (sec):     2948.917
                         Elapsed time (sec):    71874.170
  
                   Maximum memory used (kb):     1655972.
                   Average memory used (kb):           0.
  
                          Minor page faults:     17378782
                          Major page faults:          169
                 Voluntary context switches:       756976
