 vasp.5.4.4.18Apr17-6-g9f103f2a35 (build Jun 11 2020 13:42:08) complex          
  
 executed on             LinuxIFC date 2021.02.03  10:25:14
 running on   24 total cores
 distrk:  each k-point on    8 cores,    3 groups
 distr:  one band on NCORES_PER_BAND=   1 cores,    8 groups


--------------------------------------------------------------------------------------------------------


 INCAR:
 POTCAR:    PAW_PBE B 06Sep2000                   
 POTCAR:    PAW_PBE N 08Apr2002                   
 POTCAR:    PAW_PBE C 08Apr2002                   
 POTCAR:    PAW_PBE F 08Apr2002                   
 POTCAR:    PAW_PBE O 08Apr2002                   

 ----------------------------------------------------------------------------- 
|                                                                             |
|           W    W    AA    RRRRR   N    N  II  N    N   GGGG   !!!           |
|           W    W   A  A   R    R  NN   N  II  NN   N  G    G  !!!           |
|           W    W  A    A  R    R  N N  N  II  N N  N  G       !!!           |
|           W WW W  AAAAAA  RRRRR   N  N N  II  N  N N  G  GGG   !            |
|           WW  WW  A    A  R   R   N   NN  II  N   NN  G    G                |
|           W    W  A    A  R    R  N    N  II  N    N   GGGG   !!!           |
|                                                                             |
|      For optimal performance we recommend to set                            |
|        NCORE= 4 - approx SQRT( number of cores)                             |
|      NCORE specifies how many cores store one orbital (NPAR=cpu/NCORE).     |
|      This setting can  greatly improve the performance of VASP for DFT.     |
|      The default,   NCORE=1            might be grossly inefficient         |
|      on modern multi-core architectures or massively parallel machines.     |
|      Do your own testing !!!!                                               |
|      Unfortunately you need to use the default for GW and RPA calculations. |
|      (for HF NCORE is supported but not extensively tested yet)             |
|                                                                             |
 ----------------------------------------------------------------------------- 


 ----------------------------------------------------------------------------- 
|                                                                             |
|           W    W    AA    RRRRR   N    N  II  N    N   GGGG   !!!           |
|           W    W   A  A   R    R  NN   N  II  NN   N  G    G  !!!           |
|           W    W  A    A  R    R  N N  N  II  N N  N  G       !!!           |
|           W WW W  AAAAAA  RRRRR   N  N N  II  N  N N  G  GGG   !            |
|           WW  WW  A    A  R   R   N   NN  II  N   NN  G    G                |
|           W    W  A    A  R    R  N    N  II  N    N   GGGG   !!!           |
|                                                                             |
|      You have enabled k-point parallelism (KPAR>1).                         |
|      This developmental code was originally  written by Paul Kent at ORNL,  |
|      and carefully double checked in Vienna.                                |
|      GW as well as linear response parallelism added by Martijn Marsman     |
|      and Georg Kresse.                                                      |
|      Carefully verify results versus KPAR=1.                                |
|      Report problems to Paul Kent and Vienna.                               |
|                                                                             |
 ----------------------------------------------------------------------------- 

 POTCAR:    PAW_PBE B 06Sep2000                   
   VRHFIN =B: s2p1                                                              
   LEXCH  = PE                                                                  
   EATOM  =    71.1703 eV,    5.2309 Ry                                         
                                                                                
   TITEL  = PAW_PBE B 06Sep2000                                                 
   LULTRA =        F    use ultrasoft PP ?                                      
   IUNSCR =        1    unscreen: 0-lin 1-nonlin 2-no                           
   RPACOR =    1.200    partial core radius                                     
   POMASS =   10.811; ZVAL   =    3.000    mass and valenz                      
   RCORE  =    1.700    outmost cutoff radius                                   
   RWIGS  =    1.710; RWIGS  =    0.905    wigner-seitz radius (au A)           
   ENMAX  =  318.614; ENMIN  =  238.960 eV                                      
   ICORE  =        2    local potential                                         
   LCOR   =        T    correct aug charges                                     
   LPAW   =        T    paw PP                                                  
   EAUG   =  535.514                                                            
   DEXC   =    0.000                                                            
   RMAX   =    1.732    core radius for proj-oper                               
   RAUG   =    1.300    factor for augmentation sphere                          
   RDEP   =    1.757    radius for radial grids                                 
   RDEPT  =    1.436    core radius for aug-charge                              
                                                                                
   Atomic configuration                                                         
    4 entries                                                                   
     n  l   j            E        occ.                                          
     1  0  0.50      -180.5896   2.0000                                         
     2  0  0.50        -9.4431   2.0000                                         
     2  1  0.50        -3.6068   1.0000                                         
     3  2  1.50        -4.0817   0.0000                                         
   Description                                                                  
     l       E           TYP  RCUT    TYP  RCUT                                 
     0     -9.4430752     23  1.500                                             
     0      0.8675899     23  1.500                                             
     1     -3.6067955     23  1.700                                             
     1      6.1086146     23  1.700                                             
     2     -4.0817478      7  1.700                                             
  local pseudopotential read in
  partial core-charges read in
  partial kinetic energy density read in
  atomic valenz-charges read in
  non local Contribution for L=           0  read in
    real space projection operators read in
  non local Contribution for L=           0  read in
    real space projection operators read in
  non local Contribution for L=           1  read in
    real space projection operators read in
  non local Contribution for L=           1  read in
    real space projection operators read in
    PAW grid and wavefunctions read in
 
   number of l-projection  operators is LMAX  =           4
   number of lm-projection operators is LMMAX =           8
 
 POTCAR:    PAW_PBE N 08Apr2002                   
   VRHFIN =N: s2p3                                                              
   LEXCH  = PE                                                                  
   EATOM  =   264.5486 eV,   19.4438 Ry                                         
                                                                                
   TITEL  = PAW_PBE N 08Apr2002                                                 
   LULTRA =        F    use ultrasoft PP ?                                      
   IUNSCR =        1    unscreen: 0-lin 1-nonlin 2-no                           
   RPACOR =    1.200    partial core radius                                     
   POMASS =   14.001; ZVAL   =    5.000    mass and valenz                      
   RCORE  =    1.500    outmost cutoff radius                                   
   RWIGS  =    1.400; RWIGS  =    0.741    wigner-seitz radius (au A)           
   ENMAX  =  400.000; ENMIN  =  300.000 eV                                      
   ICORE  =        2    local potential                                         
   LCOR   =        T    correct aug charges                                     
   LPAW   =        T    paw PP                                                  
   EAUG   =  627.112                                                            
   DEXC   =    0.000                                                            
   RMAX   =    1.529    core radius for proj-oper                               
   RAUG   =    1.300    factor for augmentation sphere                          
   RDEP   =    1.514    radius for radial grids                                 
   RDEPT  =    1.338    core radius for aug-charge                              
                                                                                
   Atomic configuration                                                         
    4 entries                                                                   
     n  l   j            E        occ.                                          
     1  0  0.50      -384.7179   2.0000                                         
     2  0  0.50       -18.5828   2.0000                                         
     2  1  0.50        -7.0898   3.0000                                         
     3  2  1.50        -6.8029   0.0000                                         
   Description                                                                  
     l       E           TYP  RCUT    TYP  RCUT                                 
     0    -18.5828119     23  1.200                                             
     0    -13.5018863     23  1.200                                             
     1     -7.0897853     23  1.500                                             
     1      9.5240782     23  1.500                                             
     2     -6.8029130      7  1.500                                             
  local pseudopotential read in
  partial core-charges read in
  partial kinetic energy density read in
  atomic valenz-charges read in
  non local Contribution for L=           0  read in
    real space projection operators read in
  non local Contribution for L=           0  read in
    real space projection operators read in
  non local Contribution for L=           1  read in
    real space projection operators read in
  non local Contribution for L=           1  read in
    real space projection operators read in
    PAW grid and wavefunctions read in
 
   number of l-projection  operators is LMAX  =           4
   number of lm-projection operators is LMMAX =           8
 
 POTCAR:    PAW_PBE C 08Apr2002                   
   VRHFIN =C: s2p2                                                              
   LEXCH  = PE                                                                  
   EATOM  =   147.1560 eV,   10.8157 Ry                                         
                                                                                
   TITEL  = PAW_PBE C 08Apr2002                                                 
   LULTRA =        F    use ultrasoft PP ?                                      
   IUNSCR =        1    unscreen: 0-lin 1-nonlin 2-no                           
   RPACOR =    1.200    partial core radius                                     
   POMASS =   12.011; ZVAL   =    4.000    mass and valenz                      
   RCORE  =    1.500    outmost cutoff radius                                   
   RWIGS  =    1.630; RWIGS  =    0.863    wigner-seitz radius (au A)           
   ENMAX  =  400.000; ENMIN  =  300.000 eV                                      
   ICORE  =        2    local potential                                         
   LCOR   =        T    correct aug charges                                     
   LPAW   =        T    paw PP                                                  
   EAUG   =  644.873                                                            
   DEXC   =    0.000                                                            
   RMAX   =    1.529    core radius for proj-oper                               
   RAUG   =    1.300    factor for augmentation sphere                          
   RDEP   =    1.501    radius for radial grids                                 
   RDEPT  =    1.300    core radius for aug-charge                              
                                                                                
   Atomic configuration                                                         
    4 entries                                                                   
     n  l   j            E        occ.                                          
     1  0  0.50      -273.3789   2.0000                                         
     2  0  0.50       -13.7508   2.0000                                         
     2  1  0.50        -5.2854   2.0000                                         
     3  2  1.50        -5.4423   0.0000                                         
   Description                                                                  
     l       E           TYP  RCUT    TYP  RCUT                                 
     0    -13.7508458     23  1.200                                             
     0     -8.2022199     23  1.200                                             
     1     -5.2854383     23  1.500                                             
     1     34.0145650     23  1.500                                             
     2     -5.4423304      7  1.500                                             
  local pseudopotential read in
  partial core-charges read in
  partial kinetic energy density read in
  atomic valenz-charges read in
  non local Contribution for L=           0  read in
    real space projection operators read in
  non local Contribution for L=           0  read in
    real space projection operators read in
  non local Contribution for L=           1  read in
    real space projection operators read in
  non local Contribution for L=           1  read in
    real space projection operators read in
    PAW grid and wavefunctions read in
 
   number of l-projection  operators is LMAX  =           4
   number of lm-projection operators is LMMAX =           8
 
 POTCAR:    PAW_PBE F 08Apr2002                   
   VRHFIN =F: s2p5                                                              
   LEXCH  = PE                                                                  
   EATOM  =   659.6475 eV,   48.4827 Ry                                         
                                                                                
   TITEL  = PAW_PBE F 08Apr2002                                                 
   LULTRA =        F    use ultrasoft PP ?                                      
   IUNSCR =        1    unscreen: 0-lin 1-nonlin 2-no                           
   RPACOR =    1.200    partial core radius                                     
   POMASS =   18.998; ZVAL   =    7.000    mass and valenz                      
   RCORE  =    1.520    outmost cutoff radius                                   
   RWIGS  =    1.500; RWIGS  =    0.794    wigner-seitz radius (au A)           
   ENMAX  =  400.000; ENMIN  =  300.000 eV                                      
   ICORE  =        2    local potential                                         
   LCOR   =        T    correct aug charges                                     
   LPAW   =        T    paw PP                                                  
   EAUG   =  613.614                                                            
   RMAX   =    1.555    core radius for proj-oper                               
   RAUG   =    1.300    factor for augmentation sphere                          
   RDEP   =    1.539    radius for radial grids                                 
   RDEPT  =    1.299    core radius for aug-charge                              
                                                                                
   Atomic configuration                                                         
    4 entries                                                                   
     n  l   j            E        occ.                                          
     1  0  0.50      -663.3661   2.0000                                         
     2  0  0.50       -29.8995   2.0000                                         
     2  1  0.50       -11.1114   5.0000                                         
     3  2  1.50       -10.8847   0.0000                                         
   Description                                                                  
     l       E           TYP  RCUT    TYP  RCUT                                 
     0    -29.8995018     23  1.200                                             
     0     -9.5240782     23  1.200                                             
     1    -11.1113914     23  1.520                                             
     1      1.3605826     23  1.520                                             
     2    -10.8846608      7  1.500                                             
  local pseudopotential read in
  partial core-charges read in
  partial kinetic energy density read in
  atomic valenz-charges read in
  non local Contribution for L=           0  read in
    real space projection operators read in
  non local Contribution for L=           0  read in
    real space projection operators read in
  non local Contribution for L=           1  read in
    real space projection operators read in
  non local Contribution for L=           1  read in
    real space projection operators read in
    PAW grid and wavefunctions read in
 
   number of l-projection  operators is LMAX  =           4
   number of lm-projection operators is LMMAX =           8
 
 POTCAR:    PAW_PBE O 08Apr2002                   
   VRHFIN =O: s2p4                                                              
   LEXCH  = PE                                                                  
   EATOM  =   432.3788 eV,   31.7789 Ry                                         
                                                                                
   TITEL  = PAW_PBE O 08Apr2002                                                 
   LULTRA =        F    use ultrasoft PP ?                                      
   IUNSCR =        1    unscreen: 0-lin 1-nonlin 2-no                           
   RPACOR =    1.200    partial core radius                                     
   POMASS =   16.000; ZVAL   =    6.000    mass and valenz                      
   RCORE  =    1.520    outmost cutoff radius                                   
   RWIGS  =    1.550; RWIGS  =    0.820    wigner-seitz radius (au A)           
   ENMAX  =  400.000; ENMIN  =  300.000 eV                                      
   ICORE  =        2    local potential                                         
   LCOR   =        T    correct aug charges                                     
   LPAW   =        T    paw PP                                                  
   EAUG   =  605.392                                                            
   DEXC   =    0.000                                                            
   RMAX   =    1.553    core radius for proj-oper                               
   RAUG   =    1.300    factor for augmentation sphere                          
   RDEP   =    1.550    radius for radial grids                                 
   RDEPT  =    1.329    core radius for aug-charge                              
                                                                                
   Atomic configuration                                                         
    4 entries                                                                   
     n  l   j            E        occ.                                          
     1  0  0.50      -514.6923   2.0000                                         
     2  0  0.50       -23.9615   2.0000                                         
     2  1  0.50        -9.0305   4.0000                                         
     3  2  1.50        -9.5241   0.0000                                         
   Description                                                                  
     l       E           TYP  RCUT    TYP  RCUT                                 
     0    -23.9615318     23  1.200                                             
     0     -9.5240782     23  1.200                                             
     1     -9.0304911     23  1.520                                             
     1      8.1634956     23  1.520                                             
     2     -9.5240782      7  1.500                                             
  local pseudopotential read in
  partial core-charges read in
  partial kinetic energy density read in
  kinetic energy density of atom read in
  atomic valenz-charges read in
  non local Contribution for L=           0  read in
    real space projection operators read in
  non local Contribution for L=           0  read in
    real space projection operators read in
  non local Contribution for L=           1  read in
    real space projection operators read in
  non local Contribution for L=           1  read in
    real space projection operators read in
    PAW grid and wavefunctions read in
 
   number of l-projection  operators is LMAX  =           4
   number of lm-projection operators is LMMAX =           8
 
 Optimization of the real space projectors (new method)

 maximal supplied QI-value         = 22.11
 optimisation between [QCUT,QGAM] = [ 11.94, 23.88] = [ 39.92,159.67] Ry 
 Optimized for a Real-space Cutoff    1.18 Angstroem

   l    n(q)    QCUT    max X(q) W(low)/X(q) W(high)/X(q)  e(spline) 
   0      8    11.939    53.033    0.11E-03    0.34E-03    0.60E-07
   0      8    11.939    34.740    0.11E-03    0.34E-03    0.59E-07
   1      8    11.939    30.949    0.22E-03    0.20E-03    0.17E-06
   1      8    11.939    19.518    0.20E-03    0.18E-03    0.16E-06
 Optimization of the real space projectors (new method)

 maximal supplied QI-value         = 25.13
 optimisation between [QCUT,QGAM] = [ 11.81, 23.88] = [ 39.08,159.64] Ry 
 Optimized for a Real-space Cutoff    1.41 Angstroem

   l    n(q)    QCUT    max X(q) W(low)/X(q) W(high)/X(q)  e(spline) 
   0     10    11.813    79.467    0.48E-04    0.30E-04    0.67E-06
   0     10    11.813    66.151    0.47E-04    0.30E-04    0.67E-06
   1     10    11.813    20.169    0.11E-03    0.17E-03    0.11E-05
   1     10    11.813    14.454    0.11E-03    0.17E-03    0.11E-05
 Optimization of the real space projectors (new method)

 maximal supplied QI-value         = 25.13
 optimisation between [QCUT,QGAM] = [ 11.81, 23.88] = [ 39.08,159.64] Ry 
 Optimized for a Real-space Cutoff    1.18 Angstroem

   l    n(q)    QCUT    max X(q) W(low)/X(q) W(high)/X(q)  e(spline) 
   0      8    11.813   115.676    0.10E-03    0.16E-03    0.35E-06
   0      8    11.813    87.132    0.10E-03    0.16E-03    0.35E-06
   1      8    11.813     4.429    0.16E-03    0.13E-04    0.22E-06
   1      8    11.813     2.733    0.13E-03    0.10E-04    0.18E-06
 Optimization of the real space projectors (new method)

 maximal supplied QI-value         = 24.76
 optimisation between [QCUT,QGAM] = [ 11.88, 24.01] = [ 39.54,161.47] Ry 
 Optimized for a Real-space Cutoff    1.18 Angstroem

   l    n(q)    QCUT    max X(q) W(low)/X(q) W(high)/X(q)  e(spline) 
   0      8    11.883    14.049    0.56E-04    0.86E-04    0.22E-06
   0      8    11.883     8.945    0.81E-04    0.11E-03    0.30E-06
   1      8    11.883     7.086    0.16E-03    0.15E-04    0.31E-06
   1      8    11.883     6.747    0.15E-03    0.14E-04    0.28E-06
 Optimization of the real space projectors (new method)

 maximal supplied QI-value         = 24.76
 optimisation between [QCUT,QGAM] = [ 11.88, 24.01] = [ 39.54,161.47] Ry 
 Optimized for a Real-space Cutoff    1.18 Angstroem

   l    n(q)    QCUT    max X(q) W(low)/X(q) W(high)/X(q)  e(spline) 
   0      8    11.883    20.381    0.86E-04    0.11E-03    0.31E-06
   0      8    11.883    15.268    0.94E-04    0.12E-03    0.33E-06
   1      8    11.883     5.964    0.19E-03    0.18E-04    0.33E-06
   1      8    11.883     5.382    0.17E-03    0.20E-04    0.29E-06
  PAW_PBE B 06Sep2000                   :
 energy of atom  1       EATOM=  -71.1703
 kinetic energy error for atom=    0.0009 (will be added to EATOM!!)
  PAW_PBE N 08Apr2002                   :
 energy of atom  2       EATOM= -264.5486
 kinetic energy error for atom=    0.0116 (will be added to EATOM!!)
  PAW_PBE C 08Apr2002                   :
 energy of atom  3       EATOM= -147.1560
 kinetic energy error for atom=    0.0066 (will be added to EATOM!!)
  PAW_PBE F 08Apr2002                   :
 energy of atom  4       EATOM= -659.6475
 kinetic energy error for atom=    0.0296 (will be added to EATOM!!)
  PAW_PBE O 08Apr2002                   :
 energy of atom  5       EATOM= -432.3788
 kinetic energy error for atom=    0.0194 (will be added to EATOM!!)
 
 
 POSCAR: B N C F O                               
  positions in direct lattice
  velocities in cartesian coordinates

 METAGGA = SCAN     LMAXTAU =  6    LMIXTAU =  F

 exchange correlation table for  LEXCH =        8
   RHO(1)=    0.500       N(1)  =     2000
   RHO(2)=  100.500       N(2)  =     4000

 VTST: version 3.1, (03/28/14)

 CHAIN: initializing optimizer
 
 OPT: Using VASP Conjugate-Gradient optimizer
 CHAIN: Read ICHAIN            0
 
 POSCAR: B N C F O                               
  positions in direct lattice
  velocities in cartesian coordinates
 


--------------------------------------------------------------------------------------------------------


 ion  position               nearest neighbor table
   1  0.111  0.056  0.500-  37 1.45  43 1.45  42 1.45
   2  0.111  0.222  0.500-  44 1.45  38 1.45  37 1.45
   3  0.111  0.389  0.500-  45 1.45  38 1.45  39 1.45
   4  0.111  0.556  0.500-  46 1.45  39 1.45  40 1.45
   5  0.111  0.722  0.500-  40 1.45  47 1.45  41 1.45
   6  0.111  0.889  0.500-  48 1.45  42 1.45  41 1.45
   7  0.278  0.056  0.500-  43 1.45  49 1.45  48 1.45
   8  0.278  0.222  0.500-  44 1.45  50 1.45  43 1.45
   9  0.278  0.389  0.500-  45 1.45  51 1.45  44 1.45
  10  0.278  0.556  0.500-  45 1.45  52 1.45  46 1.45
  11  0.278  0.722  0.500-  46 1.45  53 1.45  47 1.45
  12  0.278  0.889  0.500-  47 1.45  54 1.45  48 1.45
  13  0.444  0.056  0.500-  49 1.45  54 1.45  55 1.45
  14  0.444  0.222  0.500-  50 1.45  56 1.45  49 1.45
  15  0.444  0.389  0.500-  51 1.45  57 1.45  50 1.45
  16  0.444  0.556  0.500-  52 1.45  58 1.45  51 1.45
  17  0.444  0.722  0.500-  52 1.45  59 1.45  53 1.45
  18  0.444  0.889  0.500-  53 1.45  60 1.45  54 1.45
  19  0.611  0.056  0.500-  60 1.45  55 1.45  61 1.45
  20  0.611  0.222  0.500-  56 1.45  62 1.45  55 1.45
  21  0.611  0.389  0.500-  57 1.45  63 1.45  56 1.45
  22  0.611  0.556  0.500-  58 1.45  57 1.45  64 1.45
  23  0.611  0.722  0.500-  58 1.45  59 1.45  65 1.45
  24  0.611  0.889  0.500-  59 1.45  66 1.45  60 1.45
  25  0.778  0.056  0.500-  67 1.45  66 1.45  61 1.45
  26  0.778  0.222  0.500-  68 1.45  62 1.45  61 1.45
  27  0.778  0.389  0.500-  63 1.45  69 1.45  62 1.45
  28  0.778  0.556  0.500-  64 1.45  63 1.45  70 1.45
  29  0.778  0.722  0.500-  64 1.45  65 1.45  71 1.45
  30  0.778  0.889  0.500-  65 1.45  72 1.45  66 1.45
  31  0.944  0.056  0.500-  37 1.45  67 1.45  72 1.45
  32  0.944  0.222  0.500-  38 1.45  68 1.45  67 1.45
  33  0.944  0.389  0.500-  39 1.45  68 1.45  69 1.45
  34  0.944  0.556  0.500-  40 1.45  69 1.45  70 1.45
  35  0.944  0.722  0.500-  70 1.45  71 1.45  41 1.45
  36  0.944  0.889  0.500-  42 1.45  72 1.45  71 1.45
  37  0.056  0.111  0.500-  31 1.45   1 1.45   2 1.45
  38  0.056  0.278  0.500-  32 1.45   2 1.45   3 1.45
  39  0.056  0.444  0.500-  33 1.45   4 1.45   3 1.45
  40  0.056  0.611  0.500-   5 1.45  34 1.45   4 1.45
  41  0.056  0.778  0.500-   6 1.45  35 1.45   5 1.45
  42  0.056  0.944  0.500-  36 1.45   6 1.45   1 1.45
  43  0.222  0.111  0.500-   7 1.45   1 1.45   8 1.45
  44  0.222  0.278  0.500-   2 1.45   8 1.45   9 1.45
  45  0.222  0.444  0.500-   3 1.45  10 1.45   9 1.45
  46  0.222  0.611  0.500-  11 1.45   4 1.45  10 1.45
  47  0.222  0.778  0.500-  12 1.45   5 1.45  11 1.45
  48  0.222  0.944  0.500-   6 1.45  12 1.45   7 1.45
  49  0.389  0.111  0.500-  13 1.45   7 1.45  14 1.45
  50  0.389  0.278  0.500-  14 1.45   8 1.45  15 1.45
  51  0.389  0.444  0.500-  15 1.45   9 1.45  16 1.45
  52  0.389  0.611  0.500-  17 1.45  10 1.45  16 1.45
  53  0.389  0.778  0.500-  18 1.45  11 1.45  17 1.45
  54  0.389  0.944  0.500-  13 1.45  12 1.45  18 1.45
  55  0.556  0.111  0.500-  19 1.45  13 1.45  20 1.45
  56  0.556  0.278  0.500-  20 1.45  14 1.45  21 1.45
  57  0.556  0.444  0.500-  21 1.45  22 1.45  15 1.45
  58  0.556  0.611  0.500-  23 1.45  22 1.45  16 1.45
  59  0.556  0.778  0.500-  24 1.45  23 1.45  17 1.45
  60  0.556  0.944  0.500-  19 1.45  18 1.45  24 1.45
  61  0.722  0.111  0.500-  19 1.45  26 1.45  25 1.45
  62  0.722  0.278  0.500-  20 1.45  26 1.45  27 1.45
  63  0.722  0.444  0.500-  27 1.45  28 1.45  21 1.45
  64  0.722  0.611  0.500-  29 1.45  28 1.45  22 1.45
  65  0.722  0.778  0.500-  30 1.45  29 1.45  23 1.45
  66  0.722  0.944  0.500-  25 1.45  30 1.45  24 1.45
  67  0.889  0.111  0.500-  25 1.45  31 1.45  32 1.45
  68  0.889  0.278  0.500-  26 1.45  33 1.45  32 1.45
  69  0.889  0.444  0.500-  34 1.45  27 1.45  33 1.45
  70  0.889  0.611  0.500-  35 1.45  34 1.45  28 1.45
  71  0.889  0.778  0.500-  36 1.45  35 1.45  29 1.45
  72  0.889  0.944  0.500-  36 1.45  30 1.45  31 1.45
  73  0.374  0.312  0.673-  76 1.34  78 1.34  77 1.35  74 1.53
  74  0.355  0.310  0.630-  80 1.33  79 1.33  73 1.53  75 1.93
  75  0.342  0.427  0.617-  82 1.20  81 1.20  74 1.93
  76  0.462  0.395  0.683-  73 1.34
  77  0.378  0.229  0.683-  73 1.35
  78  0.297  0.313  0.692-  73 1.34
  79  0.434  0.317  0.610-  74 1.33
  80  0.269  0.227  0.620-  74 1.33
  81  0.429  0.496  0.613-  75 1.20
  82  0.252  0.396  0.616-  75 1.20
 

IMPORTANT INFORMATION: All symmetrisations will be switched off!
NOSYMM: (Re-)initialisation of all symmetry stuff for point group C_1.

 
 
 KPOINTS: K-Point Grid                            

Automatic generation of k-mesh.
Space group operators:
 irot       det(A)        alpha          n_x          n_y          n_z        tau_x        tau_y        tau_z
    1     1.000000     0.000000     1.000000     0.000000     0.000000     0.000000     0.000000     0.000000
 
 Subroutine IBZKPT returns following result:
 ===========================================
 
 Found      5 irreducible k-points:
 
 Following reciprocal coordinates:
            Coordinates               Weight
  0.000000  0.000000  0.000000      1.000000
  0.333333  0.000000  0.000000      2.000000
  0.000000  0.333333  0.000000      2.000000
  0.333333  0.333333  0.000000      2.000000
 -0.333333  0.333333  0.000000      2.000000
 
 Following cartesian coordinates:
            Coordinates               Weight
  0.000000  0.000000  0.000000      1.000000
  0.022114 -0.012768  0.000000      2.000000
  0.022114  0.012768  0.000000      2.000000
  0.044229  0.000000  0.000000      2.000000
  0.000000  0.025535  0.000000      2.000000
 


--------------------------------------------------------------------------------------------------------




 Dimension of arrays:
   k-points           NKPTS =      5   k-points in BZ     NKDIM =      5   number of bands    NBANDS=    256
   number of dos      NEDOS =   1200   number of ions     NIONS =     82
   non local maximal  LDIM  =      4   non local SUM 2l+1 LMDIM =      8
   total plane-waves  NPLWV = ******
   max r-space proj   IRMAX =   6598   max aug-charges    IRDMAX=   8974
   dimension x,y,z NGX =   120 NGY =  120 NGZ =  270
   dimension x,y,z NGXF=   240 NGYF=  240 NGZF=  540
   support grid    NGXF=   240 NGYF=  240 NGZF=  540
   ions per type =              36  36   3   5   2
   NGX,Y,Z   is equivalent  to a cutoff of  13.24, 13.24, 12.78 a.u.
   NGXF,Y,Z  is equivalent  to a cutoff of  26.47, 26.47, 25.57 a.u.

 SYSTEM =  hBN                                     
 POSCAR =  B N C F O                               

 Startparameter for this run:
   NWRITE =      2    write-flag & timer
   PREC   = accura    normal or accurate (medium, high low for compatibility)
   ISTART =      1    job   : 0-new  1-cont  2-samecut
   ICHARG =      0    charge: 1-file 2-atom 10-const
   ISPIN  =      2    spin polarized calculation?
   LNONCOLLINEAR =      F non collinear calculations
   LSORBIT =      F    spin-orbit coupling
   INIWAV =      1    electr: 0-lowe 1-rand  2-diag
   LASPH  =      T    aspherical Exc in radial PAW
   METAGGA=      F    non-selfconsistent MetaGGA calc.

 Electronic Relaxation 1
   ENCUT  =  550.0 eV  40.42 Ry    6.36 a.u.  28.82 28.82 67.15*2*pi/ulx,y,z
   ENINI  =  550.0     initial cutoff
   ENAUG  =  644.9 eV  augmentation charge cutoff
   NELM   =    100;   NELMIN=  2; NELMDL=  0     # of ELM steps 
   EDIFF  = 0.1E-04   stopping-criterion for ELM
   LREAL  =      T    real-space projection
   NLSPLINE    = F    spline interpolate recip. space projectors
   LCOMPAT=      F    compatible to vasp.4.4
   GGA_COMPAT  = T    GGA compatible to vasp.4.4-vasp.4.6
   LMAXPAW     = -100 max onsite density
   LMAXMIX     =    2 max onsite mixed and CHGCAR
   VOSKOWN=      0    Vosko Wilk Nusair interpolation
   ROPT   =   -0.00025  -0.00025  -0.00025  -0.00025
   ROPT   =   -0.00025
 Ionic relaxation
   EDIFFG = -.5E-01   stopping-criterion for IOM
   NSW    =      0    number of steps for IOM
   NBLOCK =      1;   KBLOCK =      1    inner block; outer block 
   IBRION =     -1    ionic relax: 0-MD 1-quasi-New 2-CG
   NFREE  =      1    steps in history (QN), initial steepest desc. (CG)
   ISIF   =      2    stress and relaxation
   IWAVPR =     10    prediction:  0-non 1-charg 2-wave 3-comb
   ISYM   =      0    0-nonsym 1-usesym 2-fastsym
   LCORR  =      T    Harris-Foulkes like correction to forces

   POTIM  = 0.5000    time-step for ionic-motion
   TEIN   =    0.0    initial temperature
   TEBEG  =    0.0;   TEEND  =   0.0 temperature during run
   SMASS  =  -3.00    Nose mass-parameter (am)
   estimated Nose-frequenzy (Omega)   =  0.10E-29 period in steps =****** mass=  -0.519E-26a.u.
   SCALEE = 1.0000    scale energy and forces
   NPACO  =    256;   APACO  = 16.0  distance and # of slots for P.C.
   PSTRESS=    0.0 pullay stress

  Mass of Ions in am
   POMASS =  10.81 14.00 12.01 19.00 16.00
  Ionic Valenz
   ZVAL   =   3.00  5.00  4.00  7.00  6.00
  Atomic Wigner-Seitz radii
   RWIGS  =  -1.00 -1.00 -1.00 -1.00 -1.00
  virtual crystal weights 
   VCA    =   1.00  1.00  1.00  1.00  1.00
   NELECT =     347.0000    total number of electrons
   NUPDOWN=      -1.0000    fix difference up-down

 DOS related values:
   EMIN   = -10.00;   EMAX   =  5.00  energy-range for DOS
   EFERMI =   0.00
   ISMEAR =     0;   SIGMA  =   0.05  broadening in eV -4-tet -1-fermi 0-gaus

 Electronic relaxation 2 (details)
   IALGO  =     68    algorithm
   LDIAG  =      T    sub-space diagonalisation (order eigenvalues)
   LSUBROT=      F    optimize rotation matrix (better conditioning)
   TURBO    =      0    0=normal 1=particle mesh
   IRESTART =      0    0=no restart 2=restart with 2 vectors
   NREBOOT  =      0    no. of reboots
   NMIN     =      0    reboot dimension
   EREF     =   0.00    reference energy to select bands
   IMIX   =      4    mixing-type and parameters
     AMIX     =   0.40;   BMIX     =  1.00
     AMIX_MAG =   1.60;   BMIX_MAG =  1.00
     AMIN     =   0.10
     WC   =   100.;   INIMIX=   1;  MIXPRE=   1;  MAXMIX= -45

 Intra band minimization:
   WEIMIN = 0.0000     energy-eigenvalue tresh-hold
   EBREAK =  0.98E-08  absolut break condition
   DEPER  =   0.30     relativ break condition  

   TIME   =   0.40     timestep for ELM

  volume/ion in A,a.u.               =      84.26       568.60
  Fermi-wavevector in a.u.,A,eV,Ry     =   0.604008  1.141409  4.963752  0.364825
  Thomas-Fermi vector in A             =   1.657201
 
 Write flags
   LWAVE        =      T    write WAVECAR
   LDOWNSAMPLE  =      F    k-point downsampling of WAVECAR
   LCHARG       =      T    write CHGCAR
   LVTOT        =      F    write LOCPOT, total local potential
   LVHAR        =      T    write LOCPOT, Hartree potential only
   LELF         =      F    write electronic localiz. function (ELF)
   LORBIT       =     11    0 simple, 1 ext, 2 COOP (PROOUT), +10 PAW based schemes


 Dipole corrections
   LMONO  =      F    monopole corrections only (constant potential shift)
   LDIPOL =      F    correct potential (dipole corrections)
   IDIPOL =      0    1-x, 2-y, 3-z, 4-all directions 
   EPSILON=  1.0000000 bulk dielectric constant

 Exchange correlation treatment:
   GGA     =    --    GGA type
   LEXCH   =     8    internal setting for exchange type
   VOSKOWN=      0    Vosko Wilk Nusair interpolation
   LHFCALC =     F    Hartree Fock is set to
   LHFONE  =     F    Hartree Fock one center treatment
   AEXX    =    0.0000 exact exchange contribution

 Linear response parameters
   LEPSILON=     F    determine dielectric tensor
   LRPA    =     F    only Hartree local field effects (RPA)
   LNABLA  =     F    use nabla operator in PAW spheres
   LVEL    =     F    velocity operator in full k-point grid
   LINTERFAST=   F  fast interpolation
   KINTER  =     0    interpolate to denser k-point grid
   CSHIFT  =0.1000    complex shift for real part using Kramers Kronig
   OMEGAMAX=  -1.0    maximum frequency
   DEG_THRESHOLD= 0.2000000E-02 threshold for treating states as degnerate
   RTIME   =   -0.100 relaxation time in fs
  (WPLASMAI=    0.000 imaginary part of plasma frequency in eV, 0.658/RTIME)
   DFIELD  = 0.0000000 0.0000000 0.0000000 field for delta impulse in time
 
 Orbital magnetization related:
   ORBITALMAG=     F  switch on orbital magnetization
   LCHIMAG   =     F  perturbation theory with respect to B field
   DQ        =  0.001000  dq finite difference perturbation B field
   LLRAUG    =     F  two centre corrections for induced B field

 Solvation model:
   LSOL    =     T         switch on solvation model
   EB_K    = 78.400000     relative permittivity of the bulk solvent
   SIGMA_K =  0.600000     width of the dielectric cavity
   NC_K    =  0.002500     cutoff charge density
   TAU     =  0.000000     cavity surface tension
   LAMBDA_D_K    =  3.040000     Debye length in Angstroms
   LRHOB     =     F     write boundcharge  density
   LRHOION     =     F     write ioniccharge density



--------------------------------------------------------------------------------------------------------


 Static calculation
 charge density and potential will be updated during run
 spin polarized calculation
 RMM-DIIS sequential band-by-band and
  variant of blocked Davidson during initial phase
 perform sub-space diagonalisation
    before iterative eigenvector-optimisation
 modified Broyden-mixing scheme, WC =      100.0
 initial mixing is a Kerker type mixing with AMIX =  0.4000 and BMIX =      1.0000
 Hartree-type preconditioning will be used
 using additional bands           82
 real space projection scheme for non local part
 use partial core corrections
 calculate Harris-corrections to forces 
   (improved forces if not selfconsistent)
 use gradient corrections 
 use of overlap-Matrix (Vanderbilt PP)
 Gauss-broadening in eV      SIGMA  =   0.05


--------------------------------------------------------------------------------------------------------


  energy-cutoff  :      550.00
  volume of cell :     6909.18
      direct lattice vectors                 reciprocal lattice vectors
     7.536550057-13.053746059  0.000000000     0.066343353 -0.038303181  0.000000000
     7.536550057 13.053746059  0.000000000     0.066343353  0.038303181  0.000000000
     0.000000000  0.000000000 35.114664386     0.000000000  0.000000000  0.028478131

  length of vectors
    15.073150730 15.073150730 35.114664386     0.076606620  0.076606620  0.028478131


 
 old parameters found on file WAVECAR:
  energy-cutoff  :      550.00
  volume of cell :     6909.18
      direct lattice vectors                 reciprocal lattice vectors
     7.536550057-13.053746059  0.000000000     0.066343353 -0.038303181  0.000000000
     7.536550057 13.053746059  0.000000000     0.066343353  0.038303181  0.000000000
     0.000000000  0.000000000 35.114664386     0.000000000  0.000000000  0.028478131

  length of vectors

 
 k-points in units of 2pi/SCALE and weight: K-Point Grid                            
   0.00000000  0.00000000  0.00000000       0.111
   0.02211445 -0.01276773  0.00000000       0.222
   0.02211445  0.01276773  0.00000000       0.222
   0.04422890  0.00000000  0.00000000       0.222
   0.00000000  0.02553545  0.00000000       0.222
 
 k-points in reciprocal lattice and weights: K-Point Grid                            
   0.00000000  0.00000000  0.00000000       0.111
   0.33333333  0.00000000  0.00000000       0.222
   0.00000000  0.33333333  0.00000000       0.222
   0.33333333  0.33333333  0.00000000       0.222
  -0.33333333  0.33333333  0.00000000       0.222
 
 position of ions in fractional coordinates (direct lattice) 
   0.11110752  0.05555868  0.50000643
   0.11110512  0.22222533  0.49996632
   0.11111924  0.38889235  0.49995308
   0.11111537  0.55555461  0.49997586
   0.11111259  0.72222284  0.50001376
   0.11111132  0.88889158  0.50001886
   0.27777856  0.05555727  0.50001332
   0.27778215  0.22223349  0.49994571
   0.27776104  0.38889402  0.49985729
   0.27778050  0.55555782  0.49992192
   0.27777968  0.72221908  0.49998690
   0.27777874  0.88888904  0.50002121
   0.44444541  0.05555675  0.50002152
   0.44444508  0.22222526  0.49999983
   0.44445421  0.38889922  0.49991779
   0.44444716  0.55556369  0.49991388
   0.44444251  0.72221517  0.49995808
   0.44444362  0.88888520  0.50001064
   0.61111157  0.05555580  0.50001641
   0.61111110  0.22222447  0.50001620
   0.61110832  0.38889330  0.49998632
   0.61110261  0.55555877  0.49995236
   0.61110298  0.72221533  0.49996989
   0.61110858  0.88888447  0.50000427
   0.77777872  0.05555652  0.50001536
   0.77778004  0.22222530  0.50001454
   0.77777675  0.38889282  0.50001748
   0.77777150  0.55555706  0.50000403
   0.77777110  0.72222000  0.50000180
   0.77777418  0.88888579  0.50001441
   0.94444477  0.05555840  0.50001291
   0.94444869  0.22222663  0.49999416
   0.94444936  0.38889262  0.50000067
   0.94444489  0.55555731  0.50001652
   0.94444264  0.72222355  0.50001671
   0.94444236  0.88889009  0.50001958
   0.05554909  0.11110871  0.50000183
   0.05554417  0.27777371  0.49996181
   0.05554965  0.44444555  0.49996980
   0.05555561  0.61111291  0.50000868
   0.05555546  0.77777940  0.50001899
   0.05555337  0.94444495  0.50002009
   0.22221704  0.11110360  0.50000008
   0.22220634  0.27776184  0.49994349
   0.22220388  0.44445033  0.49987292
   0.22221869  0.61111993  0.49995560
   0.22222331  0.77777936  0.50001560
   0.22222262  0.94444470  0.50002355
   0.38889078  0.11111083  0.50002153
   0.38888742  0.27776788  0.49997451
   0.38888197  0.44443763  0.49988904
   0.38889247  0.61112842  0.49991569
   0.38889088  0.77778218  0.49998956
   0.38889045  0.94444550  0.50002489
   0.55555741  0.11111222  0.50002033
   0.55555775  0.27777673  0.50000874
   0.55557094  0.44444834  0.49994575
   0.55556836  0.61112604  0.49993133
   0.55555867  0.77778467  0.49997783
   0.55555663  0.94444626  0.50001424
   0.72222268  0.11111290  0.50001524
   0.72222248  0.27777910  0.50002012
   0.72222263  0.44444589  0.50000619
   0.72222309  0.61111480  0.49998709
   0.72222069  0.77777940  0.49999964
   0.72222166  0.94444590  0.50001627
   0.88888709  0.11111240  0.50001204
   0.88888760  0.27777898  0.50000587
   0.88888841  0.44444607  0.50002061
   0.88888746  0.61111287  0.50001801
   0.88888685  0.77777889  0.50001684
   0.88888684  0.94444529  0.50002310
   0.37362577  0.31249463  0.67305820
   0.35522512  0.31008564  0.63004052
   0.34222939  0.42729798  0.61656246
   0.46209717  0.39542034  0.68255321
   0.37791488  0.22865954  0.68331820
   0.29698861  0.31283762  0.69213809
   0.43366806  0.31683422  0.61044661
   0.26872667  0.22674897  0.62020641
   0.42891816  0.49570530  0.61281650
   0.25178296  0.39585941  0.61593171
 
 position of ions in cartesian coordinates  (Angst):
   1.25608819 -0.72512038 17.55755782
   2.51216159  1.45053499 17.55614944
   3.76836239  3.62597975 17.55568466
   5.02439167  5.80159700 17.55648466
   6.28047420  7.97727805 17.55781528
   7.53657189 10.15294608 17.55799431
   2.51220217 -2.90082038 17.55779992
   3.76839287 -0.72511814 17.55542583
   5.02427928  1.45070169 17.55232097
   6.28049598  3.62603463 17.55459048
   7.53654070  5.80159917 17.55687228
   8.79265010  7.97727874 17.55807707
   3.76829129 -5.07645384 17.55808778
   5.02439436 -2.90080115 17.55732621
   6.28060988 -0.72520067 17.55444549
   7.53663183  1.45048690 17.55430817
   8.79257402  3.62597381 17.55586019
  10.04869939  5.80162747 17.55770589
   5.02437204 -7.25208399 17.55790857
   6.28047524 -5.07642730 17.55790113
   7.53656223 -2.90073849 17.55685167
   8.79260190 -0.72505524 17.55565935
  10.04862016  1.45043246 17.55627476
  11.30477272  3.62601584 17.55748207
   6.28047278 -9.42770528 17.55787160
   7.53659028 -7.25207059 17.55784284
   8.79266367 -5.07639205 17.55794590
  10.04869746 -2.90073094 17.55747385
  11.30475805 -0.72514995 17.55739546
  12.56086626  1.45042275 17.55783820
   7.53657394-11.60329694 17.55778564
   8.79270697 -9.42770343 17.55712700
  10.04879853 -7.25209663 17.55735588
  11.30484165 -5.07643967 17.55791226
  12.56091320 -2.90079150 17.55791880
  13.81700177 -0.72516520 17.55801969
   1.25602488  0.72526123 17.55739644
   2.51206692  2.90092793 17.55599102
   3.76823887  5.07654837 17.55627166
   5.02438070  7.25210386 17.55763697
   6.28046982  9.42772791 17.55799911
   7.53653739 11.60336498 17.55803780
   2.51208764 -1.45044662 17.55733500
   3.76803523  0.72520744 17.55534776
   5.02427281  2.90114876 17.55286987
   6.28049822  5.07661806 17.55577325
   7.53657022  7.25208755 17.55787993
   8.79264659  9.42770362 17.55815911
   3.76828717 -3.62606887 17.55808806
   5.02428099 -1.45052625 17.55643724
   6.28035492  0.72520947 17.55343597
   7.53670744  2.90101163 17.55437170
   8.79268990  5.07648834 17.55696573
  10.04875308  7.25207451 17.55820619
   5.02438904 -5.80167464 17.55804607
   6.28046705 -3.62608289 17.55763913
   7.53669537 -1.45056629 17.55542735
   8.79285081  0.72523583 17.55492076
  10.04880883  2.90088175 17.55655370
  11.30484687  5.07646650 17.55783231
   6.28047526 -7.97727188 17.55786726
   7.53656198 -5.80165104 17.55803866
   8.79265571 -3.62602697 17.55754956
  10.04876775 -1.45037935 17.55687900
  11.30482580  0.72524934 17.55731949
  12.56092356  2.90085881 17.55790356
   7.53654623-10.15287327 17.55775507
   8.79264101 -7.97725676 17.55753838
  10.04874203 -5.80163752 17.55805601
  11.30482755 -3.62599894 17.55796449
  12.56090975 -1.45037505 17.55792353
  13.81699930  0.72524589 17.55814338
   5.17098076 -0.79799041 23.63421274
   5.01414784 -0.58923928 22.12366141
   5.79958154  1.11046365 21.65038373
   6.46272363 -0.87038240 23.96762677
   4.57147850 -1.94834137 23.99448936
   4.59598592  0.20688888 24.30419668
   5.65619806 -1.52511927 21.43562767
   3.73417700 -0.54796623 21.77833990
   6.96847102  0.87182235 21.51884581
   4.88098911  1.88073738 21.62823520
 


--------------------------------------------------------------------------------------------------------


 k-point  1 :   0.0000 0.0000 0.0000  plane waves:  202395
 k-point  2 :   0.3333 0.0000 0.0000  plane waves:  202358
 k-point  3 :   0.0000 0.3333 0.0000  plane waves:  202358
 k-point  4 :   0.3333 0.3333 0.0000  plane waves:  202335
 k-point  5 :  -0.3333 0.3333 0.0000  plane waves:  202358

 maximum and minimum number of plane-waves per node :    202395   202335

 maximum number of plane-waves:    202395
 maximum index in each direction: 
   IXMAX=   29   IYMAX=   28   IZMAX=   67
   IXMIN=  -29   IYMIN=  -29   IZMIN=  -67


 serial   3D FFT for wavefunctions
 parallel 3D FFT for charge:
    minimum data exchange during FFTs selected (reduces bandwidth)


 total amount of memory used by VASP MPI-rank0  2282336. kBytes
=======================================================================

   base      :      30000. kBytes
   nonlr-proj:      37384. kBytes
   fftplans  :     146413. kBytes
   grid      :    1028390. kBytes
   one-center:        503. kBytes
   wavefun   :    1039646. kBytes
 
     INWAV:  cpu time   22.1415: real time   22.2975
 Broyden mixing: mesh for mixing (old mesh)
   NGX = 57   NGY = 57   NGZ =135
  (NGX  =240   NGY  =240   NGZ  =540)
  gives a total of 438615 points

 charge density for first step will be calculated from the start-wavefunctions


--------------------------------------------------------------------------------------------------------


 Maximum index for non-local projection operator         6369
 Maximum index for augmentation-charges         1058 (set IRDMAX)


--------------------------------------------------------------------------------------------------------


 initial charge from wavefunction
 First call to EWALD:  gamma=   0.093
 Maximum number of real-space cells 4x 4x 2
 Maximum number of reciprocal cells 2x 2x 5

    FEWALD:  cpu time    0.0046: real time    0.0042


--------------------------------------- Iteration      1(   1)  ---------------------------------------


    POTLOK:  cpu time  177.9826: real time  178.1403
    SETDIJ:  cpu time    1.2544: real time    1.0469
     EDDAV:  cpu time  532.7672: real time  349.2726
       DOS:  cpu time    0.0108: real time    0.0145
    CHARGE:  cpu time   59.0824: real time   58.0290
    MIXING:  cpu time    0.1255: real time    0.1313
    --------------------------------------------
      LOOP:  cpu time  771.2230: real time  586.6348

 eigenvalue-minimisations  :  6144
 total energy-change (2. order) :-0.7790300E+03  (-0.4308072E-02)
 number of electron     346.9999987 magnetization       0.8256654
 augmentation part       16.0761004 magnetization       0.1498600

 Broyden mixing:
  rms(total) = 0.14393E-01    rms(broyden)= 0.14369E-01
  rms(prec ) = 0.14454E-01
  weight for this iteration     100.00

 Free energy of the ion-electron system (eV)
  ---------------------------------------------------
  alpha Z        PSCENC =        92.14382556
  Ewald energy   TEWEN  =    110882.94578193
  -Hartree energ DENC   =   -125167.90228011
  -exchange      EXHF   =         0.00000000
  -V(xc)+E(xc)   XCENC  =      1589.59808293
  PAW double counting   =     40514.43497371   -40681.38843470
  entropy T*S    EENTRO =        -0.01514446
  eigenvalues    EBANDS =     -4991.89918900
  atomic energy  EATOM  =     16689.68470767
  Solvation  Ediel_sol  =       293.36768289
  ---------------------------------------------------
  free energy    TOTEN  =      -779.02999360 eV

  energy without entropy =     -779.01484913  energy(sigma->0) =     -779.02242136


--------------------------------------------------------------------------------------------------------




--------------------------------------- Iteration      1(   2)  ---------------------------------------


    POTLOK:  cpu time  127.7716: real time  128.0419
    SETDIJ:  cpu time    1.4677: real time    1.1540
    EDDIAG:  cpu time   80.4316: real time   71.4703
  RMM-DIIS:  cpu time  655.0415: real time  479.7448
    ORTHCH:  cpu time    3.9533: real time    1.9841
       DOS:  cpu time    0.0124: real time    0.0062
    CHARGE:  cpu time   59.1093: real time   58.0839
    MIXING:  cpu time    0.1274: real time    0.1280
    --------------------------------------------
      LOOP:  cpu time  927.9149: real time  740.6133

 eigenvalue-minimisations  :  6142
 total energy-change (2. order) : 0.9175587E-04  (-0.6238086E-04)
 number of electron     346.9999987 magnetization       0.8252973
 augmentation part       16.0752284 magnetization       0.1521635

 Broyden mixing:
  rms(total) = 0.90900E-02    rms(broyden)= 0.90864E-02
  rms(prec ) = 0.91513E-02
  weight for this iteration     100.00

 eigenvalues of (default mixing * dielectric matrix)
  average eigenvalue GAMMA=   1.7290
  1.7290

 Free energy of the ion-electron system (eV)
  ---------------------------------------------------
  alpha Z        PSCENC =        92.14382556
  Ewald energy   TEWEN  =    110882.94578193
  -Hartree energ DENC   =   -125167.78970616
  -exchange      EXHF   =         0.00000000
  -V(xc)+E(xc)   XCENC  =      1589.61516233
  PAW double counting   =     40542.11287454   -40709.05415563
  entropy T*S    EENTRO =        -0.01527579
  eigenvalues    EBANDS =     -4992.07949842
  atomic energy  EATOM  =     16689.68470767
  Solvation  Ediel_sol  =       293.40638212
  ---------------------------------------------------
  free energy    TOTEN  =      -779.02990184 eV

  energy without entropy =     -779.01462604  energy(sigma->0) =     -779.02226394


--------------------------------------------------------------------------------------------------------




--------------------------------------- Iteration      1(   3)  ---------------------------------------


    POTLOK:  cpu time  134.2067: real time  134.4746
    SETDIJ:  cpu time    1.2352: real time    1.0350
    EDDIAG:  cpu time   80.3300: real time   71.3692
  RMM-DIIS:  cpu time  654.6337: real time  479.3059
    ORTHCH:  cpu time    3.9580: real time    1.9859
       DOS:  cpu time    0.0138: real time    0.0069
    CHARGE:  cpu time   59.0781: real time   58.0389
    MIXING:  cpu time    0.1299: real time    0.1302
    --------------------------------------------
      LOOP:  cpu time  933.5855: real time  746.3466

 eigenvalue-minimisations  :  6135
 total energy-change (2. order) : 0.4162209E-03  (-0.3711304E-04)
 number of electron     346.9999987 magnetization       0.8251242
 augmentation part       16.0747971 magnetization       0.1516659

 Broyden mixing:
  rms(total) = 0.28997E-02    rms(broyden)= 0.28984E-02
  rms(prec ) = 0.29299E-02
  weight for this iteration     100.00

 eigenvalues of (default mixing * dielectric matrix)
  average eigenvalue GAMMA=   1.5553
  0.6458  2.4647

 Free energy of the ion-electron system (eV)
  ---------------------------------------------------
  alpha Z        PSCENC =        92.14382556
  Ewald energy   TEWEN  =    110882.94578193
  -Hartree energ DENC   =   -125167.44574058
  -exchange      EXHF   =         0.00000000
  -V(xc)+E(xc)   XCENC  =      1589.59614015
  PAW double counting   =     40578.87479540   -40745.80081370
  entropy T*S    EENTRO =        -0.01527295
  eigenvalues    EBANDS =     -4992.40003240
  atomic energy  EATOM  =     16689.68470767
  Solvation  Ediel_sol  =       293.38712330
  ---------------------------------------------------
  free energy    TOTEN  =      -779.02948562 eV

  energy without entropy =     -779.01421267  energy(sigma->0) =     -779.02184915


--------------------------------------------------------------------------------------------------------




--------------------------------------- Iteration      1(   4)  ---------------------------------------


    POTLOK:  cpu time  126.4461: real time  126.7139
    SETDIJ:  cpu time    1.5975: real time    1.2165
    EDDIAG:  cpu time   80.6942: real time   71.7191
  RMM-DIIS:  cpu time  570.4533: real time  418.7030
    ORTHCH:  cpu time    3.9526: real time    1.9832
       DOS:  cpu time    0.0150: real time    0.0075
    CHARGE:  cpu time   59.3069: real time   58.2452
    MIXING:  cpu time    0.1323: real time    0.1325
    --------------------------------------------
      LOOP:  cpu time  842.5979: real time  678.7209

 eigenvalue-minimisations  :  4977
 total energy-change (2. order) :-0.3303214E-03  (-0.6779244E-05)
 number of electron     346.9999987 magnetization       0.8252178
 augmentation part       16.0742406 magnetization       0.1419822

 Broyden mixing:
  rms(total) = 0.62821E-02    rms(broyden)= 0.62768E-02
  rms(prec ) = 0.65567E-02
  weight for this iteration     100.00

 eigenvalues of (default mixing * dielectric matrix)
  average eigenvalue GAMMA=   1.0446
  2.4573  0.6249  0.0518

 Free energy of the ion-electron system (eV)
  ---------------------------------------------------
  alpha Z        PSCENC =        92.14382556
  Ewald energy   TEWEN  =    110882.94578193
  -Hartree energ DENC   =   -125167.29034850
  -exchange      EXHF   =         0.00000000
  -V(xc)+E(xc)   XCENC  =      1589.58785360
  PAW double counting   =     40585.21798218   -40752.14156249
  entropy T*S    EENTRO =        -0.01476002
  eigenvalues    EBANDS =     -4992.53088190
  atomic energy  EATOM  =     16689.68470767
  Solvation  Ediel_sol  =       293.36758604
  ---------------------------------------------------
  free energy    TOTEN  =      -779.02981594 eV

  energy without entropy =     -779.01505592  energy(sigma->0) =     -779.02243593


--------------------------------------------------------------------------------------------------------




--------------------------------------- Iteration      1(   5)  ---------------------------------------


    POTLOK:  cpu time  129.0749: real time  129.3442
    SETDIJ:  cpu time    1.3359: real time    1.0826
    EDDIAG:  cpu time   80.4818: real time   71.5611
  RMM-DIIS:  cpu time  549.6377: real time  403.2199
    ORTHCH:  cpu time    3.9559: real time    1.9846
       DOS:  cpu time    0.0170: real time    0.0085
    CHARGE:  cpu time   59.0994: real time   58.0376
    MIXING:  cpu time    0.1391: real time    0.1393
    --------------------------------------------
      LOOP:  cpu time  823.7417: real time  665.3780

 eigenvalue-minimisations  :  4714
 total energy-change (2. order) :-0.9565542E-04  (-0.8469059E-05)
 number of electron     346.9999987 magnetization       0.8254235
 augmentation part       16.0743231 magnetization       0.1439831

 Broyden mixing:
  rms(total) = 0.46285E-02    rms(broyden)= 0.46284E-02
  rms(prec ) = 0.48503E-02
  weight for this iteration     100.00

 eigenvalues of (default mixing * dielectric matrix)
  average eigenvalue GAMMA=   1.1033
  2.5210  0.6727  0.6098  0.6098

 Free energy of the ion-electron system (eV)
  ---------------------------------------------------
  alpha Z        PSCENC =        92.14382556
  Ewald energy   TEWEN  =    110882.94578193
  -Hartree energ DENC   =   -125167.29890678
  -exchange      EXHF   =         0.00000000
  -V(xc)+E(xc)   XCENC  =      1589.58799333
  PAW double counting   =     40585.33914112   -40752.26240634
  entropy T*S    EENTRO =        -0.01485054
  eigenvalues    EBANDS =     -4992.54491281
  atomic energy  EATOM  =     16689.68470767
  Solvation  Ediel_sol  =       293.38971525
  ---------------------------------------------------
  free energy    TOTEN  =      -779.02991160 eV

  energy without entropy =     -779.01506106  energy(sigma->0) =     -779.02248633


--------------------------------------------------------------------------------------------------------




--------------------------------------- Iteration      1(   6)  ---------------------------------------


    POTLOK:  cpu time  131.3938: real time  131.6722
    SETDIJ:  cpu time    1.5129: real time    1.1734
    EDDIAG:  cpu time   80.5312: real time   71.5975
  RMM-DIIS:  cpu time  534.8100: real time  390.9325
    ORTHCH:  cpu time    3.9623: real time    1.9884
       DOS:  cpu time    0.0082: real time    0.0041
    CHARGE:  cpu time   58.9382: real time   57.9045
    MIXING:  cpu time    0.1489: real time    0.1492
    --------------------------------------------
      LOOP:  cpu time  811.3054: real time  655.4219

 eigenvalue-minimisations  :  4538
 total energy-change (2. order) :-0.1493790E-03  (-0.5703698E-05)
 number of electron     346.9999987 magnetization       0.8253512
 augmentation part       16.0748515 magnetization       0.1526427

 Broyden mixing:
  rms(total) = 0.21753E-02    rms(broyden)= 0.21636E-02
  rms(prec ) = 0.22529E-02
  weight for this iteration     100.00

 eigenvalues of (default mixing * dielectric matrix)
  average eigenvalue GAMMA=   1.0296
  2.5565  0.8960  0.6316  0.5319  0.5319

 Free energy of the ion-electron system (eV)
  ---------------------------------------------------
  alpha Z        PSCENC =        92.14382556
  Ewald energy   TEWEN  =    110882.94578193
  -Hartree energ DENC   =   -125167.28375839
  -exchange      EXHF   =         0.00000000
  -V(xc)+E(xc)   XCENC  =      1589.58686995
  PAW double counting   =     40585.86407543   -40752.78680649
  entropy T*S    EENTRO =        -0.01529310
  eigenvalues    EBANDS =     -4992.60748260
  atomic energy  EATOM  =     16689.68470767
  Solvation  Ediel_sol  =       293.43801907
  ---------------------------------------------------
  free energy    TOTEN  =      -779.03006097 eV

  energy without entropy =     -779.01476787  energy(sigma->0) =     -779.02241442


--------------------------------------------------------------------------------------------------------




--------------------------------------- Iteration      1(   7)  ---------------------------------------


    POTLOK:  cpu time  126.5686: real time  126.8411
    SETDIJ:  cpu time    1.2360: real time    1.0358
    EDDIAG:  cpu time   80.4256: real time   71.4711
  RMM-DIIS:  cpu time  545.1031: real time  400.3889
    ORTHCH:  cpu time    3.9592: real time    1.9868
       DOS:  cpu time    0.0177: real time    0.0089
    CHARGE:  cpu time   58.9413: real time   57.8834
    MIXING:  cpu time    0.1520: real time    0.1524
    --------------------------------------------
      LOOP:  cpu time  816.4035: real time  659.7684

 eigenvalue-minimisations  :  4667
 total energy-change (2. order) :-0.1991577E-04  (-0.9268257E-05)
 number of electron     346.9999987 magnetization       0.8253371
 augmentation part       16.0748050 magnetization       0.1502442

 Broyden mixing:
  rms(total) = 0.55754E-03    rms(broyden)= 0.55691E-03
  rms(prec ) = 0.56991E-03
  weight for this iteration     100.00

 eigenvalues of (default mixing * dielectric matrix)
  average eigenvalue GAMMA=   1.0351
  2.5766  0.5339  0.5339  1.0588  0.8023  0.7052

 Free energy of the ion-electron system (eV)
  ---------------------------------------------------
  alpha Z        PSCENC =        92.14382556
  Ewald energy   TEWEN  =    110882.94578193
  -Hartree energ DENC   =   -125167.23097222
  -exchange      EXHF   =         0.00000000
  -V(xc)+E(xc)   XCENC  =      1589.58464488
  PAW double counting   =     40585.81261253   -40752.73569865
  entropy T*S    EENTRO =        -0.01517602
  eigenvalues    EBANDS =     -4992.64211352
  atomic energy  EATOM  =     16689.68470767
  Solvation  Ediel_sol  =       293.42230695
  ---------------------------------------------------
  free energy    TOTEN  =      -779.03008089 eV

  energy without entropy =     -779.01490487  energy(sigma->0) =     -779.02249288


--------------------------------------------------------------------------------------------------------




--------------------------------------- Iteration      1(   8)  ---------------------------------------


    POTLOK:  cpu time  117.3854: real time  117.6345
    SETDIJ:  cpu time    1.2355: real time    1.0352
    EDDIAG:  cpu time   80.2673: real time   71.3074
  RMM-DIIS:  cpu time  523.3233: real time  383.9168
    ORTHCH:  cpu time    3.9579: real time    1.9857
       DOS:  cpu time    0.0039: real time    0.0020
    CHARGE:  cpu time   58.8827: real time   57.8272
    MIXING:  cpu time    0.1588: real time    0.1591
    --------------------------------------------
      LOOP:  cpu time  785.2148: real time  633.8678

 eigenvalue-minimisations  :  4408
 total energy-change (2. order) :-0.1838195E-04  (-0.9114025E-06)
 number of electron     346.9999987 magnetization       0.8253526
 augmentation part       16.0747740 magnetization       0.1490854

 Broyden mixing:
  rms(total) = 0.48090E-03    rms(broyden)= 0.47978E-03
  rms(prec ) = 0.50529E-03
  weight for this iteration     100.00

 eigenvalues of (default mixing * dielectric matrix)
  average eigenvalue GAMMA=   1.0999
  2.6165  1.2960  1.2960  0.5312  0.5312  0.7913  0.6367

 Free energy of the ion-electron system (eV)
  ---------------------------------------------------
  alpha Z        PSCENC =        92.14382556
  Ewald energy   TEWEN  =    110882.94578193
  -Hartree energ DENC   =   -125167.21514887
  -exchange      EXHF   =         0.00000000
  -V(xc)+E(xc)   XCENC  =      1589.58438068
  PAW double counting   =     40585.94224697   -40752.86545898
  entropy T*S    EENTRO =        -0.01511780
  eigenvalues    EBANDS =     -4992.65335962
  atomic energy  EATOM  =     16689.68470767
  Solvation  Ediel_sol  =       293.41804320
  ---------------------------------------------------
  free energy    TOTEN  =      -779.03009927 eV

  energy without entropy =     -779.01498147  energy(sigma->0) =     -779.02254037


--------------------------------------------------------------------------------------------------------




--------------------------------------- Iteration      1(   9)  ---------------------------------------


    POTLOK:  cpu time  122.7789: real time  123.0340
    SETDIJ:  cpu time    1.3729: real time    1.1046
    EDDIAG:  cpu time   80.2135: real time   71.2682
  RMM-DIIS:  cpu time  512.5459: real time  375.6939
    ORTHCH:  cpu time    3.9294: real time    1.9714
       DOS:  cpu time    0.0379: real time    0.0190
    CHARGE:  cpu time   58.9654: real time   57.9425
    MIXING:  cpu time    0.1641: real time    0.1645
    --------------------------------------------
      LOOP:  cpu time  780.0080: real time  631.1982

 eigenvalue-minimisations  :  4300
 total energy-change (2. order) :-0.2495126E-04  (-0.6572616E-06)
 number of electron     346.9999987 magnetization       0.8253337
 augmentation part       16.0748327 magnetization       0.1499488

 Broyden mixing:
  rms(total) = 0.23790E-03    rms(broyden)= 0.23728E-03
  rms(prec ) = 0.24545E-03
  weight for this iteration     100.00

 eigenvalues of (default mixing * dielectric matrix)
  average eigenvalue GAMMA=   1.1166
  2.6314  0.5295  0.5295  1.3974  1.3974  1.0867  0.7258  0.6349

 Free energy of the ion-electron system (eV)
  ---------------------------------------------------
  alpha Z        PSCENC =        92.14382556
  Ewald energy   TEWEN  =    110882.94578193
  -Hartree energ DENC   =   -125167.21419377
  -exchange      EXHF   =         0.00000000
  -V(xc)+E(xc)   XCENC  =      1589.58468912
  PAW double counting   =     40586.02393389   -40752.94728304
  entropy T*S    EENTRO =        -0.01516297
  eigenvalues    EBANDS =     -4992.65455372
  atomic energy  EATOM  =     16689.68470767
  Solvation  Ediel_sol  =       293.41813109
  ---------------------------------------------------
  free energy    TOTEN  =      -779.03012422 eV

  energy without entropy =     -779.01496126  energy(sigma->0) =     -779.02254274


--------------------------------------------------------------------------------------------------------




--------------------------------------- Iteration      1(  10)  ---------------------------------------


    POTLOK:  cpu time  113.6270: real time  113.8524
    SETDIJ:  cpu time    1.4602: real time    1.1501
    EDDIAG:  cpu time   80.2515: real time   71.2991
  RMM-DIIS:  cpu time  512.3034: real time  375.5813
    ORTHCH:  cpu time    3.9416: real time    1.9776
       DOS:  cpu time    0.0165: real time    0.0083
    CHARGE:  cpu time   58.9437: real time   57.9034
    MIXING:  cpu time    0.1669: real time    0.1673
    --------------------------------------------
      LOOP:  cpu time  770.7108: real time  621.9396

 eigenvalue-minimisations  :  4274
 total energy-change (2. order) : 0.1000436E-04  (-0.4410382E-06)
 number of electron     346.9999987 magnetization       0.8253189
 augmentation part       16.0748229 magnetization       0.1497502

 Broyden mixing:
  rms(total) = 0.75011E-04    rms(broyden)= 0.74981E-04
  rms(prec ) = 0.77480E-04
  weight for this iteration     100.00

 eigenvalues of (default mixing * dielectric matrix)
  average eigenvalue GAMMA=   1.2039
  2.7723  2.1821  0.5292  0.5292  1.2905  1.2905  0.9037  0.6313  0.7063

 Free energy of the ion-electron system (eV)
  ---------------------------------------------------
  alpha Z        PSCENC =        92.14382556
  Ewald energy   TEWEN  =    110882.94578193
  -Hartree energ DENC   =   -125167.21121115
  -exchange      EXHF   =         0.00000000
  -V(xc)+E(xc)   XCENC  =      1589.58495339
  PAW double counting   =     40585.99738607   -40752.92089494
  entropy T*S    EENTRO =        -0.01515390
  eigenvalues    EBANDS =     -4992.65050567
  atomic energy  EATOM  =     16689.68470767
  Solvation  Ediel_sol  =       293.41099682
  ---------------------------------------------------
  free energy    TOTEN  =      -779.03011422 eV

  energy without entropy =     -779.01496032  energy(sigma->0) =     -779.02253727


--------------------------------------------------------------------------------------------------------




--------------------------------------- Iteration      1(  11)  ---------------------------------------


    POTLOK:  cpu time  112.3809: real time  112.6049
    SETDIJ:  cpu time    1.2384: real time    1.0381
    EDDIAG:  cpu time   80.2593: real time   71.3190
  RMM-DIIS:  cpu time  509.2793: real time  375.3557
    ORTHCH:  cpu time    3.9460: real time    1.9801
       DOS:  cpu time    0.0094: real time    0.0047
    --------------------------------------------
      LOOP:  cpu time  707.1133: real time  562.3024

 eigenvalue-minimisations  :  4250
 total energy-change (2. order) :-0.5533824E-05  (-0.2887656E-06)
 number of electron     346.9999987 magnetization       0.8253189
 augmentation part       16.0748229 magnetization       0.1497502

 Free energy of the ion-electron system (eV)
  ---------------------------------------------------
  alpha Z        PSCENC =        92.14382556
  Ewald energy   TEWEN  =    110882.94578193
  -Hartree energ DENC   =   -125167.20736982
  -exchange      EXHF   =         0.00000000
  -V(xc)+E(xc)   XCENC  =      1589.58513355
  PAW double counting   =     40586.02453473   -40752.94812018
  entropy T*S    EENTRO =        -0.01514410
  eigenvalues    EBANDS =     -4992.64822799
  atomic energy  EATOM  =     16689.68470767
  Solvation  Ediel_sol  =       293.40475890
  ---------------------------------------------------
  free energy    TOTEN  =      -779.03011975 eV

  energy without entropy =     -779.01497565  energy(sigma->0) =     -779.02254770


--------------------------------------------------------------------------------------------------------




 average (electrostatic) potential at core
  the test charge radii are     0.7672  0.7089  0.6991  0.7167  0.7215
  (the norm of the test charge is              1.0000)
       1 -38.6085       2 -38.6117       3 -38.6096       4 -38.6061       5 -38.6052
       6 -38.6061       7 -38.6090       8 -38.6166       9 -38.6196      10 -38.6116
      11 -38.6060      12 -38.6060      13 -38.6072      14 -38.6123      15 -38.6185
      16 -38.6153      17 -38.6077      18 -38.6057      19 -38.6055      20 -38.6071
      21 -38.6094      22 -38.6097      23 -38.6068      24 -38.6052      25 -38.6051
      26 -38.6053      27 -38.6057      28 -38.6057      29 -38.6052      30 -38.6050
      31 -38.6061      32 -38.6062      33 -38.6054      34 -38.6050      35 -38.6050
      36 -38.6054      37 -76.1653      38 -76.1658      39 -76.1633      40 -76.1622
      41 -76.1624      42 -76.1634      43 -76.1685      44 -76.1771      45 -76.1726
      46 -76.1643      47 -76.1625      48 -76.1638      49 -76.1666      50 -76.1767
      51 -76.1810      52 -76.1695      53 -76.1632      54 -76.1632      55 -76.1635
      56 -76.1669      57 -76.1708      58 -76.1676      59 -76.1632      60 -76.1624
      61 -76.1623      62 -76.1629      63 -76.1634      64 -76.1630      65 -76.1623
      66 -76.1621      67 -76.1626      68 -76.1624      69 -76.1622      70 -76.1621
      71 -76.1621      72 -76.1624      73 -67.9249      74 -66.5130      75 -65.4730
      76 -92.2529      77 -92.1738      78 -92.2499      79 -92.4649      80 -92.4539
      81 -85.9038      82 -85.8943
 
 
 
 E-fermi :  -6.1599     XC(G=0):  -1.3779     alpha+bet : -1.1429


 spin component 1

 k-point     1 :       0.0000    0.0000    0.0000
  band No.  band energies     occupation 
      1     -36.0655      1.00000
      2     -35.3334      1.00000
      3     -33.9236      1.00000
      4     -33.6081      1.00000
      5     -33.5814      1.00000
      6     -30.2474      1.00000
      7     -28.8114      1.00000
      8     -24.8397      1.00000
      9     -24.2991      1.00000
     10     -24.2957      1.00000
     11     -24.2951      1.00000
     12     -24.2928      1.00000
     13     -24.2925      1.00000
     14     -24.2919      1.00000
     15     -23.2824      1.00000
     16     -23.2818      1.00000
     17     -23.2815      1.00000
     18     -23.2808      1.00000
     19     -23.2807      1.00000
     20     -23.2804      1.00000
     21     -22.8422      1.00000
     22     -22.8420      1.00000
     23     -22.8419      1.00000
     24     -22.8413      1.00000
     25     -22.8412      1.00000
     26     -22.8408      1.00000
     27     -21.7878      1.00000
     28     -21.7873      1.00000
     29     -21.7847      1.00000
     30     -21.7839      1.00000
     31     -21.7834      1.00000
     32     -21.7829      1.00000
     33     -21.7812      1.00000
     34     -21.7809      1.00000
     35     -21.7808      1.00000
     36     -21.7805      1.00000
     37     -21.7801      1.00000
     38     -21.7800      1.00000
     39     -21.6953      1.00000
     40     -21.6953      1.00000
     41     -21.6953      1.00000
     42     -21.2854      1.00000
     43     -21.1177      1.00000
     44     -21.1175      1.00000
     45     -18.3672      1.00000
     46     -16.6920      1.00000
     47     -16.4897      1.00000
     48     -16.4533      1.00000
     49     -15.5691      1.00000
     50     -15.4682      1.00000
     51     -15.3952      1.00000
     52     -15.3952      1.00000
     53     -15.3951      1.00000
     54     -14.5448      1.00000
     55     -14.5444      1.00000
     56     -14.5435      1.00000
     57     -14.5430      1.00000
     58     -14.5412      1.00000
     59     -14.5407      1.00000
     60     -14.5404      1.00000
     61     -14.5401      1.00000
     62     -14.5392      1.00000
     63     -14.5391      1.00000
     64     -14.5388      1.00000
     65     -14.5387      1.00000
     66     -14.2792      1.00000
     67     -14.2791      1.00000
     68     -14.1255      1.00000
     69     -13.6744      1.00000
     70     -13.6743      1.00000
     71     -13.3342      1.00000
     72     -13.3340      1.00000
     73     -13.3338      1.00000
     74     -13.3336      1.00000
     75     -13.3332      1.00000
     76     -13.3332      1.00000
     77     -13.0362      1.00000
     78     -12.9206      1.00000
     79     -12.7004      1.00000
     80     -12.6876      1.00000
     81     -12.5175      1.00000
     82     -12.3743      1.00000
     83     -12.1571      1.00000
     84     -11.9516      1.00000
     85     -11.9289      1.00000
     86     -11.9287      1.00000
     87     -11.9286      1.00000
     88     -11.9282      1.00000
     89     -11.9281      1.00000
     90     -11.9278      1.00000
     91     -11.6752      1.00000
     92     -11.6750      1.00000
     93     -11.6737      1.00000
     94     -11.6733      1.00000
     95     -11.6719      1.00000
     96     -11.6712      1.00000
     97     -11.6707      1.00000
     98     -11.6704      1.00000
     99     -11.6696      1.00000
    100     -11.6693      1.00000
    101     -11.6691      1.00000
    102     -11.6690      1.00000
    103     -11.6110      1.00000
    104     -11.5143      1.00000
    105     -11.4382      1.00000
    106     -11.0913      1.00000
    107     -10.8087      1.00000
    108     -10.7820      1.00000
    109     -10.7816      1.00000
    110     -10.7793      1.00000
    111     -10.7790      1.00000
    112     -10.7784      1.00000
    113     -10.7444      1.00000
    114     -10.4424      1.00000
    115     -10.4423      1.00000
    116     -10.4423      1.00000
    117     -10.2194      1.00000
    118     -10.2190      1.00000
    119     -10.2189      1.00000
    120     -10.2185      1.00000
    121     -10.2184      1.00000
    122     -10.2180      1.00000
    123      -9.8692      1.00000
    124      -9.8689      1.00000
    125      -9.8688      1.00000
    126      -9.8686      1.00000
    127      -9.8684      1.00000
    128      -9.8683      1.00000
    129      -9.6200      1.00000
    130      -9.6195      1.00000
    131      -9.6193      1.00000
    132      -9.6173      1.00000
    133      -9.6167      1.00000
    134      -9.6157      1.00000
    135      -9.4000      1.00000
    136      -9.3985      1.00000
    137      -9.3976      1.00000
    138      -9.3965      1.00000
    139      -9.3960      1.00000
    140      -9.3955      1.00000
    141      -9.0095      1.00000
    142      -8.9385      1.00000
    143      -8.7807      1.00000
    144      -8.7803      1.00000
    145      -8.7793      1.00000
    146      -8.7790      1.00000
    147      -8.7785      1.00000
    148      -8.7747      1.00000
    149      -8.4670      1.00000
    150      -8.4664      1.00000
    151      -8.4661      1.00000
    152      -8.4644      1.00000
    153      -8.4638      1.00000
    154      -8.4631      1.00000
    155      -7.5493      1.00000
    156      -7.5492      1.00000
    157      -7.4269      1.00000
    158      -7.2387      1.00000
    159      -7.2377      1.00000
    160      -7.2349      1.00000
    161      -7.2345      1.00000
    162      -7.2335      1.00000
    163      -7.2331      1.00000
    164      -7.2318      1.00000
    165      -7.2313      1.00000
    166      -7.2313      1.00000
    167      -7.2310      1.00000
    168      -7.2306      1.00000
    169      -7.2305      1.00000
    170      -7.0760      1.00000
    171      -7.0759      1.00000
    172      -7.0757      1.00000
    173      -6.1696      0.60721
    174      -6.1695      0.60683
    175      -1.0199      0.00000
    176      -0.8871      0.00000
    177      -0.8546      0.00000
    178      -0.8520      0.00000
    179      -0.7875      0.00000
    180      -0.7869      0.00000
    181      -0.7777      0.00000
    182      -0.3056      0.00000
    183      -0.1880      0.00000
    184      -0.1730      0.00000
    185      -0.1214      0.00000
    186      -0.0848      0.00000
    187      -0.0803      0.00000
    188      -0.0780      0.00000
    189      -0.0756      0.00000
    190      -0.0738      0.00000
    191      -0.0728      0.00000
    192      -0.0714      0.00000
    193      -0.0709      0.00000
    194      -0.0706      0.00000
    195      -0.0699      0.00000
    196      -0.0697      0.00000
    197      -0.0695      0.00000
[...]
   0.251E+01 0.486E+01 0.703E+02   -.248E+01 -.491E+01 -.701E+02   -.583E-03 0.660E-03 -.155E-02   -.271E-05 0.485E-04 0.190E-03
   -.662E+01 0.185E+02 0.794E+02   0.666E+01 -.185E+02 -.791E+02   -.222E-02 0.344E-02 -.681E-02   -.519E-04 0.999E-04 0.231E-03
   -.244E+02 0.225E+02 0.912E+02   0.244E+02 -.224E+02 -.909E+02   -.453E-02 0.444E-02 -.743E-02   -.136E-03 0.954E-04 0.256E-03
   -.321E+02 0.100E+02 0.911E+02   0.320E+02 -.988E+01 -.907E+02   -.431E-02 0.156E-02 -.702E-02   -.160E-03 0.293E-04 0.222E-03
   -.202E+02 -.312E+01 0.791E+02   0.200E+02 0.313E+01 -.788E+02   -.135E-02 -.168E-02 -.922E-02   -.897E-04 -.136E-04 0.174E-03
   -.325E+01 -.430E+01 0.700E+02   0.319E+01 0.426E+01 -.697E+02   -.636E-03 -.987E-03 -.776E-02   -.141E-04 0.238E-05 0.166E-03
   0.187E+02 -.102E+02 0.775E+02   -.186E+02 0.102E+02 -.772E+02   0.203E-02 -.282E-02 -.869E-02   0.567E-04 -.234E-04 0.171E-03
   0.978E+01 -.912E+01 0.759E+02   -.968E+01 0.904E+01 -.756E+02   0.120E-02 -.155E-02 -.632E-02   0.168E-04 -.980E-05 0.172E-03
   -.466E+01 0.130E+00 0.730E+02   0.469E+01 -.186E+00 -.727E+02   0.427E-03 0.142E-02 -.131E-01   -.404E-04 0.212E-04 0.183E-03
   -.111E+02 0.605E+01 0.722E+02   0.111E+02 -.603E+01 -.719E+02   0.596E-03 0.616E-03 -.832E-02   -.570E-04 0.216E-04 0.186E-03
   -.318E+01 0.386E+01 0.726E+02   0.310E+01 -.381E+01 -.724E+02   0.162E-02 -.701E-03 -.683E-02   -.179E-04 0.355E-05 0.177E-03
   0.122E+02 -.322E+01 0.751E+02   -.122E+02 0.325E+01 -.748E+02   0.203E-02 -.189E-02 -.107E-01   0.402E-04 -.123E-04 0.171E-03
   0.393E+01 0.253E+02 -.411E+03   -.476E+01 -.241E+02 0.403E+03   0.989E+00 -.891E+00 0.846E+01   -.248E-04 0.280E-03 -.156E-02
   -.130E+02 -.463E+02 -.322E+03   0.192E+02 0.562E+02 0.329E+03   -.582E+01 -.922E+01 -.643E+01   0.491E-03 0.900E-03 -.421E-03
   -.430E+02 -.111E+03 -.315E+03   0.427E+02 0.110E+03 0.316E+03   0.569E+00 0.118E+01 -.213E+00   -.440E-03 -.115E-02 0.297E-03
   -.535E+03 0.854E+02 -.901E+03   0.593E+03 -.884E+02 0.917E+03   -.573E+02 0.338E+01 -.155E+02   -.918E-03 0.364E-03 -.172E-02
   0.244E+03 0.512E+03 -.883E+03   -.269E+03 -.562E+03 0.900E+03   0.255E+02 0.492E+02 -.162E+02   0.429E-03 0.869E-03 -.149E-02
   0.242E+03 -.365E+03 -.103E+04   -.268E+03 0.410E+03 0.106E+04   0.253E+02 -.441E+02 -.304E+02   0.516E-03 -.427E-03 -.196E-02
   -.214E+03 0.410E+03 -.310E+03   0.245E+03 -.451E+03 0.278E+03   -.292E+02 0.414E+02 0.318E+02   -.956E-03 0.259E-02 0.125E-02
   0.548E+03 0.235E+02 -.436E+03   -.606E+03 -.192E+02 0.420E+03   0.576E+02 -.274E+01 0.165E+02   0.314E-02 0.526E-03 0.453E-03
   -.445E+03 -.116E+03 -.445E+03   0.505E+03 0.105E+03 0.438E+03   -.579E+02 0.119E+02 0.658E+01   -.192E-02 -.670E-03 0.463E-03
   0.209E+03 -.424E+03 -.483E+03   -.257E+03 0.464E+03 0.482E+03   0.457E+02 -.382E+02 0.114E+01   0.852E-03 -.196E-02 0.302E-03
 -----------------------------------------------------------------------------------------------
   -.544E+01 -.120E+02 0.440E+01   -.568E-13 -.568E-13 0.227E-12   0.542E+01 0.120E+02 -.439E+01   0.117E-02 0.132E-02 0.104E-01
 
 
 POSITION                                       TOTAL-FORCE (eV/Angst)
 -----------------------------------------------------------------------------------
      1.25609     -0.72512     17.55756        -0.006431     -0.000727      0.001227
      2.51216      1.45053     17.55615        -0.017110      0.005354      0.003731
      3.76836      3.62598     17.55568        -0.015350      0.015801     -0.006505
      5.02439      5.80160     17.55648        -0.002188      0.008060      0.001080
      6.28047      7.97728     17.55782        -0.000051      0.001694      0.000718
      7.53657     10.15295     17.55799        -0.001768     -0.000201      0.001296
      2.51220     -2.90082     17.55780        -0.003525     -0.004672      0.001769
      3.76839     -0.72512     17.55543        -0.019635     -0.011422      0.005240
      5.02428      1.45070     17.55232        -0.006972      0.004471      0.007223
      6.28050      3.62603     17.55459         0.003807      0.015427     -0.002777
      7.53654      5.80160     17.55687         0.004261      0.006963      0.000584
      8.79265      7.97728     17.55808         0.000022     -0.000200      0.000988
      3.76829     -5.07645     17.55809         0.000258     -0.004411      0.001475
      5.02439     -2.90080     17.55733        -0.001223     -0.016170      0.003766
      6.28061     -0.72520     17.55445         0.003851     -0.013727      0.002444
      7.53663      1.45049     17.55431         0.014347      0.005175      0.002145
      8.79257      3.62597     17.55586         0.014967      0.010542      0.003060
     10.04870      5.80163     17.55771         0.004079      0.001955      0.000468
      5.02437     -7.25208     17.55791         0.000908     -0.000708      0.001079
      6.28048     -5.07643     17.55790         0.000658     -0.005946      0.001476
      7.53656     -2.90074     17.55685         0.004062     -0.013199      0.002517
      8.79260     -0.72506     17.55566         0.012690     -0.006266      0.004220
     10.04862      1.45043     17.55627         0.014556      0.004977      0.001107
     11.30477      3.62602     17.55748         0.005312      0.003217      0.000341
      6.28047     -9.42771     17.55787        -0.000766      0.001625      0.000838
      7.53659     -7.25207     17.55784        -0.001166      0.000290      0.000844
      8.79266     -5.07639     17.55795         0.000472     -0.002617      0.000642
     10.04870     -2.90073     17.55747         0.003549     -0.002734      0.000580
     11.30476     -0.72515     17.55740         0.004635      0.000313      0.000400
     12.56087      1.45042     17.55784         0.002188      0.002090      0.000515
      7.53657    -11.60330     17.55779        -0.005307      0.002926      0.000940
      8.79271     -9.42770     17.55713        -0.008051      0.005433      0.000959
     10.04880     -7.25210     17.55736        -0.004323      0.003908      0.000635
     11.30484     -5.07644     17.55791        -0.000057      0.001269      0.000564
     12.56091     -2.90079     17.55792         0.000369      0.000406      0.000987
     13.81700     -0.72517     17.55802        -0.001204      0.000738      0.001007
      1.25602      0.72526     17.55740         0.009101      0.000080     -0.001951
      2.51207      2.90093     17.55599         0.013490     -0.007030      0.001772
      3.76824      5.07655     17.55627         0.005127     -0.009158      0.001845
      5.02438      7.25210     17.55764         0.000399     -0.002072     -0.002032
      6.28047      9.42773     17.55800         0.001074      0.000483     -0.000761
      7.53654     11.60336     17.55804         0.003511      0.001208     -0.001186
      2.51209     -1.45045     17.55733         0.013721      0.007834     -0.002145
      3.76804      0.72521     17.55535         0.023219      0.003544     -0.003920
      5.02427      2.90115     17.55287         0.009947     -0.020369      0.006887
      6.28050      5.07662     17.55577        -0.001197     -0.013442      0.000617
      7.53657      7.25209     17.55788         0.000514     -0.001085     -0.001949
      8.79265      9.42770     17.55816         0.002809      0.002225     -0.001253
      3.76829     -3.62607     17.55809         0.002876      0.007235     -0.001313
      5.02428     -1.45053     17.55644         0.010089      0.018563     -0.001159
      6.28035      0.72521     17.55344        -0.004492      0.003685      0.006864
      7.53671      2.90101     17.55437        -0.014461     -0.015883      0.004051
      8.79269      5.07649     17.55697        -0.004104     -0.004792     -0.002261
     10.04875      7.25207     17.55821         0.000344      0.001609     -0.001607
      5.02439     -5.80167     17.55805        -0.000164      0.003634     -0.001056
      6.28047     -3.62608     17.55764        -0.001460      0.010593     -0.000887
      7.53670     -1.45057     17.55543        -0.013084      0.017249      0.001130
      8.79285      0.72524     17.55492        -0.021339      0.002162      0.001224
     10.04881      2.90088     17.55655        -0.008837     -0.003232     -0.001909
     11.30485      5.07647     17.55783        -0.001600     -0.000015     -0.001264
      6.28048     -7.97727     17.55787         0.000405      0.000500     -0.000697
      7.53656     -5.80165     17.55804         0.000001      0.002663     -0.001393
      8.79266     -3.62603     17.55755        -0.002854      0.004429     -0.001496
     10.04877     -1.45038     17.55688        -0.006849      0.003589     -0.001852
     11.30483      0.72525     17.55732        -0.003896      0.000331     -0.001763
     12.56092      2.90086     17.55790        -0.000759     -0.000480     -0.001283
      7.53655    -10.15287     17.55776         0.003176     -0.001256     -0.001711
      8.79264     -7.97726     17.55754         0.002841     -0.001388     -0.001431
     10.04874     -5.80164     17.55806         0.000369      0.000074     -0.002029
     11.30483     -3.62600     17.55796        -0.001044      0.000776     -0.001179
     12.56091     -1.45038     17.55792        -0.000248      0.000850     -0.001105
     13.81700      0.72525     17.55814         0.001467      0.000157     -0.001550
      5.17098     -0.79799     23.63421        -0.001773     -0.006644      0.015504
      5.01415     -0.58924     22.12366         0.010503      0.039581     -0.013514
      5.79958      1.11046     21.65038        -0.006548     -0.038591      0.018099
      6.46272     -0.87038     23.96763        -0.002338      0.014915     -0.023601
      4.57148     -1.94834     23.99449         0.010061      0.004887      0.014971
      4.59599      0.20689     24.30420        -0.001534      0.010071     -0.025156
      5.65620     -1.52512     21.43563        -0.005145     -0.013619     -0.013711
      3.73418     -0.54797     21.77834        -0.018356     -0.022411     -0.014214
      6.96847      0.87182     21.51885        -0.024339     -0.002433      0.004803
      4.88099      1.88074     21.62824         0.021516     -0.018662      0.008989
 -----------------------------------------------------------------------------------
    total drift:                               -0.024519     -0.042140      0.023842


--------------------------------------------------------------------------------------------------------



  FREE ENERGIE OF THE ION-ELECTRON SYSTEM (eV)
  ---------------------------------------------------
  free  energy   TOTEN  =      -779.03011975 eV

  energy  without entropy=     -779.01497565  energy(sigma->0) =     -779.02254770
 


--------------------------------------------------------------------------------------------------------


    POTLOK:  cpu time  111.5074: real time  111.4277


--------------------------------------------------------------------------------------------------------


 stress matrix after NEB project (eV)
    -27.61619      0.62239      0.34052
      0.62227    -26.67010      0.26243
      0.33929      0.26207     -0.20621
  FORCES: max atom, RMS     0.043124    0.014573
  FORCE total and by dimension    0.131966    0.039581
  Stress total and by dimension   38.407467   27.616186
 writing wavefunctions
     LOOP+:  cpu time10598.6488: real time 8581.0687
    4ORBIT:  cpu time    0.0000: real time    0.0000
 


 total charge     
 
# of ion       s       p       d       tot
------------------------------------------
    1        0.744   1.393   0.000   2.138
    2        0.744   1.393   0.000   2.138
    3        0.744   1.393   0.000   2.138
    4        0.744   1.394   0.000   2.138
    5        0.744   1.393   0.000   2.138
    6        0.744   1.393   0.000   2.138
    7        0.744   1.393   0.000   2.138
    8        0.744   1.394   0.000   2.138
    9        0.744   1.393   0.000   2.137
   10        0.744   1.393   0.000   2.137
   11        0.744   1.394   0.000   2.138
   12        0.744   1.393   0.000   2.138
   13        0.744   1.394   0.000   2.138
   14        0.744   1.394   0.000   2.138
   15        0.744   1.393   0.000   2.137
   16        0.744   1.393   0.000   2.137
   17        0.744   1.394   0.000   2.138
   18        0.744   1.394   0.000   2.138
   19        0.744   1.394   0.000   2.138
   20        0.744   1.394   0.000   2.138
   21        0.744   1.394   0.000   2.138
   22        0.744   1.393   0.000   2.137
   23        0.744   1.394   0.000   2.138
   24        0.744   1.394   0.000   2.138
   25        0.744   1.394   0.000   2.138
   26        0.744   1.394   0.000   2.138
   27        0.744   1.393   0.000   2.138
   28        0.744   1.393   0.000   2.138
   29        0.744   1.394   0.000   2.138
   30        0.744   1.394   0.000   2.138
   31        0.744   1.394   0.000   2.138
   32        0.744   1.394   0.000   2.138
   33        0.744   1.394   0.000   2.138
   34        0.744   1.393   0.000   2.138
   35        0.744   1.393   0.000   2.138
   36        0.744   1.394   0.000   2.138
   37        1.238   2.822   0.000   4.060
   38        1.238   2.822   0.000   4.060
   39        1.238   2.822   0.000   4.060
   40        1.238   2.822   0.000   4.060
   41        1.238   2.822   0.000   4.060
   42        1.238   2.822   0.000   4.060
   43        1.238   2.821   0.000   4.060
   44        1.238   2.822   0.000   4.060
   45        1.238   2.822   0.000   4.060
   46        1.238   2.822   0.000   4.060
   47        1.238   2.822   0.000   4.060
   48        1.238   2.822   0.000   4.060
   49        1.238   2.822   0.000   4.060
   50        1.238   2.821   0.000   4.060
   51        1.238   2.821   0.000   4.060
   52        1.238   2.822   0.000   4.060
   53        1.238   2.822   0.000   4.060
   54        1.238   2.822   0.000   4.060
   55        1.238   2.822   0.000   4.060
   56        1.238   2.822   0.000   4.060
   57        1.238   2.822   0.000   4.060
   58        1.238   2.822   0.000   4.060
   59        1.238   2.822   0.000   4.060
   60        1.238   2.822   0.000   4.060
   61        1.238   2.822   0.000   4.060
   62        1.238   2.822   0.000   4.060
   63        1.238   2.822   0.000   4.060
   64        1.238   2.822   0.000   4.060
   65        1.238   2.822   0.000   4.060
   66        1.238   2.822   0.000   4.060
   67        1.238   2.822   0.000   4.060
   68        1.238   2.822   0.000   4.060
   69        1.238   2.822   0.000   4.060
   70        1.238   2.822   0.000   4.060
   71        1.238   2.822   0.000   4.060
   72        1.238   2.822   0.000   4.060
   73        0.814   1.563   0.000   2.377
   74        0.838   1.551   0.000   2.389
   75        0.908   1.728   0.000   2.635
   76        1.759   4.414   0.000   6.172
   77        1.759   4.406   0.000   6.165
   78        1.758   4.413   0.000   6.172
   79        1.758   4.401   0.000   6.159
   80        1.758   4.402   0.000   6.160
   81        1.605   3.563   0.000   5.168
   82        1.605   3.565   0.000   5.170
--------------------------------------------------
tot         85.923 185.749   0.000 271.672
 


 magnetization (x)
 
# of ion       s       p       d       tot
------------------------------------------
    1       -0.000  -0.000   0.000  -0.000
    2       -0.000   0.000   0.000  -0.000
    3       -0.000   0.000   0.000  -0.000
    4       -0.000  -0.000   0.000  -0.000
    5       -0.000  -0.000   0.000  -0.000
    6       -0.000  -0.000   0.000  -0.000
    7       -0.000  -0.000   0.000  -0.000
    8       -0.000  -0.000   0.000  -0.000
    9       -0.000   0.000   0.000   0.000
   10       -0.000   0.000   0.000   0.000
   11       -0.000  -0.000   0.000  -0.000
   12       -0.000  -0.000   0.000  -0.000
   13       -0.000  -0.000   0.000  -0.000
   14       -0.000  -0.000   0.000  -0.000
   15       -0.000  -0.000   0.000  -0.000
   16        0.000   0.000   0.000   0.000
   17       -0.000  -0.000   0.000  -0.000
   18       -0.000  -0.000   0.000  -0.000
   19       -0.000  -0.000   0.000  -0.000
   20       -0.000  -0.000   0.000  -0.000
   21       -0.000  -0.000   0.000  -0.000
   22       -0.000  -0.000   0.000  -0.000
   23       -0.000  -0.000   0.000  -0.000
   24       -0.000  -0.000   0.000  -0.000
   25       -0.000  -0.000   0.000  -0.000
   26       -0.000  -0.000   0.000  -0.000
   27       -0.000  -0.000   0.000  -0.000
   28       -0.000  -0.000   0.000  -0.000
   29       -0.000  -0.000   0.000  -0.000
   30       -0.000  -0.000   0.000  -0.000
   31       -0.000  -0.000   0.000  -0.000
   32       -0.000  -0.000   0.000  -0.000
   33       -0.000  -0.000   0.000  -0.000
   34       -0.000  -0.000   0.000  -0.000
   35       -0.000  -0.000   0.000  -0.000
   36       -0.000  -0.000   0.000  -0.000
   37        0.000   0.000   0.000   0.000
   38       -0.000   0.000   0.000   0.000
   39        0.000   0.000   0.000   0.000
   40        0.000   0.000   0.000   0.000
   41        0.000   0.000   0.000   0.000
   42        0.000   0.000   0.000   0.000
   43        0.000   0.000   0.000   0.000
   44       -0.000   0.000   0.000   0.000
   45        0.000   0.000   0.000   0.000
   46        0.000   0.000   0.000   0.000
   47        0.000   0.000   0.000   0.000
   48        0.000   0.000   0.000   0.000
   49       -0.000  -0.000   0.000  -0.000
   50       -0.000  -0.000   0.000  -0.000
   51        0.000   0.000   0.000   0.000
   52        0.000  -0.000   0.000  -0.000
   53        0.000   0.000   0.000   0.000
   54        0.000   0.000   0.000   0.000
   55        0.000   0.000   0.000   0.000
   56        0.000   0.000   0.000   0.000
   57        0.000   0.000   0.000   0.000
   58        0.000   0.000   0.000   0.000
   59        0.000   0.000   0.000   0.000
   60       -0.000   0.000   0.000   0.000
   61        0.000   0.000   0.000   0.000
   62        0.000   0.000   0.000   0.000
   63        0.000   0.000   0.000   0.000
   64        0.000   0.000   0.000   0.000
   65        0.000   0.000   0.000   0.000
   66        0.000   0.000   0.000   0.000
   67        0.000   0.000   0.000   0.000
   68        0.000   0.000   0.000   0.000
   69        0.000   0.000   0.000   0.000
   70        0.000   0.000   0.000   0.000
   71        0.000   0.000   0.000   0.000
   72        0.000   0.000   0.000   0.000
   73        0.005   0.013   0.000   0.019
   74        0.038   0.201   0.000   0.239
   75       -0.013  -0.027   0.000  -0.039
   76       -0.000  -0.001   0.000  -0.001
   77        0.000   0.019   0.000   0.019
   78       -0.000  -0.001   0.000  -0.001
   79        0.001   0.051   0.000   0.052
   80        0.001   0.049   0.000   0.050
   81        0.002   0.140   0.000   0.142
   82        0.002   0.132   0.000   0.134
--------------------------------------------------
tot          0.037   0.578   0.000   0.615
 

 total amount of memory used by VASP MPI-rank0  2282336. kBytes
=======================================================================

   base      :      30000. kBytes
   nonlr-proj:      37384. kBytes
   fftplans  :     146413. kBytes
   grid      :    1028390. kBytes
   one-center:        503. kBytes
   wavefun   :    1039646. kBytes
 
  
  
 General timing and accounting informations for this job:
 ========================================================
  
                  Total CPU time used (sec):    12064.818
                            User time (sec):    11341.710
                          System time (sec):      723.108
                         Elapsed time (sec):     9414.759
  
                   Maximum memory used (kb):     5139744.
                   Average memory used (kb):           0.
  
                          Minor page faults:      3345605
                          Major page faults:            8
                 Voluntary context switches:       115950
